      -----------------------------------------------------------      
     |                   =====================                   |     
     |                           x T B                           |     
     |                   =====================                   |     
     |                         S. Grimme                         |     
     |          Mulliken Center for Theoretical Chemistry        |     
     |                    University of Bonn                     |     
      -----------------------------------------------------------      

   * xtb version 6.6.1 (8d0f1dd) compiled by 'conda@1efc2f54142f' on 2023-08-01

   xtb is free software: you can redistribute it and/or modify it under
   the terms of the GNU Lesser General Public License as published by
   the Free Software Foundation, either version 3 of the License, or
   (at your option) any later version.
   
   xtb is distributed in the hope that it will be useful,
   but WITHOUT ANY WARRANTY; without even the implied warranty of
   MERCHANTABILITY or FITNESS FOR A PARTICULAR PURPOSE.  See the
   GNU Lesser General Public License for more details.
   
   Cite this work as:
   * C. Bannwarth, E. Caldeweyher, S. Ehlert, A. Hansen, P. Pracht,
     J. Seibert, S. Spicher, S. Grimme, WIREs Comput. Mol. Sci., 2020, 11,
     e01493. DOI: 10.1002/wcms.1493
   
   for GFN2-xTB:
   * C. Bannwarth, S. Ehlert and S. Grimme., J. Chem. Theory Comput., 2019,
     15, 1652-1671. DOI: 10.1021/acs.jctc.8b01176
   for GFN1-xTB:
   * S. Grimme, C. Bannwarth, P. Shushkov, J. Chem. Theory Comput., 2017,
     13, 1989-2009. DOI: 10.1021/acs.jctc.7b00118
   for GFN0-xTB:
   * P. Pracht, E. Caldeweyher, S. Ehlert, S. Grimme, ChemRxiv, 2019, preprint.
     DOI: 10.26434/chemrxiv.8326202.v1
   for GFN-FF:
   * S. Spicher and S. Grimme, Angew. Chem. Int. Ed., 2020, 59, 15665-15673.
     DOI: 10.1002/anie.202004239
   
   for ALPB and GBSA implicit solvation:
   * S. Ehlert, M. Stahn, S. Spicher, S. Grimme, J. Chem. Theory Comput.,
     2021, 17, 4250-4261. DOI: 10.1021/acs.jctc.1c00471
   
   for DFT-D4:
   * E. Caldeweyher, C. Bannwarth and S. Grimme, J. Chem. Phys., 2017,
     147, 034112. DOI: 10.1063/1.4993215
   * E. Caldeweyher, S. Ehlert, A. Hansen, H. Neugebauer, S. Spicher,
     C. Bannwarth and S. Grimme, J. Chem. Phys., 2019, 150, 154122.
     DOI: 10.1063/1.5090222
   * E. Caldeweyher, J.-M. Mewes, S. Ehlert and S. Grimme, Phys. Chem. Chem. Phys.
     2020, 22, 8499-8512. DOI: 10.1039/D0CP00502A
   
   for sTDA-xTB:
   * S. Grimme and C. Bannwarth, J. Chem. Phys., 2016, 145, 054103.
     DOI: 10.1063/1.4959605
   
   in the mass-spec context:
   * V. Asgeirsson, C. Bauer and S. Grimme, Chem. Sci., 2017, 8, 4879.
     DOI: 10.1039/c7sc00601b
   * J. Koopman and S. Grimme, ACS Omega 2019, 4, 12, 15120-15133.
     DOI: 10.1021/acsomega.9b02011
   
   for metadynamics refer to:
   * S. Grimme, J. Chem. Theory Comput., 2019, 155, 2847-2862
     DOI: 10.1021/acs.jctc.9b00143
   
   for SPH calculations refer to:
   * S. Spicher and S. Grimme, J. Chem. Theory Comput., 2021, 17, 1701-1714
     DOI: 10.1021/acs.jctc.0c01306
   
   with help from (in alphabetical order)
   P. Atkinson, C. Bannwarth, F. Bohle, G. Brandenburg, E. Caldeweyher
   M. Checinski, S. Dohm, S. Ehlert, S. Ehrlich, I. Gerasimov, C. Hölzer
   A. Katbashev, J. Koopman, C. Lavigne, S. Lehtola, F. März, M. Müller,
   F. Musil, H. Neugebauer, J. Pisarek, C. Plett, P. Pracht, F. Pultar,
   J. Seibert, P. Shushkov, S. Spicher, M. Stahn, M. Steiner, T. Strunk,
   J. Stückrath, T. Rose, and J. Unsleber
   
 * started run on 2024/06/05 at 19:58:52.691     

           -------------------------------------------------
          |                Calculation Setup                |
           -------------------------------------------------

          program call               : xtb struc.xyz --opt loose --input .xc1 --gfn2
          hostname                   : n-62-29-9
          coordinate file            : struc.xyz
          omp threads                :                     1

   ID    Z sym.   atoms
    1    6 C      1, 3, 5-7, 10, 11, 14
    2    7 N      2, 4, 9, 13
    3    8 O      8, 12
    4    1 H      15-25
constraining bond 11 22 to    5.1400000 Å, actual value:    3.1884051 Å

           -------------------------------------------------
          |                 G F N 2 - x T B                 |
           -------------------------------------------------

        Reference                      10.1021/acs.jctc.8b01176
      * Hamiltonian:
        H0-scaling (s, p, d)           1.850000    2.230000    2.230000
        zeta-weighting                 0.500000
      * Dispersion:
        s8                             2.700000
        a1                             0.520000
        a2                             5.000000
        s9                             5.000000
      * Repulsion:
        kExp                           1.500000    1.000000
        rExp                           1.000000
      * Coulomb:
        alpha                          2.000000
        third order                    shell-resolved
        anisotropic                    true
        a3                             3.000000
        a5                             4.000000
        cn-shift                       1.200000
        cn-exp                         4.000000
        max-rad                        5.000000


          ...................................................
          :                      SETUP                      :
          :.................................................:
          :  # basis functions                  67          :
          :  # atomic orbitals                  67          :
          :  # shells                           39          :
          :  # electrons                        74          :
          :  max. iterations                   250          :
          :  Hamiltonian                  GFN2-xTB          :
          :  restarted?                      false          :
          :  GBSA solvation                  false          :
          :  PC potential                    false          :
          :  electronic temp.         7500.0000000     K    :
          :  accuracy                    1.0000000          :
          :  -> integral cutoff          0.2500000E+02      :
          :  -> integral neglect         0.1000000E-07      :
          :  -> SCF convergence          0.1000000E-05 Eh   :
          :  -> wf. convergence          0.1000000E-03 e    :
          :  Broyden damping             0.4000000          :
          ...................................................

 iter      E             dE          RMSdq      gap      omega  full diag
   1    -42.5960780 -0.425961E+02  0.440E+00    3.52       0.0  T
   2    -42.7780033 -0.181925E+00  0.248E+00    3.37       1.0  T
   3    -42.7871777 -0.917437E-02  0.149E+00    3.50       1.0  T
   4    -42.7817164  0.546128E-02  0.642E-01    3.42       1.0  T
   5    -42.7911189 -0.940247E-02  0.115E-01    3.49       1.0  T
   6    -42.7912109 -0.920486E-04  0.685E-02    3.46       1.0  T
   7    -42.7912647 -0.537856E-04  0.265E-02    3.48       1.0  T
   8    -42.7912686 -0.385526E-05  0.113E-02    3.47       1.8  T
   9    -42.7912697 -0.111307E-05  0.441E-03    3.47       4.5  T
  10    -42.7912698 -0.733569E-07  0.139E-03    3.47      14.4  T
  11    -42.7912698 -0.243437E-08  0.602E-04    3.47      33.2  T
  12    -42.7912698 -0.222032E-08  0.181E-04    3.47     110.6  T

   *** convergence criteria satisfied after 12 iterations ***

         #    Occupation            Energy/Eh            Energy/eV
      -------------------------------------------------------------
         1        2.0000           -0.9116047             -24.8060
       ...           ...                  ...                  ...
        31        1.9942           -0.6212459             -16.9050
        32        1.9930           -0.6166804             -16.7807
        33        1.9876           -0.6031136             -16.4116
        34        1.9710           -0.5827317             -15.8569
        35        1.9403           -0.5651917             -15.3796
        36        1.9387           -0.5645672             -15.3627
        37        1.9155           -0.5566412             -15.1470 (HOMO)
        38        0.1907           -0.4290919             -11.6762 (LUMO)
        39        0.0640           -0.4015676             -10.9272
        40        0.0206           -0.3740689             -10.1789
        41        0.0006           -0.2879107              -7.8344
        42        0.0000           -0.2065811              -5.6214
       ...           ...                  ...                  ...
        67                          0.5613577              15.2753
      -------------------------------------------------------------
                  HL-Gap            0.1275493 Eh            3.4708 eV
             Fermi-level           -0.4825284 Eh          -13.1303 eV

 SCC (total)                   0 d,  0 h,  0 min,  0.036 sec
 SCC setup                      ...        0 min,  0.000 sec (  0.754%)
 Dispersion                     ...        0 min,  0.000 sec (  1.005%)
 classical contributions        ...        0 min,  0.000 sec (  0.260%)
 integral evaluation            ...        0 min,  0.006 sec ( 16.938%)
 iterations                     ...        0 min,  0.018 sec ( 48.819%)
 molecular gradient             ...        0 min,  0.012 sec ( 31.812%)
 printout                       ...        0 min,  0.000 sec (  0.377%)

         :::::::::::::::::::::::::::::::::::::::::::::::::::::
         ::                     SUMMARY                     ::
         :::::::::::::::::::::::::::::::::::::::::::::::::::::
         :: total energy             -35.459453824114 Eh    ::
         :: gradient norm              5.212985866071 Eh/a0 ::
         :: HOMO-LUMO gap              3.470793873671 eV    ::
         ::.................................................::
         :: SCC energy               -42.791269777655 Eh    ::
         :: -> isotropic ES            0.136760385929 Eh    ::
         :: -> anisotropic ES         -0.005341405309 Eh    ::
         :: -> anisotropic XC          0.011501049227 Eh    ::
         :: -> dispersion             -0.022650340738 Eh    ::
         :: repulsion energy           0.531105277918 Eh    ::
         :: add. restraining           6.800596516614 Eh    ::
         :: total charge               1.000000000010 e     ::
         :::::::::::::::::::::::::::::::::::::::::::::::::::::

      ----------------------------------------------------------- 
     |                   =====================                   |
     |                        A N C O P T                        |
     |                   =====================                   |
     |               Approximate Normal Coordinate               |
     |                Rational Function Optimizer                |
      ----------------------------------------------------------- 

          ...................................................
          :                      SETUP                      :
          :.................................................:
          :   optimization level             loose          :
          :   max. optcycles                   200          :
          :   ANC micro-cycles                  20          :
          :   degrees of freedom                69          :
          :.................................................:
          :   RF solver                   davidson          :
          :   write xtbopt.log                true          :
          :   linear?                        false          :
          :   energy convergence         0.5000000E-04 Eh   :
          :   grad. convergence          0.4000000E-02 Eh/α :
          :   maxmium RF displ.          1.0000000          :
          :   Hlow (freq-cutoff)         0.1000000E-01      :
          :   Hmax (freq-cutoff)         5.0000000          :
          :   S6 in model hess.         20.0000000          :
          ...................................................

generating ANC from model Hessian ...
Using Lindh-Hessian (1995)
 Shifting diagonal of input Hessian by    1.0007851451922642     
 Lowest  eigenvalues of input Hessian
    0.010000    0.175815    0.000000    0.000000    0.000000    0.000000
    0.000000    0.000000    1.003795    1.005186    1.009488    1.010742
    1.012589    1.013978    1.019660    1.022945    1.026471    1.041450
 Highest eigenvalues
    3.116343    3.171364    3.215690    3.358629    3.448274    4.105694


........................................................................
.............................. CYCLE    1 ..............................
........................................................................

 iter      E             dE          RMSdq      gap      omega  full diag
   1    -42.7912698 -0.427913E+02  0.838E-05    3.47       0.0  T
   2    -42.7912698 -0.247127E-10  0.452E-05    3.47     442.9  T
   3    -42.7912698 -0.149214E-11  0.279E-05    3.47     715.8  T
     SCC iter.                  ...        0 min,  0.005 sec
     gradient                   ...        0 min,  0.011 sec
 * total energy  :   -35.4594538 Eh     change       -0.2401990E-09 Eh
   gradient norm :     5.2129856 Eh/α   predicted     0.0000000E+00 (-100.00%)
   displ. norm   :     0.7163367 α      lambda       -0.3702748E+01
   maximum displ.:     0.5952610 α      in ANC's #69, #60, #49, ...

........................................................................
.............................. CYCLE    2 ..............................
........................................................................

 iter      E             dE          RMSdq      gap      omega  full diag
   1    -42.7339740 -0.427340E+02  0.849E-01    3.23       0.0  T
   2    -42.7404435 -0.646953E-02  0.586E-01    2.95       1.0  T
   3    -42.7414791 -0.103554E-02  0.303E-01    3.05       1.0  T
   4    -42.7414025  0.765566E-04  0.125E-01    3.00       1.0  T
   5    -42.7416871 -0.284551E-03  0.225E-02    3.02       1.0  T
   6    -42.7416939 -0.684948E-05  0.101E-02    3.02       2.0  T
   7    -42.7416942 -0.299291E-06  0.505E-03    3.02       4.0  T
   8    -42.7416946 -0.374547E-06  0.121E-03    3.02      16.5  T
   9    -42.7416946 -0.147554E-07  0.463E-04    3.02      43.2  T
  10    -42.7416946 -0.822233E-09  0.158E-04    3.02     126.7  T
     SCC iter.                  ...        0 min,  0.014 sec
     gradient                   ...        0 min,  0.011 sec
 * total energy  :   -38.6015362 Eh     change       -0.3142082E+01 Eh
   gradient norm :     3.6275556 Eh/α   predicted    -0.2802128E+01 ( -10.82%)
   displ. norm   :     0.7450946 α      lambda       -0.2689433E+01
   maximum displ.:     0.6192484 α      in ANC's #69, #60, #49, ...

........................................................................
.............................. CYCLE    3 ..............................
........................................................................

 iter      E             dE          RMSdq      gap      omega  full diag
   1    -42.6406755 -0.426407E+02  0.961E-01    2.70       0.0  T
   2    -42.6484537 -0.777819E-02  0.682E-01    2.35       1.0  T
   3    -42.6513596 -0.290590E-02  0.327E-01    2.53       1.0  T
   4    -42.6513871 -0.275552E-04  0.171E-01    2.43       1.0  T
   5    -42.6518987 -0.511539E-03  0.315E-02    2.48       1.0  T
   6    -42.6519235 -0.248334E-04  0.107E-02    2.48       1.9  T
   7    -42.6519239 -0.369069E-06  0.449E-03    2.48       4.5  T
   8    -42.6519240 -0.140331E-06  0.140E-03    2.48      14.3  T
   9    -42.6519240 -0.207997E-07  0.719E-04    2.48      27.8  T
  10    -42.6519240 -0.490476E-08  0.386E-04    2.48      51.8  T
     SCC iter.                  ...        0 min,  0.014 sec
     gradient                   ...        0 min,  0.011 sec
 * total energy  :   -40.7131887 Eh     change       -0.2111653E+01 Eh
   gradient norm :     2.0911192 Eh/α   predicted    -0.2091256E+01 (  -0.97%)
   displ. norm   :     0.6715124 α      lambda       -0.1376633E+01
   maximum displ.:     0.4849045 α      in ANC's #69, #49, #60, ...

........................................................................
.............................. CYCLE    4 ..............................
........................................................................

 iter      E             dE          RMSdq      gap      omega  full diag
   1    -42.5605652 -0.425606E+02  0.840E-01    2.16       0.0  T
   2    -42.5676566 -0.709143E-02  0.476E-01    1.90       1.0  T
   3    -42.5689474 -0.129072E-02  0.236E-01    1.99       1.0  T
   4    -42.5689246  0.228055E-04  0.852E-02    1.96       1.0  T
   5    -42.5690375 -0.112967E-03  0.237E-02    1.99       1.0  T
   6    -42.5690458 -0.828015E-05  0.136E-02    1.98       1.5  T
   7    -42.5690485 -0.268503E-05  0.599E-03    1.98       3.3  T
   8    -42.5690491 -0.629242E-06  0.198E-03    1.98      10.1  T
   9    -42.5690491 -0.270430E-07  0.107E-03    1.98      18.7  T
  10    -42.5690491 -0.319475E-08  0.432E-04    1.98      46.3  T
  11    -42.5690492 -0.341025E-08  0.202E-04    1.98      98.9  T
     SCC iter.                  ...        0 min,  0.015 sec
     gradient                   ...        0 min,  0.011 sec
 * total energy  :   -41.7168861 Eh     change       -0.1003697E+01 Eh
   gradient norm :     0.9504006 Eh/α   predicted    -0.9987160E+00 (  -0.50%)
   displ. norm   :     0.4762059 α      lambda       -0.4352771E+00
   maximum displ.:     0.3305804 α      in ANC's #69, #2, #40, ...

........................................................................
.............................. CYCLE    5 ..............................
........................................................................

 iter      E             dE          RMSdq      gap      omega  full diag
   1    -42.5287138 -0.425287E+02  0.566E-01    1.66       0.0  T
   2    -42.5314843 -0.277048E-02  0.319E-01    1.60       1.0  T
   3    -42.5322255 -0.741205E-03  0.211E-01    1.59       1.0  T
   4    -42.5318127  0.412825E-03  0.128E-01    1.66       1.0  T
   5    -42.5325576 -0.744898E-03  0.226E-02    1.61       1.0  T
   6    -42.5325659 -0.826881E-05  0.866E-03    1.62       2.3  T
   7    -42.5325667 -0.842065E-06  0.566E-03    1.61       3.5  T
   8    -42.5325672 -0.499983E-06  0.204E-03    1.62       9.8  T
   9    -42.5325673 -0.818491E-07  0.763E-04    1.62      26.2  T
  10    -42.5325673 -0.695287E-08  0.354E-04    1.62      56.5  T
     SCC iter.                  ...        0 min,  0.014 sec
     gradient                   ...        0 min,  0.011 sec
 * total energy  :   -41.9814554 Eh     change       -0.2645693E+00 Eh
   gradient norm :     0.2206286 Eh/α   predicted    -0.2669960E+00 (   0.92%)
   displ. norm   :     0.2105904 α      lambda       -0.3813586E-01
   maximum displ.:     0.1183602 α      in ANC's #2, #69, #40, ...

........................................................................
.............................. CYCLE    6 ..............................
........................................................................

 iter      E             dE          RMSdq      gap      omega  full diag
   1    -42.5386135 -0.425386E+02  0.381E-01    1.68       0.0  T
   2    -42.5399346 -0.132109E-02  0.322E-01    1.47       1.0  T
   3    -42.5425655 -0.263091E-02  0.113E-01    1.58       1.0  T
   4    -42.5426419 -0.763412E-04  0.665E-02    1.56       1.0  T
   5    -42.5426660 -0.241480E-04  0.181E-02    1.57       1.1  T
   6    -42.5426737 -0.768718E-05  0.498E-03    1.57       4.0  T
   7    -42.5426738 -0.131724E-06  0.325E-03    1.57       6.2  T
   8    -42.5426740 -0.190912E-06  0.136E-03    1.57      14.7  T
   9    -42.5426741 -0.447582E-07  0.455E-04    1.57      43.9  T
  10    -42.5426741 -0.260848E-08  0.208E-04    1.57      96.3  T
     SCC iter.                  ...        0 min,  0.014 sec
     gradient                   ...        0 min,  0.011 sec
 * total energy  :   -42.0050225 Eh     change       -0.2356713E-01 Eh
   gradient norm :     0.1228077 Eh/α   predicted    -0.1991493E-01 ( -15.50%)
   displ. norm   :     0.1492794 α      lambda       -0.1312538E-01
   maximum displ.:     0.0708571 α      in ANC's #1, #40, #12, ...

........................................................................
.............................. CYCLE    7 ..............................
........................................................................

 iter      E             dE          RMSdq      gap      omega  full diag
   1    -42.5483548 -0.425484E+02  0.236E-01    1.41       0.0  T
   2    -42.5479727  0.382153E-03  0.256E-01    1.58       1.0  T
   3    -42.5498196 -0.184699E-02  0.861E-02    1.48       1.0  T
   4    -42.5497813  0.382932E-04  0.572E-02    1.51       1.0  T
   5    -42.5498465 -0.651612E-04  0.122E-02    1.49       1.6  T
   6    -42.5498500 -0.352487E-05  0.572E-03    1.49       3.5  T
   7    -42.5498504 -0.344918E-06  0.268E-03    1.49       7.5  T
   8    -42.5498505 -0.956812E-07  0.118E-03    1.49      17.0  T
   9    -42.5498505 -0.345779E-07  0.414E-04    1.49      48.3  T
  10    -42.5498505  0.108962E-09  0.273E-04    1.49      73.2  T
     SCC iter.                  ...        0 min,  0.014 sec
     gradient                   ...        0 min,  0.011 sec
 * total energy  :   -42.0159189 Eh     change       -0.1089640E-01 Eh
   gradient norm :     0.1215729 Eh/α   predicted    -0.6709068E-02 ( -38.43%)
   displ. norm   :     0.3688475 α      lambda       -0.2983197E-01
   maximum displ.:     0.1402831 α      in ANC's #40, #12, #1, ...

........................................................................
.............................. CYCLE    8 ..............................
........................................................................

 iter      E             dE          RMSdq      gap      omega  full diag
   1    -42.5830619 -0.425831E+02  0.583E-01    1.48       0.0  T
   2    -42.5833443 -0.282369E-03  0.470E-01    1.41       1.0  T
   3    -42.5883208 -0.497650E-02  0.211E-01    1.44       1.0  T
   4    -42.5884329 -0.112162E-03  0.972E-02    1.46       1.0  T
   5    -42.5886199 -0.186912E-03  0.257E-02    1.44       1.0  T
   6    -42.5886390 -0.191384E-04  0.128E-02    1.45       1.6  T
   7    -42.5886408 -0.180764E-05  0.664E-03    1.45       3.0  T
   8    -42.5886418 -0.103029E-05  0.214E-03    1.45       9.3  T
   9    -42.5886419 -0.659411E-07  0.809E-04    1.45      24.7  T
  10    -42.5886419 -0.108550E-08  0.309E-04    1.45      64.8  T
     SCC iter.                  ...        0 min,  0.014 sec
     gradient                   ...        0 min,  0.011 sec
 * total energy  :   -42.0365325 Eh     change       -0.2061354E-01 Eh
   gradient norm :     0.1216183 Eh/α   predicted    -0.1694539E-01 ( -17.79%)
   displ. norm   :     0.2793026 α      lambda       -0.1557963E-01
   maximum displ.:     0.1113094 α      in ANC's #12, #13, #40, ...

........................................................................
.............................. CYCLE    9 ..............................
........................................................................

 iter      E             dE          RMSdq      gap      omega  full diag
   1    -42.6031791 -0.426032E+02  0.350E-01    1.35       0.0  T
   2    -42.6035054 -0.326331E-03  0.289E-01    1.43       1.0  T
   3    -42.6048287 -0.132333E-02  0.136E-01    1.36       1.0  T
   4    -42.6047270  0.101771E-03  0.920E-02    1.42       1.0  T
   5    -42.6049540 -0.226996E-03  0.236E-02    1.38       1.0  T
   6    -42.6049722 -0.182024E-04  0.646E-03    1.39       3.1  T
   7    -42.6049722 -0.756940E-07  0.322E-03    1.39       6.2  T
   8    -42.6049723 -0.662735E-07  0.137E-03    1.39      14.6  T
   9    -42.6049723 -0.403402E-07  0.556E-04    1.39      36.0  T
  10    -42.6049723 -0.591285E-09  0.307E-04    1.39      65.2  T
     SCC iter.                  ...        0 min,  0.014 sec
     gradient                   ...        0 min,  0.011 sec
 * total energy  :   -42.0477657 Eh     change       -0.1123319E-01 Eh
   gradient norm :     0.1047782 Eh/α   predicted    -0.8397731E-02 ( -25.24%)
   displ. norm   :     0.4998401 α      lambda       -0.1542580E-01
   maximum displ.:     0.3926304 α      in ANC's #1, #12, #13, ...

........................................................................
.............................. CYCLE   10 ..............................
........................................................................

 iter      E             dE          RMSdq      gap      omega  full diag
   1    -42.6245170 -0.426245E+02  0.439E-01    1.38       0.0  T
   2    -42.6246937 -0.176715E-03  0.243E-01    1.33       1.0  T
   3    -42.6243369  0.356863E-03  0.190E-01    1.41       1.0  T
   4    -42.6248735 -0.536649E-03  0.371E-02    1.35       1.0  T
   5    -42.6249150 -0.414621E-04  0.144E-02    1.37       1.4  T
   6    -42.6249201 -0.514633E-05  0.689E-03    1.36       2.9  T
   7    -42.6249204 -0.284900E-06  0.384E-03    1.36       5.2  T
   8    -42.6249208 -0.409382E-06  0.979E-04    1.36      20.4  T
   9    -42.6249208 -0.958529E-08  0.508E-04    1.36      39.4  T
     SCC iter.                  ...        0 min,  0.013 sec
     gradient                   ...        0 min,  0.011 sec
 * total energy  :   -42.0596912 Eh     change       -0.1192552E-01 Eh
   gradient norm :     0.1072571 Eh/α   predicted    -0.9639940E-02 ( -19.17%)
   displ. norm   :     0.3746048 α      lambda       -0.1531057E-01
   maximum displ.:     0.1673134 α      in ANC's #12, #13, #1, ...

........................................................................
.............................. CYCLE   11 ..............................
........................................................................

 iter      E             dE          RMSdq      gap      omega  full diag
   1    -42.6107975 -0.426108E+02  0.398E-01    1.30       0.0  T
   2    -42.6102847  0.512727E-03  0.431E-01    1.42       1.0  T
   3    -42.6149213 -0.463660E-02  0.159E-01    1.35       1.0  T
   4    -42.6148454  0.759129E-04  0.755E-02    1.38       1.0  T
   5    -42.6148959 -0.504738E-04  0.363E-02    1.34       1.0  T
   6    -42.6149520 -0.560978E-04  0.809E-03    1.36       2.5  T
   7    -42.6149530 -0.103812E-05  0.533E-03    1.36       3.8  T
   8    -42.6149534 -0.366377E-06  0.149E-03    1.36      13.4  T
   9    -42.6149534 -0.388823E-07  0.548E-04    1.36      36.5  T
  10    -42.6149534 -0.161080E-09  0.339E-04    1.36      59.0  T
     SCC iter.                  ...        0 min,  0.014 sec
     gradient                   ...        0 min,  0.011 sec
 * total energy  :   -42.0681736 Eh     change       -0.8482381E-02 Eh
   gradient norm :     0.1041652 Eh/α   predicted    -0.8729632E-02 (   2.91%)
   displ. norm   :     0.3726015 α      lambda       -0.7636684E-02
   maximum displ.:     0.3495370 α      in ANC's #1, #12, #13, ...

........................................................................
.............................. CYCLE   12 ..............................
........................................................................

 iter      E             dE          RMSdq      gap      omega  full diag
   1    -42.6051798 -0.426052E+02  0.219E-01    1.31       0.0  T
   2    -42.6051410  0.388557E-04  0.169E-01    1.34       1.0  T
   3    -42.6054175 -0.276566E-03  0.997E-02    1.32       1.0  T
   4    -42.6055254 -0.107809E-03  0.286E-02    1.34       1.0  T
   5    -42.6055454 -0.200468E-04  0.113E-02    1.32       1.8  T
   6    -42.6055499 -0.447296E-05  0.417E-03    1.33       4.8  T
   7    -42.6055500 -0.875277E-07  0.194E-03    1.33      10.3  T
   8    -42.6055500 -0.660022E-07  0.602E-04    1.33      33.2  T
   9    -42.6055500 -0.636089E-08  0.228E-04    1.33      87.7  T
     SCC iter.                  ...        0 min,  0.013 sec
     gradient                   ...        0 min,  0.011 sec
 * total energy  :   -42.0714647 Eh     change       -0.3291148E-02 Eh
   gradient norm :     0.0860090 Eh/α   predicted    -0.4348598E-02 (  32.13%)
   displ. norm   :     0.2039993 α      lambda       -0.9220330E-02
   maximum displ.:     0.1666788 α      in ANC's #1, #60, #50, ...

........................................................................
.............................. CYCLE   13 ..............................
........................................................................

 iter      E             dE          RMSdq      gap      omega  full diag
   1    -42.6133389 -0.426133E+02  0.280E-01    1.39       0.0  T
   2    -42.6138091 -0.470175E-03  0.257E-01    1.34       1.0  T
   3    -42.6153192 -0.151009E-02  0.914E-02    1.38       1.0  T
   4    -42.6152770  0.421351E-04  0.720E-02    1.35       1.0  T
   5    -42.6153589 -0.818096E-04  0.253E-02    1.38       1.0  T
   6    -42.6153804 -0.215102E-04  0.674E-03    1.37       3.0  T
   7    -42.6153811 -0.713058E-06  0.332E-03    1.37       6.0  T
   8    -42.6153813 -0.173347E-06  0.178E-03    1.37      11.2  T
   9    -42.6153813 -0.405362E-07  0.461E-04    1.37      43.4  T
  10    -42.6153813 -0.228072E-08  0.253E-04    1.37      79.1  T
     SCC iter.                  ...        0 min,  0.014 sec
     gradient                   ...        0 min,  0.011 sec
 * total energy  :   -42.0774441 Eh     change       -0.5979425E-02 Eh
   gradient norm :     0.0571580 Eh/α   predicted    -0.4802080E-02 ( -19.69%)
   displ. norm   :     0.1645703 α      lambda       -0.4505188E-02
   maximum displ.:     0.0762588 α      in ANC's #1, #12, #10, ...

........................................................................
.............................. CYCLE   14 ..............................
........................................................................

 iter      E             dE          RMSdq      gap      omega  full diag
   1    -42.6162438 -0.426162E+02  0.176E-01    1.35       0.0  T
   2    -42.6162719 -0.281431E-04  0.104E-01    1.38       1.0  T
   3    -42.6162353  0.366309E-04  0.838E-02    1.34       1.0  T
   4    -42.6163502 -0.114899E-03  0.221E-02    1.37       1.0  T
   5    -42.6163653 -0.151164E-04  0.891E-03    1.36       2.2  T
   6    -42.6163675 -0.216972E-05  0.292E-03    1.36       6.9  T
   7    -42.6163676 -0.635802E-07  0.189E-03    1.36      10.6  T
   8    -42.6163676 -0.594903E-07  0.602E-04    1.36      33.2  T
   9    -42.6163676 -0.734479E-08  0.212E-04    1.36      94.1  T
     SCC iter.                  ...        0 min,  0.013 sec
     gradient                   ...        0 min,  0.011 sec
 * total energy  :   -42.0809852 Eh     change       -0.3541111E-02 Eh
   gradient norm :     0.0592943 Eh/α   predicted    -0.2313921E-02 ( -34.66%)
   displ. norm   :     0.2577352 α      lambda       -0.6147143E-02
   maximum displ.:     0.1006090 α      in ANC's #1, #2, #12, ...

........................................................................
.............................. CYCLE   15 ..............................
........................................................................

 iter      E             dE          RMSdq      gap      omega  full diag
   1    -42.6135237 -0.426135E+02  0.344E-01    1.26       0.0  T
   2    -42.6134149  0.108822E-03  0.236E-01    1.37       1.0  T
   3    -42.6145131 -0.109816E-02  0.147E-01    1.28       1.0  T
   4    -42.6148164 -0.303329E-03  0.605E-02    1.32       1.0  T
   5    -42.6148940 -0.775587E-04  0.198E-02    1.31       1.0  T
   6    -42.6149096 -0.156503E-04  0.508E-03    1.31       3.9  T
   7    -42.6149099 -0.239186E-06  0.319E-03    1.31       6.3  T
   8    -42.6149100 -0.144332E-06  0.107E-03    1.31      18.7  T
   9    -42.6149100 -0.130291E-07  0.387E-04    1.31      51.7  T
  10    -42.6149100 -0.145280E-08  0.211E-04    1.31      94.7  T
     SCC iter.                  ...        0 min,  0.014 sec
     gradient                   ...        0 min,  0.011 sec
 * total energy  :   -42.0851756 Eh     change       -0.4190384E-02 Eh
   gradient norm :     0.0473194 Eh/α   predicted    -0.3277841E-02 ( -21.78%)
   displ. norm   :     0.1570674 α      lambda       -0.3015835E-02
   maximum displ.:     0.0582931 α      in ANC's #2, #10, #12, ...

........................................................................
.............................. CYCLE   16 ..............................
........................................................................

 iter      E             dE          RMSdq      gap      omega  full diag
   1    -42.6134235 -0.426134E+02  0.237E-01    1.22       0.0  T
   2    -42.6133756  0.478968E-04  0.171E-01    1.31       1.0  T
   3    -42.6140935 -0.717974E-03  0.940E-02    1.24       1.0  T
   4    -42.6142290 -0.135418E-03  0.448E-02    1.27       1.0  T
   5    -42.6142626 -0.336447E-04  0.142E-02    1.26       1.4  T
   6    -42.6142704 -0.777986E-05  0.351E-03    1.26       5.7  T
   7    -42.6142705 -0.110058E-06  0.211E-03    1.26       9.5  T
   8    -42.6142706 -0.725910E-07  0.718E-04    1.26      27.9  T
   9    -42.6142706 -0.766480E-08  0.293E-04    1.26      68.4  T
     SCC iter.                  ...        0 min,  0.013 sec
     gradient                   ...        0 min,  0.011 sec
 * total energy  :   -42.0873717 Eh     change       -0.2196083E-02 Eh
   gradient norm :     0.0416586 Eh/α   predicted    -0.1545148E-02 ( -29.64%)
   displ. norm   :     0.1460408 α      lambda       -0.2739460E-02
   maximum displ.:     0.0503065 α      in ANC's #10, #1, #5, ...

........................................................................
.............................. CYCLE   17 ..............................
........................................................................

 iter      E             dE          RMSdq      gap      omega  full diag
   1    -42.6153844 -0.426154E+02  0.189E-01    1.19       0.0  T
   2    -42.6154770 -0.925467E-04  0.119E-01    1.25       1.0  T
   3    -42.6156809 -0.203933E-03  0.784E-02    1.20       1.0  T
   4    -42.6157635 -0.825815E-04  0.409E-02    1.23       1.0  T
   5    -42.6158034 -0.399524E-04  0.110E-02    1.22       1.8  T
   6    -42.6158073 -0.381715E-05  0.280E-03    1.22       7.2  T
   7    -42.6158072  0.331081E-07  0.178E-03    1.22      11.2  T
   8    -42.6158073 -0.798089E-07  0.626E-04    1.22      31.9  T
   9    -42.6158073 -0.732674E-08  0.273E-04    1.22      73.3  T
     SCC iter.                  ...        0 min,  0.013 sec
     gradient                   ...        0 min,  0.011 sec
 * total energy  :   -42.0893389 Eh     change       -0.1967205E-02 Eh
   gradient norm :     0.0411431 Eh/α   predicted    -0.1398957E-02 ( -28.89%)
   displ. norm   :     0.1374787 α      lambda       -0.2254450E-02
   maximum displ.:     0.0785720 α      in ANC's #1, #5, #10, ...

........................................................................
.............................. CYCLE   18 ..............................
........................................................................

 iter      E             dE          RMSdq      gap      omega  full diag
   1    -42.6178784 -0.426179E+02  0.131E-01    1.19       0.0  T
   2    -42.6179450 -0.666124E-04  0.701E-02    1.21       1.0  T
   3    -42.6179574 -0.124034E-04  0.445E-02    1.20       1.0  T
   4    -42.6179615 -0.411631E-05  0.183E-02    1.21       1.1  T
   5    -42.6179727 -0.111513E-04  0.593E-03    1.20       3.4  T
   6    -42.6179737 -0.108597E-05  0.216E-03    1.20       9.3  T
   7    -42.6179738 -0.191385E-07  0.104E-03    1.20      19.3  T
   8    -42.6179738 -0.219969E-07  0.366E-04    1.20      54.6  T
   9    -42.6179738 -0.243900E-08  0.197E-04    1.20     101.5  T
     SCC iter.                  ...        0 min,  0.013 sec
     gradient                   ...        0 min,  0.011 sec
 * total energy  :   -42.0909618 Eh     change       -0.1622862E-02 Eh
   gradient norm :     0.0375170 Eh/α   predicted    -0.1148576E-02 ( -29.23%)
   displ. norm   :     0.1163187 α      lambda       -0.1815161E-02
   maximum displ.:     0.0628550 α      in ANC's #1, #5, #35, ...

........................................................................
.............................. CYCLE   19 ..............................
........................................................................

 iter      E             dE          RMSdq      gap      omega  full diag
   1    -42.6199591 -0.426200E+02  0.103E-01    1.20       0.0  T
   2    -42.6199500  0.914687E-05  0.675E-02    1.19       1.0  T
   3    -42.6199634 -0.134065E-04  0.494E-02    1.21       1.0  T
   4    -42.6200079 -0.445558E-04  0.225E-02    1.19       1.0  T
   5    -42.6200234 -0.154592E-04  0.349E-03    1.20       5.7  T
   6    -42.6200236 -0.167680E-06  0.191E-03    1.20      10.5  T
   7    -42.6200236 -0.280454E-07  0.832E-04    1.20      24.0  T
   8    -42.6200236 -0.608159E-08  0.259E-04    1.20      77.2  T
     SCC iter.                  ...        0 min,  0.011 sec
     gradient                   ...        0 min,  0.011 sec
 * total energy  :   -42.0922467 Eh     change       -0.1284948E-02 Eh
   gradient norm :     0.0313656 Eh/α   predicted    -0.9198717E-03 ( -28.41%)
   displ. norm   :     0.0932228 α      lambda       -0.1381699E-02
   maximum displ.:     0.0318365 α      in ANC's #5, #32, #1, ...

........................................................................
.............................. CYCLE   20 ..............................
........................................................................

 iter      E             dE          RMSdq      gap      omega  full diag
   1    -42.6207956 -0.426208E+02  0.897E-02    1.20       0.0  T
   2    -42.6207845  0.110754E-04  0.648E-02    1.19       1.0  T
   3    -42.6208362 -0.516906E-04  0.397E-02    1.20       1.0  T
   4    -42.6208550 -0.188341E-04  0.202E-02    1.19       1.0  T
   5    -42.6208675 -0.124486E-04  0.460E-03    1.19       4.4  T
   6    -42.6208680 -0.507820E-06  0.155E-03    1.19      12.9  T
   7    -42.6208680 -0.221197E-07  0.806E-04    1.19      24.8  T
   8    -42.6208680 -0.524453E-08  0.367E-04    1.19      54.5  T
     SCC iter.                  ...        0 min,  0.011 sec
     gradient                   ...        0 min,  0.011 sec
 * total energy  :   -42.0932849 Eh     change       -0.1038151E-02 Eh
   gradient norm :     0.0329457 Eh/α   predicted    -0.6968682E-03 ( -32.87%)
   displ. norm   :     0.1253640 α      lambda       -0.1694595E-02
   maximum displ.:     0.0464732 α      in ANC's #5, #32, #28, ...
 * RMSD in coord.:     0.7294433 α      energy gain  -0.6633831E+01 Eh

generating ANC from model Hessian ...
Using Lindh-Hessian (1995)
 Shifting diagonal of input Hessian by    1.2146628927674361E-002
 Lowest  eigenvalues of input Hessian
    0.010000    0.010138    0.000000    0.000000    0.000000    0.000000
    0.000000    0.000000    0.014177    0.014217    0.015633    0.018379
    0.020155    0.022014    0.023204    0.023810    0.027980    0.030961
 Highest eigenvalues
    2.080788    2.140295    2.289678    2.338241    2.377134    2.876282


........................................................................
.............................. CYCLE   21 ..............................
........................................................................

 iter      E             dE          RMSdq      gap      omega  full diag
   1    -42.6204532 -0.426205E+02  0.117E-01    1.17       0.0  T
   2    -42.6204507  0.254221E-05  0.818E-02    1.17       1.0  T
   3    -42.6205009 -0.502282E-04  0.512E-02    1.17       1.0  T
   4    -42.6205319 -0.309313E-04  0.252E-02    1.17       1.0  T
   5    -42.6205527 -0.208807E-04  0.578E-03    1.17       3.5  T
   6    -42.6205536 -0.811579E-06  0.224E-03    1.17       8.9  T
   7    -42.6205536 -0.766327E-07  0.118E-03    1.17      16.9  T
   8    -42.6205536 -0.127267E-07  0.432E-04    1.17      46.3  T
   9    -42.6205536 -0.552213E-08  0.136E-04    1.17     146.6  T
     SCC iter.                  ...        0 min,  0.013 sec
     gradient                   ...        0 min,  0.011 sec
 * total energy  :   -42.0945708 Eh     change       -0.1285961E-02 Eh
   gradient norm :     0.0404969 Eh/α   predicted     0.0000000E+00 (-100.00%)
   displ. norm   :     0.3248237 α      lambda       -0.5945814E-02
   maximum displ.:     0.2397934 α      in ANC's #14, #9, #1, ...

........................................................................
.............................. CYCLE   22 ..............................
........................................................................

 iter      E             dE          RMSdq      gap      omega  full diag
   1    -42.6260951 -0.426261E+02  0.241E-01    1.02       0.0  T
   2    -42.6264182 -0.323157E-03  0.154E-01    1.00       1.0  T
   3    -42.6266403 -0.222027E-03  0.100E-01    1.03       1.0  T
   4    -42.6267012 -0.609793E-04  0.493E-02    1.01       1.0  T
   5    -42.6267379 -0.367077E-04  0.859E-03    1.02       2.3  T
   6    -42.6267394 -0.145217E-05  0.300E-03    1.02       6.7  T
   7    -42.6267393  0.473121E-07  0.218E-03    1.02       9.2  T
   8    -42.6267394 -0.900617E-07  0.785E-04    1.02      25.5  T
   9    -42.6267395 -0.191561E-07  0.361E-04    1.02      55.4  T
     SCC iter.                  ...        0 min,  0.013 sec
     gradient                   ...        0 min,  0.011 sec
 * total energy  :   -42.0998303 Eh     change       -0.5259444E-02 Eh
   gradient norm :     0.0285108 Eh/α   predicted    -0.3288727E-02 ( -37.47%)
   displ. norm   :     0.7813161 α      lambda       -0.1260245E-01
   maximum displ.:     0.5621994 α      in ANC's #14, #9, #19, ...

........................................................................
.............................. CYCLE   23 ..............................
........................................................................

 iter      E             dE          RMSdq      gap      omega  full diag
   1    -42.6311772 -0.426312E+02  0.681E-01    0.67       0.0  T
   2    -42.6353410 -0.416384E-02  0.397E-01    0.60       1.0  T
   3    -42.6361302 -0.789197E-03  0.286E-01    0.71       1.0  T
   4    -42.6367661 -0.635813E-03  0.159E-01    0.61       1.0  T
   5    -42.6371131 -0.347062E-03  0.408E-02    0.64       1.0  T
   6    -42.6371464 -0.333171E-04  0.128E-02    0.65       1.6  T
   7    -42.6371495 -0.303187E-05  0.900E-03    0.64       2.2  T
   8    -42.6371513 -0.187035E-05  0.277E-03    0.65       7.2  T
   9    -42.6371514 -0.465941E-07  0.105E-03    0.65      19.1  T
  10    -42.6371514 -0.128882E-07  0.547E-04    0.65      36.5  T
  11    -42.6371514 -0.791701E-09  0.264E-04    0.65      75.7  T
     SCC iter.                  ...        0 min,  0.016 sec
     gradient                   ...        0 min,  0.011 sec
 * total energy  :   -42.1099280 Eh     change       -0.1009776E-01 Eh
   gradient norm :     0.0815577 Eh/α   predicted    -0.1014811E-01 (   0.50%)
   displ. norm   :     0.6264238 α      lambda       -0.9770783E-02
   maximum displ.:     0.4140024 α      in ANC's #14, #9, #6, ...

........................................................................
.............................. CYCLE   24 ..............................
........................................................................

 iter      E             dE          RMSdq      gap      omega  full diag
   1    -42.6386000 -0.426386E+02  0.563E-01    0.44       0.0  T
   2    -42.6429911 -0.439108E-02  0.297E-01    0.45       1.0  T
   3    -42.6432744 -0.283319E-03  0.163E-01    0.45       1.0  T
   4    -42.6428190  0.455390E-03  0.140E-01    0.43       1.0  T
   5    -42.6433069 -0.487877E-03  0.461E-02    0.46       1.0  T
   6    -42.6433652 -0.582766E-04  0.105E-02    0.45       1.9  T
   7    -42.6433651  0.810428E-07  0.683E-03    0.45       2.9  T
   8    -42.6433660 -0.891509E-06  0.378E-03    0.45       5.3  T
   9    -42.6433663 -0.316686E-06  0.127E-03    0.45      15.7  T
  10    -42.6433663 -0.156365E-07  0.650E-04    0.45      30.8  T
  11    -42.6433663 -0.206013E-08  0.305E-04    0.45      65.6  T
     SCC iter.                  ...        0 min,  0.015 sec
     gradient                   ...        0 min,  0.011 sec
 * total energy  :   -42.1164332 Eh     change       -0.6505148E-02 Eh
   gradient norm :     0.1095104 Eh/α   predicted    -0.6802457E-02 (   4.57%)
   displ. norm   :     0.3151176 α      lambda       -0.1227039E-01
   maximum displ.:     0.1332635 α      in ANC's #9, #6, #4, ...

........................................................................
.............................. CYCLE   25 ..............................
........................................................................

 iter      E             dE          RMSdq      gap      omega  full diag
   1    -42.6473748 -0.426474E+02  0.355E-01    0.36       0.0  T
   2    -42.6469245  0.450302E-03  0.279E-01    0.48       1.0  T
   3    -42.6483249 -0.140039E-02  0.219E-01    0.36       1.0  T
   4    -42.6490682 -0.743300E-03  0.729E-02    0.39       1.0  T
   5    -42.6490850 -0.167780E-04  0.184E-02    0.39       1.1  T
   6    -42.6490921 -0.709147E-05  0.646E-03    0.40       3.1  T
   7    -42.6490925 -0.452068E-06  0.449E-03    0.40       4.5  T
   8    -42.6490928 -0.316481E-06  0.192E-03    0.40      10.4  T
   9    -42.6490929 -0.100012E-06  0.494E-04    0.40      40.5  T
  10    -42.6490929 -0.203282E-08  0.265E-04    0.40      75.5  T
     SCC iter.                  ...        0 min,  0.014 sec
     gradient                   ...        0 min,  0.011 sec
 * total energy  :   -42.1250265 Eh     change       -0.8593318E-02 Eh
   gradient norm :     0.0694866 Eh/α   predicted    -0.6744414E-02 ( -21.52%)
   displ. norm   :     0.3977222 α      lambda       -0.1175929E-01
   maximum displ.:     0.2066297 α      in ANC's #7, #12, #14, ...

........................................................................
.............................. CYCLE   26 ..............................
........................................................................

 iter      E             dE          RMSdq      gap      omega  full diag
   1    -42.6447335 -0.426447E+02  0.336E-01    0.40       0.0  T
   2    -42.6440432  0.690254E-03  0.290E-01    0.45       1.0  T
   3    -42.6448762 -0.832945E-03  0.191E-01    0.39       1.0  T
   4    -42.6454056 -0.529376E-03  0.545E-02    0.43       1.0  T
   5    -42.6454531 -0.475497E-04  0.241E-02    0.41       1.0  T
   6    -42.6454737 -0.206295E-04  0.679E-03    0.41       2.9  T
   7    -42.6454744 -0.619049E-06  0.314E-03    0.41       6.4  T
   8    -42.6454744 -0.326453E-07  0.125E-03    0.41      16.0  T
   9    -42.6454744 -0.292685E-07  0.444E-04    0.41      45.1  T
  10    -42.6454744 -0.123440E-08  0.195E-04    0.41     102.7  T
     SCC iter.                  ...        0 min,  0.014 sec
     gradient                   ...        0 min,  0.011 sec
 * total energy  :   -42.1312459 Eh     change       -0.6219356E-02 Eh
   gradient norm :     0.0419917 Eh/α   predicted    -0.6809712E-02 (   9.49%)
   displ. norm   :     0.3916636 α      lambda       -0.4747430E-02
   maximum displ.:     0.2002389 α      in ANC's #9, #7, #6, ...

........................................................................
.............................. CYCLE   27 ..............................
........................................................................

 iter      E             dE          RMSdq      gap      omega  full diag
   1    -42.6413480 -0.426413E+02  0.293E-01    0.36       0.0  T
   2    -42.6415381 -0.190149E-03  0.179E-01    0.31       1.0  T
   3    -42.6411670  0.371151E-03  0.179E-01    0.40       1.0  T
   4    -42.6416473 -0.480305E-03  0.642E-02    0.32       1.0  T
   5    -42.6417242 -0.768844E-04  0.224E-02    0.34       1.0  T
   6    -42.6417390 -0.148133E-04  0.779E-03    0.34       2.6  T
   7    -42.6417408 -0.182399E-05  0.347E-03    0.34       5.8  T
   8    -42.6417409 -0.103068E-06  0.119E-03    0.34      16.8  T
   9    -42.6417409 -0.239831E-07  0.445E-04    0.34      44.9  T
  10    -42.6417409 -0.100328E-08  0.253E-04    0.34      78.9  T
     SCC iter.                  ...        0 min,  0.014 sec
     gradient                   ...        0 min,  0.011 sec
 * total energy  :   -42.1328812 Eh     change       -0.1635371E-02 Eh
   gradient norm :     0.0498133 Eh/α   predicted    -0.2737852E-02 (  67.41%)
   displ. norm   :     0.2399324 α      lambda       -0.4029674E-02
   maximum displ.:     0.1224239 α      in ANC's #14, #6, #2, ...

........................................................................
.............................. CYCLE   28 ..............................
........................................................................

 iter      E             dE          RMSdq      gap      omega  full diag
   1    -42.6441801 -0.426442E+02  0.233E-01    0.41       0.0  T
   2    -42.6441442  0.358809E-04  0.175E-01    0.31       1.0  T
   3    -42.6445236 -0.379424E-03  0.134E-01    0.41       1.0  T
   4    -42.6448176 -0.294040E-03  0.447E-02    0.37       1.0  T
   5    -42.6448078  0.979858E-05  0.241E-02    0.36       1.0  T
   6    -42.6448303 -0.224586E-04  0.599E-03    0.37       3.3  T
   7    -42.6448313 -0.101133E-05  0.233E-03    0.37       8.6  T
   8    -42.6448313 -0.175565E-07  0.904E-04    0.37      22.1  T
   9    -42.6448313 -0.748370E-08  0.327E-04    0.37      61.2  T
     SCC iter.                  ...        0 min,  0.013 sec
     gradient                   ...        0 min,  0.011 sec
 * total energy  :   -42.1345849 Eh     change       -0.1703631E-02 Eh
   gradient norm :     0.0280248 Eh/α   predicted    -0.2130827E-02 (  25.08%)
   displ. norm   :     0.1943617 α      lambda       -0.1759813E-02
   maximum displ.:     0.1313569 α      in ANC's #2, #6, #15, ...

........................................................................
.............................. CYCLE   29 ..............................
........................................................................

 iter      E             dE          RMSdq      gap      omega  full diag
   1    -42.6522123 -0.426522E+02  0.126E-01    0.40       0.0  T
   2    -42.6520431  0.169205E-03  0.132E-01    0.32       1.0  T
   3    -42.6523623 -0.319200E-03  0.585E-02    0.38       1.0  T
   4    -42.6523709 -0.858970E-05  0.264E-02    0.36       1.0  T
   5    -42.6523826 -0.117515E-04  0.124E-02    0.36       1.6  T
   6    -42.6523889 -0.622790E-05  0.445E-03    0.36       4.5  T
   7    -42.6523891 -0.256773E-06  0.199E-03    0.36      10.0  T
   8    -42.6523892 -0.367924E-07  0.379E-04    0.36      52.8  T
   9    -42.6523892 -0.473356E-09  0.236E-04    0.36      84.7  T
     SCC iter.                  ...        0 min,  0.013 sec
     gradient                   ...        0 min,  0.011 sec
 * total energy  :   -42.1354860 Eh     change       -0.9011364E-03 Eh
   gradient norm :     0.0200323 Eh/α   predicted    -0.9131476E-03 (   1.33%)
   displ. norm   :     0.3430106 α      lambda       -0.1758246E-02
   maximum displ.:     0.2361545 α      in ANC's #2, #7, #9, ...

........................................................................
.............................. CYCLE   30 ..............................
........................................................................

 iter      E             dE          RMSdq      gap      omega  full diag
   1    -42.6495485 -0.426495E+02  0.248E-01    0.43       0.0  T
   2    -42.6489949  0.553589E-03  0.208E-01    0.27       1.0  T
   3    -42.6497435 -0.748604E-03  0.143E-01    0.41       1.0  T
   4    -42.6499160 -0.172527E-03  0.461E-02    0.36       1.0  T
   5    -42.6499904 -0.743704E-04  0.177E-02    0.36       1.1  T
   6    -42.6500008 -0.104062E-04  0.265E-03    0.36       7.5  T
   7    -42.6500009 -0.862211E-07  0.160E-03    0.36      12.5  T
   8    -42.6500009 -0.237205E-07  0.571E-04    0.36      35.0  T
   9    -42.6500009 -0.445854E-08  0.222E-04    0.36      90.3  T
     SCC iter.                  ...        0 min,  0.013 sec
     gradient                   ...        0 min,  0.011 sec
 * total energy  :   -42.1365906 Eh     change       -0.1104587E-02 Eh
   gradient norm :     0.0212263 Eh/α   predicted    -0.9825589E-03 ( -11.05%)
   displ. norm   :     0.4018485 α      lambda       -0.1656453E-02
   maximum displ.:     0.3239860 α      in ANC's #2, #7, #9, ...

........................................................................
.............................. CYCLE   31 ..............................
........................................................................

 iter      E             dE          RMSdq      gap      omega  full diag
   1    -42.6509912 -0.426510E+02  0.227E-01    0.45       0.0  T
   2    -42.6503339  0.657277E-03  0.231E-01    0.24       1.0  T
   3    -42.6516071 -0.127320E-02  0.978E-02    0.39       1.0  T
   4    -42.6515935  0.136254E-04  0.552E-02    0.35       1.0  T
   5    -42.6516783 -0.847414E-04  0.189E-02    0.36       1.1  T
   6    -42.6516910 -0.126885E-04  0.325E-03    0.36       6.2  T
   7    -42.6516911 -0.172538E-06  0.165E-03    0.36      12.1  T
   8    -42.6516912 -0.278526E-07  0.662E-04    0.36      30.2  T
   9    -42.6516912 -0.733843E-08  0.180E-04    0.36     111.4  T
     SCC iter.                  ...        0 min,  0.013 sec
     gradient                   ...        0 min,  0.011 sec
 * total energy  :   -42.1378177 Eh     change       -0.1227150E-02 Eh
   gradient norm :     0.0278898 Eh/α   predicted    -0.9619719E-03 ( -21.61%)
   displ. norm   :     0.5084923 α      lambda       -0.2184340E-02
   maximum displ.:     0.4316097 α      in ANC's #2, #7, #9, ...

........................................................................
.............................. CYCLE   32 ..............................
........................................................................

 iter      E             dE          RMSdq      gap      omega  full diag
   1    -42.6521651 -0.426522E+02  0.328E-01    0.56       0.0  T
   2    -42.6505090  0.165609E-02  0.343E-01    0.20       1.0  T
   3    -42.6535465 -0.303748E-02  0.137E-01    0.44       1.0  T
   4    -42.6534425  0.104026E-03  0.870E-02    0.40       1.0  T
   5    -42.6537131 -0.270622E-03  0.106E-02    0.39       1.9  T
   6    -42.6537170 -0.385210E-05  0.311E-03    0.39       6.4  T
   7    -42.6537171 -0.141333E-06  0.134E-03    0.39      14.9  T
   8    -42.6537171 -0.160987E-07  0.539E-04    0.39      37.1  T
   9    -42.6537171 -0.341217E-08  0.202E-04    0.39      99.0  T
     SCC iter.                  ...        0 min,  0.013 sec
     gradient                   ...        0 min,  0.011 sec
 * total energy  :   -42.1397181 Eh     change       -0.1900392E-02 Eh
   gradient norm :     0.0388385 Eh/α   predicted    -0.1374569E-02 ( -27.67%)
   displ. norm   :     0.6357797 α      lambda       -0.4342251E-02
   maximum displ.:     0.5415300 α      in ANC's #2, #4, #7, ...

........................................................................
.............................. CYCLE   33 ..............................
........................................................................

 iter      E             dE          RMSdq      gap      omega  full diag
   1    -42.6581864 -0.426582E+02  0.384E-01    0.67       0.0  T
   2    -42.6565742  0.161223E-02  0.386E-01    0.23       1.0  T
   3    -42.6602857 -0.371148E-02  0.151E-01    0.52       1.0  T
   4    -42.6601275  0.158195E-03  0.107E-01    0.46       1.0  T
   5    -42.6604679 -0.340447E-03  0.183E-02    0.47       1.1  T
   6    -42.6604793 -0.113683E-04  0.595E-03    0.47       3.4  T
   7    -42.6604797 -0.454517E-06  0.262E-03    0.47       7.6  T
   8    -42.6604798 -0.715902E-07  0.818E-04    0.47      24.4  T
   9    -42.6604798 -0.804282E-08  0.319E-04    0.47      62.6  T
     SCC iter.                  ...        0 min,  0.013 sec
     gradient                   ...        0 min,  0.011 sec
 * total energy  :   -42.1431915 Eh     change       -0.3473348E-02 Eh
   gradient norm :     0.0347108 Eh/α   predicted    -0.3048732E-02 ( -12.22%)
   displ. norm   :     0.7299214 α      lambda       -0.4765593E-02
   maximum displ.:     0.6489648 α      in ANC's #2, #7, #4, ...

........................................................................
.............................. CYCLE   34 ..............................
........................................................................

 iter      E             dE          RMSdq      gap      omega  full diag
   1    -42.6610065 -0.426610E+02  0.413E-01    0.76       0.0  T
   2    -42.6598473  0.115921E-02  0.378E-01    0.33       1.0  T
   3    -42.6627802 -0.293293E-02  0.186E-01    0.63       1.0  T
   4    -42.6626775  0.102718E-03  0.119E-01    0.56       1.0  T
   5    -42.6630990 -0.421479E-03  0.222E-02    0.56       1.0  T
   6    -42.6631151 -0.160848E-04  0.684E-03    0.57       2.9  T
   7    -42.6631156 -0.536260E-06  0.329E-03    0.57       6.1  T
   8    -42.6631157 -0.710057E-07  0.113E-03    0.57      17.6  T
   9    -42.6631157 -0.211506E-07  0.440E-04    0.57      45.4  T
  10    -42.6631157 -0.133826E-08  0.148E-04    0.57     134.8  T
     SCC iter.                  ...        0 min,  0.014 sec
     gradient                   ...        0 min,  0.011 sec
 * total energy  :   -42.1463075 Eh     change       -0.3115992E-02 Eh
   gradient norm :     0.0931545 Eh/α   predicted    -0.3652318E-02 (  17.21%)
   displ. norm   :     0.5206673 α      lambda       -0.1188561E-01
   maximum displ.:     0.2296813 α      in ANC's #2, #6, #29, ...

........................................................................
.............................. CYCLE   35 ..............................
........................................................................

 iter      E             dE          RMSdq      gap      omega  full diag
   1    -42.6646443 -0.426646E+02  0.412E-01    0.75       0.0  T
   2    -42.6652263 -0.581990E-03  0.274E-01    0.56       1.0  T
   3    -42.6652948 -0.685494E-04  0.188E-01    0.76       1.0  T
   4    -42.6656098 -0.315030E-03  0.115E-01    0.61       1.0  T
   5    -42.6658244 -0.214579E-03  0.386E-02    0.66       1.0  T
   6    -42.6658784 -0.539834E-04  0.118E-02    0.66       1.7  T
   7    -42.6658815 -0.306021E-05  0.461E-03    0.66       4.3  T
   8    -42.6658816 -0.109524E-06  0.135E-03    0.66      14.9  T
   9    -42.6658816 -0.309331E-07  0.508E-04    0.66      39.4  T
  10    -42.6658816 -0.191941E-08  0.226E-04    0.66      88.3  T
     SCC iter.                  ...        0 min,  0.014 sec
     gradient                   ...        0 min,  0.011 sec
 * total energy  :   -42.1446357 Eh     change        0.1671744E-02 Eh
   gradient norm :     0.1109439 Eh/α   predicted    -0.7553867E-02 (-551.86%)
   displ. norm   :     0.3179735 α      lambda       -0.1405998E-01
   maximum displ.:     0.2162179 α      in ANC's #2, #7, #4, ...

........................................................................
.............................. CYCLE   36 ..............................
........................................................................

 iter      E             dE          RMSdq      gap      omega  full diag
   1    -42.6591059 -0.426591E+02  0.236E-01    0.72       0.0  T
   2    -42.6591777 -0.718303E-04  0.159E-01    0.62       1.0  T
   3    -42.6590930  0.846680E-04  0.135E-01    0.74       1.0  T
   4    -42.6593476 -0.254533E-03  0.502E-02    0.67       1.0  T
   5    -42.6593923 -0.447181E-04  0.211E-02    0.68       1.0  T
   6    -42.6594075 -0.152435E-04  0.547E-03    0.68       3.7  T
   7    -42.6594080 -0.433716E-06  0.271E-03    0.68       7.4  T
   8    -42.6594080 -0.808534E-07  0.607E-04    0.68      33.0  T
   9    -42.6594081 -0.427843E-08  0.272E-04    0.68      73.6  T
     SCC iter.                  ...        0 min,  0.013 sec
     gradient                   ...        0 min,  0.011 sec
 * total energy  :   -42.1506296 Eh     change       -0.5993905E-02 Eh
   gradient norm :     0.0510087 Eh/α   predicted    -0.7740772E-02 (  29.14%)
   displ. norm   :     0.2735292 α      lambda       -0.6127089E-02
   maximum displ.:     0.1221514 α      in ANC's #1, #7, #6, ...

........................................................................
.............................. CYCLE   37 ..............................
........................................................................

 iter      E             dE          RMSdq      gap      omega  full diag
   1    -42.6665961 -0.426666E+02  0.216E-01    0.66       0.0  T
   2    -42.6668966 -0.300553E-03  0.130E-01    0.67       1.0  T
   3    -42.6669116 -0.149621E-04  0.763E-02    0.65       1.0  T
   4    -42.6668214  0.902444E-04  0.635E-02    0.70       1.0  T
   5    -42.6669417 -0.120295E-03  0.141E-02    0.66       1.4  T
   6    -42.6669452 -0.354119E-05  0.393E-03    0.66       5.1  T
   7    -42.6669451  0.552685E-07  0.295E-03    0.66       6.8  T
   8    -42.6669454 -0.237490E-06  0.620E-04    0.66      32.3  T
   9    -42.6669454 -0.571079E-08  0.281E-04    0.66      71.2  T
     SCC iter.                  ...        0 min,  0.013 sec
     gradient                   ...        0 min,  0.011 sec
 * total energy  :   -42.1515559 Eh     change       -0.9263234E-03 Eh
   gradient norm :     0.0892299 Eh/α   predicted    -0.3292759E-02 ( 255.47%)
   displ. norm   :     0.1615481 α      lambda       -0.4436330E-02
   maximum displ.:     0.0782638 α      in ANC's #9, #4, #7, ...

........................................................................
.............................. CYCLE   38 ..............................
........................................................................

 iter      E             dE          RMSdq      gap      omega  full diag
   1    -42.6618804 -0.426619E+02  0.147E-01    0.73       0.0  T
   2    -42.6617692  0.111214E-03  0.119E-01    0.63       1.0  T
   3    -42.6618907 -0.121579E-03  0.880E-02    0.73       1.0  T
   4    -42.6619780 -0.872704E-04  0.258E-02    0.70       1.0  T
   5    -42.6620040 -0.259942E-04  0.892E-03    0.69       2.2  T
   6    -42.6620059 -0.187914E-05  0.389E-03    0.69       5.1  T
   7    -42.6620060 -0.155731E-06  0.147E-03    0.69      13.6  T
   8    -42.6620061 -0.265252E-07  0.383E-04    0.69      52.2  T
   9    -42.6620061 -0.110120E-08  0.201E-04    0.69      99.3  T
     SCC iter.                  ...        0 min,  0.013 sec
     gradient                   ...        0 min,  0.011 sec
 * total energy  :   -42.1540437 Eh     change       -0.2487728E-02 Eh
   gradient norm :     0.0329387 Eh/α   predicted    -0.2276063E-02 (  -8.51%)
   displ. norm   :     0.4318364 α      lambda       -0.5384663E-02
   maximum displ.:     0.2697861 α      in ANC's #2, #1, #4, ...

........................................................................
.............................. CYCLE   39 ..............................
........................................................................

 iter      E             dE          RMSdq      gap      omega  full diag
   1    -42.6708670 -0.426709E+02  0.356E-01    0.89       0.0  T
   2    -42.6709895 -0.122478E-03  0.265E-01    0.70       1.0  T
   3    -42.6714100 -0.420459E-03  0.165E-01    0.90       1.0  T
   4    -42.6717555 -0.345478E-03  0.981E-02    0.78       1.0  T
   5    -42.6719442 -0.188720E-03  0.323E-02    0.81       1.0  T
   6    -42.6719751 -0.309695E-04  0.132E-02    0.81       1.5  T
   7    -42.6719778 -0.268794E-05  0.436E-03    0.81       4.6  T
   8    -42.6719780 -0.166138E-06  0.114E-03    0.81      17.6  T
   9    -42.6719780 -0.138326E-07  0.561E-04    0.81      35.7  T
  10    -42.6719780 -0.156444E-08  0.261E-04    0.81      76.6  T
     SCC iter.                  ...        0 min,  0.014 sec
     gradient                   ...        0 min,  0.011 sec
 * total energy  :   -42.1554895 Eh     change       -0.1445811E-02 Eh
   gradient norm :     0.0618520 Eh/α   predicted    -0.3194409E-02 ( 120.94%)
   displ. norm   :     0.1672183 α      lambda       -0.4386302E-02
   maximum displ.:     0.0579195 α      in ANC's #46, #4, #3, ...

........................................................................
.............................. CYCLE   40 ..............................
........................................................................

 iter      E             dE          RMSdq      gap      omega  full diag
   1    -42.6742182 -0.426742E+02  0.168E-01    0.95       0.0  T
   2    -42.6739202  0.297966E-03  0.187E-01    0.75       1.0  T
   3    -42.6746643 -0.744052E-03  0.758E-02    0.87       1.0  T
   4    -42.6746259  0.383579E-04  0.463E-02    0.86       1.0  T
   5    -42.6746826 -0.566689E-04  0.170E-02    0.86       1.2  T
   6    -42.6746927 -0.100823E-04  0.514E-03    0.86       3.9  T
   7    -42.6746930 -0.304289E-06  0.212E-03    0.86       9.5  T
   8    -42.6746930 -0.269818E-07  0.528E-04    0.86      37.9  T
   9    -42.6746930 -0.114510E-08  0.292E-04    0.86      68.5  T
     SCC iter.                  ...        0 min,  0.013 sec
     gradient                   ...        0 min,  0.011 sec
 * total energy  :   -42.1591064 Eh     change       -0.3616868E-02 Eh
   gradient norm :     0.0507094 Eh/α   predicted    -0.2254479E-02 ( -37.67%)
   displ. norm   :     0.5461410 α      lambda       -0.1132646E-01
   maximum displ.:     0.2032052 α      in ANC's #2, #4, #46, ...

........................................................................
.............................. CYCLE   41 ..............................
........................................................................

 iter      E             dE          RMSdq      gap      omega  full diag
   1    -42.6823777 -0.426824E+02  0.633E-01    1.66       0.0  T
   2    -42.6791685  0.320929E-02  0.669E-01    0.81       1.0  T
   3    -42.6906714 -0.115029E-01  0.261E-01    1.30       1.0  T
   4    -42.6902716  0.399746E-03  0.172E-01    1.23       1.0  T
   5    -42.6912273 -0.955660E-03  0.534E-02    1.22       1.0  T
   6    -42.6913157 -0.883659E-04  0.180E-02    1.23       1.1  T
   7    -42.6913163 -0.672357E-06  0.603E-03    1.23       3.3  T
   8    -42.6913170 -0.643959E-06  0.187E-03    1.23      10.7  T
   9    -42.6913170 -0.258453E-07  0.858E-04    1.23      23.3  T
  10    -42.6913170 -0.655019E-08  0.392E-04    1.23      51.0  T
     SCC iter.                  ...        0 min,  0.014 sec
     gradient                   ...        0 min,  0.011 sec
 * total energy  :   -42.1620805 Eh     change       -0.2974103E-02 Eh
   gradient norm :     0.0663905 Eh/α   predicted    -0.7352392E-02 ( 147.21%)
   displ. norm   :     0.6024155 α      lambda       -0.1641729E-01
   maximum displ.:     0.3619762 α      in ANC's #2, #46, #9, ...

........................................................................
.............................. CYCLE   42 ..............................
........................................................................

 iter      E             dE          RMSdq      gap      omega  full diag
   1    -42.6924344 -0.426924E+02  0.552E-01    1.49       0.0  T
   2    -42.6926884 -0.254010E-03  0.374E-01    1.15       1.0  T
   3    -42.6922265  0.461890E-03  0.291E-01    1.46       1.0  T
   4    -42.6934848 -0.125824E-02  0.122E-01    1.27       1.0  T
   5    -42.6939110 -0.426204E-03  0.307E-02    1.28       1.0  T
   6    -42.6939374 -0.263781E-04  0.152E-02    1.28       1.3  T
   7    -42.6939419 -0.450519E-05  0.472E-03    1.28       4.2  T
   8    -42.6939421 -0.183838E-06  0.991E-04    1.28      20.2  T
   9    -42.6939421 -0.869979E-08  0.508E-04    1.28      39.4  T
     SCC iter.                  ...        0 min,  0.013 sec
     gradient                   ...        0 min,  0.011 sec
 * total energy  :   -42.1687228 Eh     change       -0.6642338E-02 Eh
   gradient norm :     0.0724865 Eh/α   predicted    -0.1118759E-01 (  68.43%)
   displ. norm   :     0.1652711 α      lambda       -0.5229900E-02
   maximum displ.:     0.0500535 α      in ANC's #31, #4, #1, ...
 * RMSD in coord.:     0.8999115 α      energy gain  -0.7543793E-01 Eh

generating ANC from model Hessian ...
Using Lindh-Hessian (1995)
 Shifting diagonal of input Hessian by    1.0099916062785413E-002
 Lowest  eigenvalues of input Hessian
    0.010000    0.000000    0.000000    0.000000    0.000000    0.000000
    0.000000    0.011991    0.014278    0.014869    0.016408    0.019016
    0.020907    0.023199    0.024726    0.024925    0.026121    0.032262
 Highest eigenvalues
    2.112240    2.166305    2.182270    2.337661    2.499546    3.181696


........................................................................
.............................. CYCLE   43 ..............................
........................................................................

 iter      E             dE          RMSdq      gap      omega  full diag
   1    -42.6979957 -0.426980E+02  0.163E-01    1.40       0.0  T
   2    -42.6980960 -0.100332E-03  0.110E-01    1.30       1.0  T
   3    -42.6982094 -0.113336E-03  0.853E-02    1.39       1.0  T
   4    -42.6982768 -0.674368E-04  0.370E-02    1.35       1.0  T
   5    -42.6983004 -0.236536E-04  0.159E-02    1.35       1.3  T
   6    -42.6983106 -0.101798E-04  0.341E-03    1.35       5.9  T
   7    -42.6983108 -0.209652E-06  0.167E-03    1.35      11.9  T
   8    -42.6983109 -0.154424E-07  0.421E-04    1.35      47.5  T
   9    -42.6983109 -0.197935E-08  0.174E-04    1.35     115.3  T
     SCC iter.                  ...        0 min,  0.013 sec
     gradient                   ...        0 min,  0.011 sec
 * total energy  :   -42.1725099 Eh     change       -0.3787117E-02 Eh
   gradient norm :     0.0346386 Eh/α   predicted     0.0000000E+00 (-100.00%)
   displ. norm   :     0.2737344 α      lambda       -0.3639794E-02
   maximum displ.:     0.1509511 α      in ANC's #9, #10, #14, ...

........................................................................
.............................. CYCLE   44 ..............................
........................................................................

 iter      E             dE          RMSdq      gap      omega  full diag
   1    -42.7018344 -0.427018E+02  0.174E-01    1.56       0.0  T
   2    -42.7019450 -0.110583E-03  0.142E-01    1.37       1.0  T
   3    -42.7023074 -0.362420E-03  0.731E-02    1.48       1.0  T
   4    -42.7022658  0.416427E-04  0.530E-02    1.44       1.0  T
   5    -42.7023439 -0.781872E-04  0.131E-02    1.45       1.5  T
   6    -42.7023478 -0.381079E-05  0.570E-03    1.45       3.5  T
   7    -42.7023482 -0.400766E-06  0.127E-03    1.45      15.8  T
   8    -42.7023482 -0.188848E-07  0.372E-04    1.45      53.7  T
   9    -42.7023482 -0.920124E-09  0.199E-04    1.45     100.3  T
     SCC iter.                  ...        0 min,  0.013 sec
     gradient                   ...        0 min,  0.011 sec
 * total energy  :   -42.1754252 Eh     change       -0.2915255E-02 Eh
   gradient norm :     0.0210062 Eh/α   predicted    -0.1957228E-02 ( -32.86%)
   displ. norm   :     0.4623090 α      lambda       -0.4140777E-02
   maximum displ.:     0.2454097 α      in ANC's #9, #10, #14, ...

........................................................................
.............................. CYCLE   45 ..............................
........................................................................

 iter      E             dE          RMSdq      gap      omega  full diag
   1    -42.7070130 -0.427070E+02  0.276E-01    1.81       0.0  T
   2    -42.7073451 -0.332153E-03  0.207E-01    1.54       1.0  T
   3    -42.7079835 -0.638398E-03  0.117E-01    1.69       1.0  T
   4    -42.7079301  0.534191E-04  0.806E-02    1.63       1.0  T
   5    -42.7081180 -0.187869E-03  0.187E-02    1.64       1.1  T
   6    -42.7081248 -0.684994E-05  0.888E-03    1.64       2.3  T
   7    -42.7081259 -0.104579E-05  0.185E-03    1.64      10.8  T
   8    -42.7081259 -0.364874E-07  0.578E-04    1.64      34.6  T
   9    -42.7081259 -0.483011E-08  0.277E-04    1.64      72.2  T
     SCC iter.                  ...        0 min,  0.013 sec
     gradient                   ...        0 min,  0.011 sec
 * total energy  :   -42.1780194 Eh     change       -0.2594272E-02 Eh
   gradient norm :     0.0196312 Eh/α   predicted    -0.2512893E-02 (  -3.14%)
   displ. norm   :     0.3099657 α      lambda       -0.1375281E-02
   maximum displ.:     0.1440574 α      in ANC's #9, #14, #10, ...

........................................................................
.............................. CYCLE   46 ..............................
........................................................................

 iter      E             dE          RMSdq      gap      omega  full diag
   1    -42.7092466 -0.427092E+02  0.199E-01    1.84       0.0  T
   2    -42.7093208 -0.741916E-04  0.132E-01    1.70       1.0  T
   3    -42.7093437 -0.228407E-04  0.990E-02    1.80       1.0  T
   4    -42.7094302 -0.865305E-04  0.488E-02    1.75       1.0  T
   5    -42.7095028 -0.726371E-04  0.948E-03    1.75       2.1  T
   6    -42.7095039 -0.103545E-05  0.556E-03    1.75       3.6  T
   7    -42.7095044 -0.576407E-06  0.104E-03    1.75      19.2  T
   8    -42.7095044 -0.737280E-08  0.329E-04    1.75      60.8  T
   9    -42.7095044 -0.158293E-08  0.158E-04    1.75     126.5  T
     SCC iter.                  ...        0 min,  0.013 sec
     gradient                   ...        0 min,  0.011 sec
 * total energy  :   -42.1789801 Eh     change       -0.9606867E-03 Eh
   gradient norm :     0.0158692 Eh/α   predicted    -0.7537248E-03 ( -21.54%)
   displ. norm   :     0.2588240 α      lambda       -0.7557649E-03
   maximum displ.:     0.1211444 α      in ANC's #14, #10, #9, ...

........................................................................
.............................. CYCLE   47 ..............................
........................................................................

 iter      E             dE          RMSdq      gap      omega  full diag
   1    -42.7121670 -0.427122E+02  0.132E-01    1.91       0.0  T
   2    -42.7122029 -0.359082E-04  0.895E-02    1.81       1.0  T
   3    -42.7122342 -0.312807E-04  0.661E-02    1.88       1.0  T
   4    -42.7122706 -0.364619E-04  0.328E-02    1.84       1.0  T
   5    -42.7123031 -0.324680E-04  0.666E-03    1.84       3.0  T
   6    -42.7123036 -0.501748E-06  0.395E-03    1.84       5.1  T
   7    -42.7123039 -0.289181E-06  0.896E-04    1.84      22.3  T
   8    -42.7123039 -0.389806E-08  0.268E-04    1.84      74.5  T
     SCC iter.                  ...        0 min,  0.011 sec
     gradient                   ...        0 min,  0.011 sec
 * total energy  :   -42.1795112 Eh     change       -0.5310536E-03 Eh
   gradient norm :     0.0079466 Eh/α   predicted    -0.4032214E-03 ( -24.07%)
   displ. norm   :     0.2665285 α      lambda       -0.4172634E-03
   maximum displ.:     0.1244454 α      in ANC's #14, #1, #10, ...

........................................................................
.............................. CYCLE   48 ..............................
........................................................................

 iter      E             dE          RMSdq      gap      omega  full diag
   1    -42.7128183 -0.427128E+02  0.135E-01    1.95       0.0  T
   2    -42.7128377 -0.193452E-04  0.846E-02    1.88       1.0  T
   3    -42.7127715  0.661742E-04  0.712E-02    1.95       1.0  T
   4    -42.7128612 -0.897160E-04  0.254E-02    1.91       1.0  T
   5    -42.7128805 -0.193372E-04  0.497E-03    1.91       4.0  T
   6    -42.7128808 -0.227880E-06  0.310E-03    1.91       6.5  T
   7    -42.7128810 -0.192356E-06  0.664E-04    1.91      30.1  T
   8    -42.7128810 -0.278754E-08  0.226E-04    1.91      88.4  T
     SCC iter.                  ...        0 min,  0.011 sec
     gradient                   ...        0 min,  0.011 sec
 * total energy  :   -42.1798051 Eh     change       -0.2938702E-03 Eh
   gradient norm :     0.0083086 Eh/α   predicted    -0.2234605E-03 ( -23.96%)
   displ. norm   :     0.2959740 α      lambda       -0.3372048E-03
   maximum displ.:     0.1435914 α      in ANC's #1, #2, #14, ...

........................................................................
.............................. CYCLE   49 ..............................
........................................................................

 iter      E             dE          RMSdq      gap      omega  full diag
   1    -42.7153420 -0.427153E+02  0.117E-01    2.02       0.0  T
   2    -42.7153658 -0.238097E-04  0.719E-02    1.96       1.0  T
   3    -42.7153231  0.426847E-04  0.574E-02    2.01       1.0  T
   4    -42.7153810 -0.579573E-04  0.220E-02    1.97       1.0  T
   5    -42.7153949 -0.138177E-04  0.469E-03    1.98       4.3  T
   6    -42.7153952 -0.297907E-06  0.272E-03    1.98       7.4  T
   7    -42.7153953 -0.156445E-06  0.705E-04    1.98      28.4  T
   8    -42.7153953 -0.194914E-08  0.217E-04    1.98      92.0  T
     SCC iter.                  ...        0 min,  0.011 sec
     gradient                   ...        0 min,  0.011 sec
 * total energy  :   -42.1800359 Eh     change       -0.2308952E-03 Eh
   gradient norm :     0.0061302 Eh/α   predicted    -0.1833757E-03 ( -20.58%)
   displ. norm   :     0.3736803 α      lambda       -0.2928300E-03
   maximum displ.:     0.2345733 α      in ANC's #1, #2, #14, ...

........................................................................
.............................. CYCLE   50 ..............................
........................................................................

 iter      E             dE          RMSdq      gap      omega  full diag
   1    -42.7141377 -0.427141E+02  0.167E-01    2.05       0.0  T
   2    -42.7141517 -0.140502E-04  0.997E-02    2.01       1.0  T
   3    -42.7140507  0.101009E-03  0.631E-02    2.06       1.0  T
   4    -42.7141573 -0.106567E-03  0.176E-02    2.02       1.1  T
   5    -42.7141659 -0.864647E-05  0.398E-03    2.02       5.0  T
   6    -42.7141662 -0.242876E-06  0.227E-03    2.02       8.8  T
   7    -42.7141663 -0.102020E-06  0.591E-04    2.02      33.8  T
   8    -42.7141663 -0.266547E-08  0.215E-04    2.02      93.2  T
     SCC iter.                  ...        0 min,  0.011 sec
     gradient                   ...        0 min,  0.011 sec
 * total energy  :   -42.1802009 Eh     change       -0.1649943E-03 Eh
   gradient norm :     0.0104926 Eh/α   predicted    -0.1668642E-03 (   1.13%)
   displ. norm   :     0.2133889 α      lambda       -0.2015990E-03
   maximum displ.:     0.1381877 α      in ANC's #2, #1, #4, ...

........................................................................
.............................. CYCLE   51 ..............................
........................................................................

 iter      E             dE          RMSdq      gap      omega  full diag
   1    -42.7157052 -0.427157E+02  0.555E-02    2.06       0.0  T
   2    -42.7157099 -0.464024E-05  0.335E-02    2.04       1.0  T
   3    -42.7156993  0.105560E-04  0.238E-02    2.06       1.0  T
   4    -42.7157121 -0.128237E-04  0.795E-03    2.04       2.5  T
   5    -42.7157138 -0.167989E-05  0.219E-03    2.05       9.1  T
   6    -42.7157139 -0.112544E-06  0.975E-04    2.05      20.5  T
[...]
C           -2.22906020418814        2.35437083385074        0.08149243466843
C           -1.94373647334724       -0.00673378588757       -0.08590446318164
O           -3.13853157467376       -0.13500715763045       -0.05461305113497
N           -1.10837147630988       -1.17175154984247       -0.22573675053699
C           -1.67960740433863       -2.35964115302225       -0.38433291526354
H            3.72191711862605        0.99940807728327        0.96530368368518
H            3.93148653994164        0.94982507219165       -0.79373452087932
H            2.74522876491722        2.06521781694458       -0.06817334537785
H            3.31588697666779       -1.73768059514394       -0.19360656410787
H           -1.63206095411072        3.26524124449683        0.10167933367939
H           -2.90431889474720        2.36597658881161       -0.77612502992612
H           -2.83324321794849        2.28051382945061        0.98709812692990
H            0.55043467464251       -4.27765239083766        1.31903869629310
H           -1.05230644660255       -3.22433924850699       -0.49898460922223
H           -2.75524309894909       -2.40769501637228       -0.39638840570116
H            0.93329798200034       -3.75600340448681        0.84016274151438

 Bond Distances (Angstroems)
 ---------------------------
C1-N2=1.4348         C1-H15=1.0926        C1-H16=1.0911        C1-H17=1.0904        N2-C1=1.4348         N2-C3=1.3522         
N2-C6=1.3676         C3-N2=1.3522         C3-N4=1.3156         C3-H18=1.0729        N4-C3=1.3156         N4-C5=1.3478         
C5-N4=1.3478         C5-C6=1.3983         C5-N13=1.3699        C6-N2=1.3676         C6-C5=1.3983         C6-C7=1.4382         
C7-C6=1.4382         C7-O8=1.2124         C7-N9=1.4045         O8-C7=1.2124         N9-C7=1.4045         N9-C10=1.4533        
N9-C11=1.3753        C10-N9=1.4533        C10-H19=1.0893       C10-H20=1.0916       C10-H21=1.0912       C11-N9=1.3753        
C11-O12=1.2021       C11-N13=1.4404       O12-C11=1.2021       N13-C5=1.3699        N13-C11=1.4404       N13-C14=1.3276       
C14-N13=1.3276       C14-H23=1.0744       C14-H24=1.0768       H15-C1=1.0926        H16-C1=1.0911        H17-C1=1.0904        
H18-C3=1.0729        H19-C10=1.0893       H20-C10=1.0916       H21-C10=1.0912       H22-H25=0.8050       H23-C14=1.0744       
H24-C14=1.0768       H25-H22=0.8050       
 H  H  Rav=0.8050 sigma=0.0000  Rmin=0.8050  Rmax=0.8050     1
 C  H  Rav=1.0856 sigma=0.0078  Rmin=1.0729  Rmax=1.0926     9
 C  C  Rav=1.4182 sigma=0.0200  Rmin=1.3983  Rmax=1.4382     2
 N  C  Rav=1.3808 sigma=0.0443  Rmin=1.3156  Rmax=1.4533    11
 O  C  Rav=1.2073 sigma=0.0052  Rmin=1.2021  Rmax=1.2124     2

 selected bond angles (degree)
 --------------------
H15-C1-N2=110.33               H16-C1-N2=110.17               H16-C1-H15=108.49              H17-C1-N2=109.23               
H17-C1-H15=108.99              H17-C1-H16=109.61              C3-N2-C1=127.15                C6-N2-C1=126.64                
C6-N2-C3=106.20                N4-C3-N2=112.68                H18-C3-N2=123.70               H18-C3-N4=123.61               
C5-N4-C3=105.83                C6-C5-N4=109.54                N13-C5-N4=127.90               N13-C5-C6=122.56               
C5-C6-N2=105.75                C7-C6-N2=131.50                C7-C6-C5=122.76                O8-C7-C6=126.41                
N9-C7-C6=111.48                N9-C7-O8=122.11                C10-N9-C7=117.24               C11-N9-C7=127.90               
C11-N9-C10=114.86              H19-C10-N9=108.27              H20-C10-N9=110.03              H20-C10-H19=110.16             
H21-C10-N9=110.15              H21-C10-H19=110.16             H21-C10-H20=108.07             

 selected dihedral angles (degree)
 ---------------------------------
C3-N2-C1-H15=292.34           C3-N2-C1-H16= 52.10           C3-N2-C1-H17=172.55           C6-N2-C1-H15=111.39           
C6-N2-C1-H16=231.16           C6-N2-C1-H17=351.61           N4-C3-N2-C1=179.50            N4-C3-N2-C6=  0.29            
H18-C3-N2-C1=359.66           H18-C3-N2-C6=180.44           C5-N4-C3-N2=359.80            C5-N4-C3-H18=179.65           
C6-C5-N4-C3=  0.03            N13-C5-N4-C3=179.85           C5-C6-N2-C1=180.54            C5-C6-N2-C3=359.75            
C7-C6-N2-C1=  1.01            C7-C6-N2-C3=180.23            N2-C6-C5-N4=  0.14            N2-C6-C5-N13=180.31           
C7-C6-C5-N4=179.71            C7-C6-C5-N13=359.88           O8-C7-C6-N2=  1.77            O8-C7-C6-C5=182.32            
N9-C7-C6-N2=181.80            N9-C7-C6-C5=  2.34            C10-N9-C7-C6=178.91           C10-N9-C7-O8=358.93           
C11-N9-C7-C6=358.66           C11-N9-C7-O8=178.68           H19-C10-N9-C7=  1.60          H19-C10-N9-C11=181.81         
H20-C10-N9-C7=122.04          H20-C10-N9-C11=302.26         H21-C10-N9-C7=241.08          H21-C10-N9-C11= 61.30         
           -------------------------------------------------
          |                Final Singlepoint                |
           -------------------------------------------------

          ...................................................
          :                      SETUP                      :
          :.................................................:
          :  # basis functions                  67          :
          :  # atomic orbitals                  67          :
          :  # shells                           39          :
          :  # electrons                        74          :
          :  max. iterations                   250          :
          :  Hamiltonian                  GFN2-xTB          :
          :  restarted?                      false          :
          :  GBSA solvation                  false          :
          :  PC potential                    false          :
          :  electronic temp.         7500.0000000     K    :
          :  accuracy                    1.0000000          :
          :  -> integral cutoff          0.2500000E+02      :
          :  -> integral neglect         0.1000000E-07      :
          :  -> SCF convergence          0.1000000E-05 Eh   :
          :  -> wf. convergence          0.1000000E-03 e    :
          :  Broyden damping             0.4000000          :
          ...................................................

 iter      E             dE          RMSdq      gap      omega  full diag
   1    -42.7161124 -0.427161E+02  0.127E-04    2.05       0.0  T
   2    -42.7161124  0.624212E-10  0.103E-04    2.05     194.6  T
   3    -42.7161124 -0.140957E-09  0.714E-05    2.05     280.3  T

   *** convergence criteria satisfied after 3 iterations ***

         #    Occupation            Energy/Eh            Energy/eV
      -------------------------------------------------------------
         1        2.0000           -0.9043784             -24.6094
       ...           ...                  ...                  ...
        31        1.9672           -0.6134638             -16.6932
        32        1.9595           -0.6083199             -16.5532
        33        1.9453           -0.6010318             -16.3549
        34        1.9093           -0.5885945             -16.0165
        35        1.9022           -0.5867105             -15.9652
        36        1.8801           -0.5815877             -15.8258
        37        1.8237           -0.5717066             -15.5569 (HOMO)
        38        0.6062           -0.4964368             -13.5087 (LUMO)
        39        0.0503           -0.4293439             -11.6830
        40        0.0124           -0.3956918             -10.7673
        41        0.0053           -0.3753937             -10.2150
        42        0.0002           -0.2980231              -8.1096
       ...           ...                  ...                  ...
        67                          0.5280788              14.3698
      -------------------------------------------------------------
                  HL-Gap            0.0752698 Eh            2.0482 eV
             Fermi-level           -0.5162137 Eh          -14.0469 eV

 SCC (total)                   0 d,  0 h,  0 min,  0.021 sec
 SCC setup                      ...        0 min,  0.000 sec (  0.838%)
 Dispersion                     ...        0 min,  0.000 sec (  0.968%)
 classical contributions        ...        0 min,  0.000 sec (  0.316%)
 integral evaluation            ...        0 min,  0.004 sec ( 20.815%)
 iterations                     ...        0 min,  0.005 sec ( 22.489%)
 molecular gradient             ...        0 min,  0.011 sec ( 54.006%)
 printout                       ...        0 min,  0.000 sec (  0.509%)

         :::::::::::::::::::::::::::::::::::::::::::::::::::::
         ::                     SUMMARY                     ::
         :::::::::::::::::::::::::::::::::::::::::::::::::::::
         :: total energy             -42.181020324730 Eh    ::
         :: gradient norm              0.002459312957 Eh/a0 ::
         :: HOMO-LUMO gap              2.048195683231 eV    ::
         ::.................................................::
         :: SCC energy               -42.716112353859 Eh    ::
         :: -> isotropic ES            0.132208776228 Eh    ::
         :: -> anisotropic ES         -0.002419444720 Eh    ::
         :: -> anisotropic XC          0.023302893123 Eh    ::
         :: -> dispersion             -0.022654878703 Eh    ::
         :: repulsion energy           0.534980403304 Eh    ::
         :: add. restraining           0.000004273194 Eh    ::
         :: total charge               1.000000000000 e     ::
         :::::::::::::::::::::::::::::::::::::::::::::::::::::

           -------------------------------------------------
          |                Property Printout                |
           -------------------------------------------------

    * Orbital Energies and Occupations

         #    Occupation            Energy/Eh            Energy/eV
      -------------------------------------------------------------
         1        2.0000           -0.9043784             -24.6094
       ...           ...                  ...                  ...
        25        1.9970           -0.6703153             -18.2402
        26        1.9951           -0.6590602             -17.9339
        27        1.9930           -0.6505669             -17.7028
        28        1.9924           -0.6483848             -17.6434
        29        1.9903           -0.6425940             -17.4859
        30        1.9782           -0.6232825             -16.9604
        31        1.9672           -0.6134638             -16.6932
        32        1.9595           -0.6083199             -16.5532
        33        1.9453           -0.6010318             -16.3549
        34        1.9093           -0.5885945             -16.0165
        35        1.9022           -0.5867105             -15.9652
        36        1.8801           -0.5815877             -15.8258
        37        1.8237           -0.5717066             -15.5569 (HOMO)
        38        0.6062           -0.4964368             -13.5087 (LUMO)
        39        0.0503           -0.4293439             -11.6830
        40        0.0124           -0.3956918             -10.7673
        41        0.0053           -0.3753937             -10.2150
        42        0.0002           -0.2980231              -8.1096
        43        0.0000           -0.2138849              -5.8201
        44        0.0000           -0.1667748              -4.5382
        45        0.0000           -0.1450262              -3.9464
        46                         -0.0813204              -2.2128
        47                         -0.0546136              -1.4861
        48                         -0.0486370              -1.3235
       ...                                ...                  ...
        67                          0.5280788              14.3698
      -------------------------------------------------------------
                  HL-Gap            0.0752698 Eh            2.0482 eV
             Fermi-level           -0.5162137 Eh          -14.0469 eV

     #   Z          covCN         q      C6AA      α(0)
     1   6 C        3.689    -0.082    22.260     6.753
     2   7 N        2.833     0.049    20.383     6.705
     3   6 C        3.173     0.093    25.564     8.258
     4   7 N        1.902    -0.191    25.953     7.553
     5   6 C        3.165     0.112    25.222     8.208
     6   6 C        3.113    -0.005    27.998     8.668
     7   6 C        2.763     0.268    22.480     7.765
     8   8 O        0.858    -0.329    20.316     6.043
     9   7 N        2.744    -0.064    22.470     7.040
    10   6 C        3.711    -0.064    21.860     6.682
    11   6 C        2.734     0.310    21.738     7.633
    12   8 O        0.859    -0.319    20.120     6.014
    13   7 N        2.736     0.034    20.651     6.749
    14   6 C        2.804    -0.021    28.510     8.748
    15   1 H        0.924     0.112     1.681     2.028
    16   1 H        0.924     0.111     1.689     2.032
    17   1 H        0.924     0.129     1.543     1.943
    18   1 H        0.926     0.113     1.669     2.021
    19   1 H        0.925     0.130     1.538     1.940
    20   1 H        0.924     0.117     1.638     2.002
    21   1 H        0.924     0.117     1.637     2.001
    22   1 H        0.712     0.047     2.496     2.506
    23   1 H        0.926     0.138     1.478     1.901
    24   1 H        0.926     0.149     1.396     1.848
    25   1 H        0.712     0.045     2.525     2.521

 Mol. C6AA /au·bohr⁶  :       6676.578969
 Mol. C8AA /au·bohr⁸  :     153032.586707
 Mol. α(0) /au        :        125.558911


Wiberg/Mayer (AO) data.
largest (>0.10) Wiberg bond orders for each atom

 ---------------------------------------------------------------------------
     #   Z sym  total        # sym  WBO       # sym  WBO       # sym  WBO
 ---------------------------------------------------------------------------
     1   6 C    3.890 --     2 N    0.996    17 H    0.954    16 H    0.951
                            15 H    0.945
     2   7 N    3.623 --     3 C    1.279     6 C    1.195     1 C    0.996
     3   6 C    3.865 --     4 N    1.464     2 N    1.279    18 H    0.952
     4   7 N    2.964 --     3 C    1.464     5 C    1.281
     5   6 C    3.869 --     6 C    1.295     4 N    1.281    13 N    1.103
     6   6 C    3.824 --     5 C    1.295     2 N    1.195     7 C    1.082
     7   6 C    3.895 --     8 O    1.663     6 C    1.082     9 N    1.068
     8   8 O    1.931 --     7 C    1.663     9 N    0.114
     9   7 N    3.501 --    11 C    1.150     7 C    1.068    10 C    0.975
                            12 O    0.131     8 O    0.114
    10   6 C    3.856 --     9 N    0.975    19 H    0.951    20 H    0.943
                            21 H    0.942
    11   6 C    3.901 --    12 O    1.701     9 N    1.150    13 N    0.965
    12   8 O    1.983 --    11 C    1.701     9 N    0.131
    13   7 N    3.620 --    14 C    1.383     5 C    1.103    11 C    0.965
    14   6 C    3.399 --    13 N    1.383    23 H    0.954    24 H    0.951
    15   1 H    0.970 --     1 C    0.945
    16   1 H    0.973 --     1 C    0.951
    17   1 H    0.973 --     1 C    0.954
    18   1 H    0.983 --     3 C    0.952
    19   1 H    0.970 --    10 C    0.951
    20   1 H    0.961 --    10 C    0.943
    21   1 H    0.960 --    10 C    0.942
    22   1 H    0.894 --    25 H    0.882
    23   1 H    0.977 --    14 C    0.954
    24   1 H    0.973 --    14 C    0.951
    25   1 H    0.915 --    22 H    0.882
 ---------------------------------------------------------------------------

Topologies differ in total number of bonds
Writing topology from bond orders to xtbtopo.mol

molecular dipole:
                 x           y           z       tot (Debye)
 q only:        1.024      -0.963      -0.046
   full:        1.236      -0.925      -0.038       3.925
molecular quadrupole (traceless):
                xx          xy          yy          xz          yz          zz
 q only:       12.731      -2.241       5.093       0.947      -0.059     -17.824
  q+dip:       12.759      -2.544       1.508       0.626      -1.035     -14.267
   full:       11.512      -2.671       0.248       0.863      -1.040     -11.760

           -------------------------------------------------
          |                Geometry Summary                 |
           -------------------------------------------------

      molecular mass/u    :      195.1988581
   center of mass at/Å    :       -0.0766019       0.0942866      -0.0882255
  moments of inertia/u·Å² :        0.4932739E+03   0.7144515E+03   0.1192142E+04
rotational constants/cm⁻¹ :        0.3417500E-01   0.2359521E-01   0.1414062E-01

 * 23 selected distances

     #   Z          #   Z                                           value/Å
     1   6 C        2   7 N                                       1.4347605
     2   7 N        3   6 C                                       1.3521834
     3   6 C        4   7 N                                       1.3156302
     4   7 N        5   6 C                                       1.3477918
     2   7 N        6   6 C                                       1.3676047
     5   6 C        6   6 C                                       1.3982503
     6   6 C        7   6 C                                       1.4382228
     7   6 C        8   8 O                                       1.2124479
     7   6 C        9   7 N                                       1.4045080
     9   7 N       10   6 C                                       1.4532892 (max)
     9   7 N       11   6 C                                       1.3753147
    11   6 C       12   8 O                                       1.2020686
     5   6 C       13   7 N                                       1.3698944
    13   7 N       14   6 C                                       1.3276089
     1   6 C       15   1 H                                       1.0926459
     1   6 C       16   1 H                                       1.0910900
     1   6 C       17   1 H                                       1.0903582
     3   6 C       18   1 H                                       1.0728802 (min)
    10   6 C       19   1 H                                       1.0892661
    10   6 C       20   1 H                                       1.0916121
    10   6 C       21   1 H                                       1.0911525
    14   6 C       23   1 H                                       1.0744089
    14   6 C       24   1 H                                       1.0767761

 * 4 distinct bonds (by element types)

   Z      Z             #   av. dist./Å        max./Å        min./Å
   1 H    6 C           9     1.0855767     1.0926459     1.0728802
   6 C    6 C           2     1.4182366     1.4382228     1.3982503
   6 C    7 N          10     1.3748586     1.4532892     1.3156302
   6 C    8 O           2     1.2072582     1.2124479     1.2020686


optimized geometry written to: xtbopt.xyz


           -------------------------------------------------
          | TOTAL ENERGY              -42.181020324730 Eh   |
          | GRADIENT NORM               0.002459312957 Eh/α |
          | HOMO-LUMO GAP               2.048195683231 eV   |
           -------------------------------------------------

------------------------------------------------------------------------
 * finished run on 2024/06/05 at 19:58:54.496     
------------------------------------------------------------------------
 total:
 * wall-time:     0 d,  0 h,  0 min,  1.805 sec
 *  cpu-time:     0 d,  0 h,  0 min,  1.783 sec
 * ratio c/w:     0.988 speedup
 SCF:
 * wall-time:     0 d,  0 h,  0 min,  0.036 sec
 *  cpu-time:     0 d,  0 h,  0 min,  0.036 sec
 * ratio c/w:     1.000 speedup
 ANC optimizer:
 * wall-time:     0 d,  0 h,  0 min,  1.740 sec
 *  cpu-time:     0 d,  0 h,  0 min,  1.736 sec
 * ratio c/w:     0.998 speedup

