25
 energy: -42.104637646024 gnorm: 0.003321547161 xtb: 6.6.1 (8d0f1dd)
C            3.28229885796677        1.25862705144128        0.07250886116684
N            2.37941467116332        0.13867667700028        0.03824634891393
C            2.70820482898799       -1.14841747686400        0.04305570834538
N            1.59462967069517       -1.91041643411322        0.02351141784775
C            0.50899365445394       -1.06953851369172        0.00241307882519
C            1.00843536414917        0.22793029880096        0.01177720217018
C            0.14685781156341        1.38790844376785       -0.00758848933450
O            0.50690064087629        2.54318772714759        0.00876395707864
N           -1.20224332838342        1.01359567955316       -0.05101042154320
C           -2.18874068338255        2.08917654489509       -0.08603641031460
C           -1.73906969593988       -0.24346987493605       -0.07002052965658
O           -2.91365396833711       -0.46854905182531       -0.12534575948262
N           -0.81143524028827       -1.36792436968587       -0.01342755957096
C           -1.33256563332954       -2.60520241072731        0.01705184356912
H            3.85689519613376        1.25213381742445        0.99909013461290
H            3.97341846241834        1.21511372769042       -0.76886645044390
H            2.69987071978031        2.17797205650223        0.01837476817452
H            3.70994245636222       -1.53085891688453        0.06073131196221
H           -1.65477971094071        3.03538866780288       -0.05268988812976
H           -2.77851249926963        2.01981507103662       -0.99902963090812
H           -2.85860466222163        2.00200467406983        0.76808391514029
H           -0.69749960705352       -3.46463564373073        0.08358834242090
H           -2.41367156647776       -2.70361094526199        0.01536523348787
H           -4.20780180515466       -3.11082258717346        0.02989582911270
H            1.58314758033058       -2.91984567063228        0.01272880445302
