72
 energy: -99.187668625517 gnorm: 1.611516932914 xtb: 6.6.1 (8d0f1dd)
N           -2.51367294999206        0.85879541421810        2.14039574204983
C           -2.41621463604377        2.05500589834098        1.55006384597404
C           -3.20665167386717        2.08570042005371        0.28704028780641
C           -3.73163790241180        0.67328927659841        0.25263833961927
C           -4.53423088562318        0.02791163504599       -0.66759697189697
C           -4.87487015392567       -1.30397761757331       -0.45005689351101
O           -5.64700741386873       -2.04475897253542       -1.26745185001277
C           -6.23354448645761       -1.43759936107354       -2.39676132443247
C           -4.40082322740211       -1.99181332199332        0.70876392850983
O           -4.79932757375741       -3.27398466359441        0.80407860381779
C           -4.43725561801113       -4.01977189294653        1.94396587218890
C           -3.60037272165814       -1.33676621334708        1.63251075006821
C           -3.28201714573642       -0.00604448671685        1.38773237127274
C           -2.33819301184614        2.42023035915059       -0.95378933238761
C           -1.41768635363029        1.28577584944245       -1.40186580799974
C           -0.31937989716776        0.96420404165666       -0.35365456828177
N            0.61291289262719       -0.02154027069749       -0.95261152770615
C            1.96731552321683        0.00904231701518       -0.44957196123042
C            2.97213544812313       -0.43530719452159       -1.52811182814164
C            4.37739928978778       -0.23241833603775       -1.04333746985752
C            5.00486404311477        0.99635644979444       -1.19176841162844
C            6.29036100816611        1.20185432761108       -0.71814903594439
C            6.98025386515488        0.17980917701393       -0.08007899180462
O            8.22903687926180        0.26627201895059        0.41711778121724
C            8.93716253080081        1.47720889024108        0.28792424079715
C            6.34747618875853       -1.08441544513814        0.07737728017751
O            7.08820433529455       -2.02291782845976        0.70101035215824
C            6.56569675395498       -3.32027794545649        0.85902232659308
C            5.05881413565364       -1.26377373755642       -0.40295051241896
C            0.02741534290769       -1.34014339589085       -1.04306412258588
C           -4.39816341626467        3.09880417020453        0.38208933054738
C           -5.25390394432821        2.81510540740988        1.61574636756107
C           -3.94123476040646        4.55358910637232        0.39250846100677
H           -4.88895328269027        0.55178883963781       -1.53935398762096
H           -6.87879485035797       -0.60128289241057       -2.11066127309789
H           -6.83549174729022       -2.21373191809068       -2.86497541808624
H           -5.47605723351497       -1.09111768162445       -3.10690318736485
H           -4.81208283337698       -3.55571125582549        2.86191787365060
H           -4.90480777833231       -4.99379220538665        1.81785220741829
H           -3.35097048855320       -4.14686680297592        2.01232710158060
H           -3.23908363734475       -1.83259820744324        2.51811735335349
H           -0.58207784990771        0.74383040648926        0.23725760425448
H           -3.01068572213173        2.65807731127183       -1.77872825816141
H           -1.74085192330166        3.30537767711557       -0.73521614699075
H           -2.01095633088604        0.38959332044798       -1.58253999308403
H           -0.94284892963508        1.57057753868631       -2.34060060172056
H           -1.86389078830409        2.86110815691483        1.98605982770025
H            0.27292156863575        1.89672257264708       -0.26522879706849
H            2.09030577283930       -0.62521000852202        0.44294848571480
H            2.21103150395070        1.03510740651730       -0.16630032780156
H            2.79219881209090        0.16100494099976       -2.42279133519692
H            2.81244234443892       -1.48389791980554       -1.77859224349716
H            4.49126130295922        1.80319277716114       -1.69176984253816
H            6.75262677963413        2.16570851737955       -0.85558032484139
H            8.42901288992998        2.29580480916356        0.80692213818179
H            9.08307949873434        1.74554705682573       -0.76272361142963
H            9.90511151827807        1.30086324208329        0.75315869542619
H            7.34769446641112       -3.89189771354753        1.35529870366051
H            5.66727405121153       -3.31820706786148        1.48461027229005
H            6.33780199206002       -3.78093794790706       -0.10711687015138
H            4.57173510520322       -2.21992219655140       -0.29164105392281
H           -0.61950440361917       -1.39751830178320       -1.92064975224150
H           -0.57178182632870       -1.59117158547413       -0.15475628054055
H            0.80848683908389       -2.08878085568791       -1.15227397697120
H           -5.01230498663970        2.93161176339665       -0.50824288345291
H           -4.70294367399319        3.03743101731602        2.52736548754746
H           -5.57412344408330        1.77601716652384        1.64488741865392
H           -6.14165859827756        3.44208026461321        1.59643563817774
H           -3.25882381420380        4.74597168687518        1.21609339831231
H           -3.45699147131480        4.83221104291379       -0.53845733021524
H           -4.80870161362880        5.19665040477887        0.51995228941088
H           -2.09494208506904        0.61706208797656        3.02599857195066
72
 energy: -99.454951952771 gnorm: 0.047531199648 xtb: 6.6.1 (8d0f1dd)
N           -2.51371302279819        0.85874682534155        2.14036315108653
C           -2.41633333872798        2.05486638128662        1.55008745150744
C           -3.20642047434112        2.08565833052732        0.28700432743285
C           -3.73163879732554        0.67329942235781        0.25258486948174
C           -4.53421980775886        0.02794265174669       -0.66760705486183
C           -4.87485790756870       -1.30396213609191       -0.45010134835890
O           -5.64711965955218       -2.04473722806022       -1.26738571112454
C           -6.23347817604642       -1.43765820208702       -2.39669498852859
C           -4.40084810211027       -1.99171255381300        0.70880108559993
O           -4.79932497390642       -3.27407878747564        0.80424371988347
C           -4.43715362690195       -4.01976402233500        1.94398026502271
C           -3.60036687418423       -1.33676787537575        1.63257797857498
C           -3.28204974171355       -0.00611143922852        1.38772670272338
C           -2.33810387394035        2.42048222994715       -0.95397373222330
C           -1.41946948377813        1.29134688920520       -1.41670642527010
C           -0.26171694423668        1.01335803632293       -0.48186258177538
N            0.62555461295359       -0.02392727366935       -0.97001087082625
C            1.96946447982139        0.00841302742547       -0.44959712523569
C            2.97281395709933       -0.43559680047856       -1.52812297563272
C            4.37757072170383       -0.23242247061501       -1.04332950044958
C            5.00488524841412        0.99637123238644       -1.19176130934036
C            6.29037631749070        1.20187985483310       -0.71814217469623
C            6.98025411338876        0.17982796953926       -0.08010541879231
O            8.22903963013308        0.26627495600054        0.41714260141644
C            8.93716498134511        1.47719389601518        0.28791608076523
C            6.34746251436881       -1.08441083122306        0.07737035893393
O            7.08822095241554       -2.02290613723071        0.70098638038987
C            6.56569254745297       -3.32026300255867        0.85902643098768
C            5.05884391785928       -1.26378901965312       -0.40294023454933
C            0.02754676484250       -1.33960957425704       -1.04349902230502
C           -4.39809494649223        3.09874178866332        0.38208986708297
C           -5.25389983439413        2.81511012425476        1.61573618647503
C           -3.94122282233905        4.55359516839636        0.39250926067826
H           -4.88892133564668        0.55178192955163       -1.53936420173591
H           -6.87873757697991       -0.60137992297690       -2.11071891063710
H           -6.83547894566745       -2.21375388229908       -2.86493781396911
H           -5.47604840718120       -1.09118933499304       -3.10682006711331
H           -4.81200411711282       -3.55579353305398        2.86178669063901
H           -4.90480355461991       -4.99382432978520        1.81773073456638
H           -3.35125986066381       -4.14679950816068        2.01231849144117
H           -3.23912731553859       -1.83255727196495        2.51813245064915
H           -0.66784732534313        0.67288479039553        0.41999291098726
H           -3.01101648025084        2.65828322693198       -1.77842703136304
H           -1.74085946090481        3.30550207141597       -0.73539750480598
H           -2.00998537262465        0.38955330422262       -1.58245574891175
H           -0.94443319897055        1.57228947995761       -2.34646670241978
H           -1.86368478855936        2.86123518705764        1.98602561663588
H            0.28782949045425        1.91307268226600       -0.28155248593969
H            2.08987644514016       -0.62512492111698        0.44333088399462
H            2.21113289130771        1.03512597994299       -0.16664279924996
H            2.79225831814475        0.16100322392870       -2.42272762205965
H            2.81248472135061       -1.48395763109393       -1.77862299878983
H            4.49126003720513        1.80320385119776       -1.69175331793018
H            6.75263296623287        2.16572376056602       -0.85557866217092
H            8.42903349664348        2.29579611742032        0.80691721072687
H            9.08307989324882        1.74554148161097       -0.76272732130652
H            9.90511280160797        1.30084474296128        0.75314776523763
H            7.34768834293736       -3.89188487073659        1.35529476577332
H            5.66728215395396       -3.31819231730092        1.48460503602263
H            6.33779414920630       -3.78094515506292       -0.10711064660136
H            4.57173170952891       -2.21992210015805       -0.29166039939595
H           -0.61921382733900       -1.39787246335332       -1.92034053602826
H           -0.57144198366572       -1.59016786658823       -0.15506521256630
H            0.80773920687440       -2.08886857249616       -1.15200276271531
H           -5.01228204477738        2.93162963229612       -0.50825532782913
H           -4.70300454221264        3.03736169957259        2.52729551742757
H           -5.57412752351296        1.77612980597341        1.64485992821362
H           -6.14157747988577        3.44206075751457        1.59647073112913
H           -3.25887494997884        4.74598236056390        1.21609645446450
H           -3.45693418763447        4.83222399452833       -0.53838874163900
H           -4.80865709650906        5.19665147849775        0.51991500422974
H           -2.09495800233014        0.61710021508892        3.02605522178081
72
 energy: -99.457623122634 gnorm: 0.035418301680 xtb: 6.6.1 (8d0f1dd)
N           -2.52209311884087        0.86083861319634        2.14627963592231
C           -2.41693715962081        2.05429899423678        1.55109510455742
C           -3.20293683246546        2.08424826808743        0.28536738465603
C           -3.73091153411349        0.67273829474804        0.25264865204097
C           -4.53284481643435        0.02711840554905       -0.66789561065612
C           -4.87549807336000       -1.30407332552770       -0.44880441220179
O           -5.64839949333425       -2.04539435682045       -1.26500029937045
C           -6.23286981439786       -1.43993454494588       -2.39580241729605
C           -4.40281442619650       -1.99120967022371        0.71090354752340
O           -4.80066710052544       -3.27394295705496        0.80571772048810
C           -4.43807043913627       -4.02068116603181        1.94420076227882
C           -3.60390210123619       -1.33601092748512        1.63567035083367
C           -3.28639144452208       -0.00532833283149        1.39082855173525
C           -2.33375067046188        2.41972533760774       -0.95577852384601
C           -1.41362708451790        1.29459571824766       -1.42864266592194
C           -0.27413190407968        0.99654897250585       -0.45740039682796
N            0.62268964666920       -0.01981647327327       -0.96994856689174
C            1.97090987140411        0.00815049444176       -0.45520484114747
C            2.97852553515983       -0.43508200972903       -1.53164037303842
C            4.38253689377238       -0.23264534489586       -1.04594906971896
C            5.00849309641264        0.99675394460896       -1.19259300719921
C            6.29315910121910        1.20238400017670       -0.71763638370406
C            6.98243658653667        0.17997586077210       -0.07971276620123
O            8.23095871413115        0.26663681271363        0.41780523985169
C            8.93883754573083        1.47729053355265        0.28782981293539
C            6.34967359645151       -1.08441561237648        0.07756323511878
O            7.08953427388649       -2.02321408641793        0.70152009855461
C            6.56619306214967       -3.32000052221692        0.85971644728709
C            5.06193864684269       -1.26401062187285       -0.40406249613275
C            0.02666336756170       -1.33303606914904       -1.04812912494613
C           -4.39466163515935        3.09807521559752        0.38008829683198
C           -5.25191331707809        2.81515180393728        1.61317783734837
C           -3.93911069446200        4.55340699012197        0.39175619842152
H           -4.88626441194445        0.55038610275230       -1.54050100525827
H           -6.87782909262867       -0.60292568452913       -2.11205647899840
H           -6.83495395745716       -2.21627023749329       -2.86340692484753
H           -5.47436844664499       -1.09505718450647       -3.10533133843740
H           -4.81298301437660       -3.55817227403436        2.86221771449391
H           -4.90477035820622       -4.99494866019254        1.81594370967244
H           -3.35274144818029       -4.14639146523529        2.01251953628307
H           -3.24327980252143       -1.83128901892103        2.52168947174412
H           -0.68504045051896        0.65258894308846        0.45382058002928
H           -3.01131125016652        2.66118330730877       -1.77547064096389
H           -1.73771716912809        3.30510142151825       -0.73556491496226
H           -2.00451961686867        0.39330527398525       -1.58654550525665
H           -0.97959566265915        1.58567229551048       -2.38638711216493
H           -1.86055470421242        2.85995548465003        1.98482655121201
H            0.28799027983217        1.90725753558891       -0.26613971592329
H            2.08762526804976       -0.62959478930403        0.43535596860059
H            2.21527947765476        1.03199652766975       -0.16465019692299
H            2.79825932335982        0.16261351649508       -2.42552706270255
H            2.81705602459956       -1.48328542107824       -1.78298254285252
H            4.49416256849039        1.80354682571053       -1.69208473351391
H            6.75503602230268        2.16629905727141       -0.85455521869834
H            8.43073318387857        2.29566554454180        0.80649977184835
H            9.08409920762112        1.74494049932504       -0.76275156141549
H            9.90666577869171        1.30100396131781        0.75273707272592
H            7.34759962562880       -3.89180564500303        1.35606916993310
H            5.66801185172302       -3.31703646036740        1.48491572046960
H            6.33816271904184       -3.78052345178375       -0.10603527213479
H            4.57403911006474       -2.21982936855854       -0.29297067323889
H           -0.62904157271029       -1.39263652405460       -1.91680703312265
H           -0.56281021437646       -1.57694764882306       -0.15223025003321
H            0.80504587130393       -2.08212944353068       -1.16154741742586
H           -5.00869988372321        2.93148481045545       -0.51045565414270
H           -4.70189204249446        3.03596920450642        2.52538778864116
H           -5.57394616785199        1.77694576345395        1.64188347838765
H           -6.13869155090175        3.44318262019307        1.59425602210083
H           -3.25864876195618        4.74619565187000        1.21668171626683
H           -3.45327815793036        4.83282802324951       -0.53797979034467
H           -4.80714098851187        5.19591741506023        0.51775390793391
H           -2.10419026715819        0.61980077506276        3.03271978454692
72
 energy: -99.458467573069 gnorm: 0.025692098494 xtb: 6.6.1 (8d0f1dd)
N           -2.53469541135287        0.86468822285667        2.15477816918139
C           -2.42070051496806        2.05494038074452        1.55434061958833
C           -3.20207751182857        2.08383413629829        0.28577740985534
C           -3.73083435646319        0.67256172293504        0.25306398901401
C           -4.53074358300302        0.02599613371419       -0.66861058373446
C           -4.87638927631908       -1.30411533939076       -0.44716439241285
O           -5.64982393676970       -2.04619728649085       -1.26209604591071
C           -6.23158801822977       -1.44307340909631       -2.39526753942080
C           -4.40616640225496       -1.99025761779160        0.71399275020841
O           -4.80289432444365       -3.27356378254115        0.80729659533575
C           -4.43949685389598       -4.02203212915200        1.94418352773571
C           -3.61079569632228       -1.33393343353603        1.64098647199530
C           -3.29384394818308       -0.00322678808130        1.39578679108289
C           -2.33386951565831        2.42220021804083       -0.95518979232904
C           -1.41679614797935        1.29362749356360       -1.42837397985127
C           -0.28099880639699        0.98557809909736       -0.44679026696615
N            0.62217738934407       -0.01641344538592       -0.97633333615742
C            1.97271503952134        0.00789770512204       -0.46252529041969
C            2.98289672275055       -0.43432824961030       -1.53739529878730
C            4.38560114061787       -0.23197514873558       -1.04803851886107
C            5.01161182801154        0.99762441362554       -1.19335930801108
C            6.29601446817839        1.20310194218317       -0.71729640583044
C            6.98476137121963        0.18021497921991       -0.07949371007638
O            8.23305211544166        0.26654067645613        0.41872372482198
C            8.94122294303283        1.47703100631734        0.28807677374333
C            6.35180553025420       -1.08414779131352        0.07706779686842
O            7.09119200862983       -2.02294553725980        0.70161141034813
C            6.56681900314420       -3.31937233994447        0.86035122244776
C            5.06435808952129       -1.26363522977854       -0.40574130802734
C            0.02891184407048       -1.33002194513495       -1.05382375726583
C           -4.39311111633119        3.09865173420624        0.37836453815202
C           -5.25141796917464        2.81539813118246        1.61052692681092
C           -3.93640856200405        4.55361940353842        0.39123253293880
H           -4.88112150709680        0.54796970747191       -1.54322885661726
H           -6.87626867405749       -0.60477688472996       -2.11483348913016
H           -6.83369889247755       -2.21997256716969       -2.86194955093080
H           -5.47144660855332       -1.10068888164884       -3.10417023734422
H           -4.81549126491101       -3.56241290010545        2.86308788971535
H           -4.90456752382654       -4.99678957518589        1.81301188461709
H           -3.35423925133783       -4.14601263879767        2.01266826051936
H           -3.25211149642652       -1.82833085286005        2.52827179047515
H           -0.69405118744290        0.64110448153915        0.47963749301962
H           -3.01154799728568        2.66911905691594       -1.77343739543850
H           -1.73473183041181        3.30463147333238       -0.73140273712487
H           -2.00737402534422        0.39299331143228       -1.59002176563786
H           -0.98750318461393        1.58762427989785       -2.38979740592594
H           -1.85965813203613        2.85917015102925        1.98524451042536
H            0.28758824527350        1.90292997474881       -0.26914580323701
H            2.08546133093937       -0.63288282802827        0.42672804369284
H            2.21848087489761        1.02999279532475       -0.16747796980686
H            2.80483889516020        0.16414342446238       -2.43111855417496
H            2.82222957932925       -1.48239051612985       -1.78980331799700
H            4.49751808052181        1.80449298510228       -1.69284703452862
H            6.75788337455139        2.16727121293635       -0.85302348529813
H            8.43353125593561        2.29589651355837        0.80670531080424
H            9.08613493505318        1.74439178269333       -0.76279999308467
H            9.90929028095038        1.30066614251951        0.75266295148159
H            7.34786084803833       -3.89155636821628        1.35712036814560
H            5.66842623712810       -3.31550600162902        1.48555364793589
H            6.33850007448910       -3.78040398173383       -0.10531312920225
H            4.57618797335382       -2.21935995165605       -0.29560876760322
H           -0.63784896839540       -1.38966347544872       -1.91333893983551
H           -0.55087038258604       -1.57119370554892       -0.15071394732928
H            0.80407135498058       -2.08045441621367       -1.17623063272320
H           -5.00596810308621        2.93248249051498       -0.51306553079008
H           -4.70156743168112        3.03403901449075        2.52330809903269
H           -5.57551150179581        1.77785936619257        1.63768088187747
H           -6.13674264710403        3.44533819514521        1.59164209788263
H           -3.25862096048457        4.74622411166956        1.21837797055501
H           -3.44742812287683        4.83315784810091       -0.53679647335875
H           -4.80478204309258        5.19616322457762        0.51449182927687
H           -2.11882354873714        0.62460659800600        3.04253511440935
72
 energy: -99.458938991942 gnorm: 0.014714009606 xtb: 6.6.1 (8d0f1dd)
N           -2.55026026529733        0.86956720482247        2.16504427966027
C           -2.42656640796526        2.05610724681908        1.55916658048341
C           -3.20260191465959        2.08363598674954        0.28758434980357
C           -3.73280760588451        0.67296542234968        0.25503777095859
C           -4.52940363686614        0.02501977821540       -0.66861058853899
C           -4.87815352176719       -1.30391485933333       -0.44473863755153
O           -5.65111632590024       -2.04712304024269       -1.25895724812659
C           -6.22920943561145       -1.44706726407502       -2.39545207155036
C           -4.41169167023108       -1.98869276317616        0.71866795325100
O           -4.80645601480259       -3.27282109369062        0.80957292458500
C           -4.44176401696779       -4.02373791366759        1.94434698102399
C           -3.62185633768253       -1.33049154045491        1.64907111876005
C           -3.30461975026087       -0.00002501385758        1.40292057364257
C           -2.33260002098180        2.42201155025935       -0.95151005674927
C           -1.41980257929845        1.29016639610323       -1.42503961446330
C           -0.28041103227752        0.98072934213720       -0.44526181620184
N            0.62286929108270       -0.01415671137060       -0.98662201470671
C            1.97422910549609        0.00741394020571       -0.47052191226709
C            2.98641208086022       -0.43329208147923       -1.54390426067653
C            4.38818332119425       -0.23084152553823       -1.05073542999009
C            5.01475310930040        0.99885682212900       -1.19444804205741
C            6.29881371190741        1.20414365401180       -0.71697131262234
C            6.98703774048585        0.18078153039187       -0.07932313841325
O            8.23511994652719        0.26649829939632        0.41976304727515
C            8.94433188873718        1.47647577720866        0.28858012693599
C            6.35373379735599       -1.08352159149550        0.07605708351416
O            7.09268582018938       -2.02228776804108        0.70125069301455
C            6.56747836821202       -3.31841323071802        0.86078536237022
C            5.06666683874734       -1.26284407846780       -0.40839667479132
C            0.03194975735772       -1.32965267341849       -1.06130958022264
C           -4.39309886270153        3.09958118338492        0.37770437235789
C           -5.25387775765241        2.81698276753717        1.60804470935954
C           -3.93407046014063        4.55380279914631        0.39172950340957
H           -4.87410547707155        0.54478801391447       -1.54687805949354
H           -6.87363256149273       -0.60700639203246       -2.11950238186213
H           -6.83116398576965       -2.22489339446552       -2.86087750119912
H           -5.46687922004375       -1.10803877223970       -3.10360785563189
H           -4.81985072051377       -3.56854413488842        2.86461950675933
H           -4.90398741078041       -4.99941991178843        1.80929454992762
H           -3.35621847313802       -4.14487027407282        2.01321614470611
H           -3.26665896322731       -1.82353635219048        2.53852910865409
H           -0.69444819334683        0.63798397096593        0.49954636528340
H           -3.00799279801035        2.67474476667996       -1.76987707380686
H           -1.72910596067907        3.30062791602889       -0.72448890147618
H           -2.01202011634219        0.39112181916702       -1.59100449326070
H           -0.98408601536501        1.58377683980523       -2.38274846416566
H           -1.86105451245976        2.85869278390295        1.98738395327968
H            0.29001348376117        1.90180393631296       -0.28021509626107
H            2.08343878247418       -0.63547318131079        0.41778817103803
H            2.22058824284752        1.02864942488020       -0.17301326273653
H            2.81127736767420        0.16598182715829       -2.43765781645081
H            2.82749988776171       -1.48116334181080       -1.79804714489864
H            4.50127735240941        1.80605804118853       -1.69390333784766
H            6.76078134118444        2.16853710186625       -0.85129925567794
H            8.43763378612162        2.29608550913639        0.80737262644554
H            9.08898334473981        1.74364751617918       -0.76256558061395
H            9.91265548664635        1.29953821430897        0.75271074387077
H            7.34813889965526       -3.89089899016425        1.35813174270599
H            5.66882450818922       -3.31355443045956        1.48594262930957
H            6.33895439517978       -3.78012690034246       -0.10472517068931
H            4.57856346023894       -2.21868967187632       -0.29961388087371
H           -0.64789775141626       -1.38714180539526       -1.91067992225064
H           -0.53520164207239       -1.57323270886007       -0.15030912835980
H            0.80450349862279       -2.08041692007093       -1.19758390466180
H           -5.00395219337194        2.93422838693486       -0.51522782436498
H           -4.70401709266259        3.03241993434141        2.52158172753913
H           -5.58053202044597        1.78020923350767        1.63282777842690
H           -6.13730166281665        3.44951241522995        1.58913072133864
H           -3.25969101306542        4.74582993013552        1.22181301334145
H           -3.44043196436955        4.83263226060958       -0.53406712064741
H           -4.80223852714022        5.19742364420049        0.51078851312041
H           -2.13804712531011        0.63099666609123        3.05495569282111
72
 energy: -99.459171969631 gnorm: 0.005710133410 xtb: 6.6.1 (8d0f1dd)
N           -2.56364911139673        0.87329164055879        2.17416403458210
C           -2.43211740935356        2.05671569934213        1.56442694507444
C           -3.20368137332339        2.08313580361938        0.29033517114248
C           -3.73625331191792        0.67333828279082        0.25841036115990
C           -4.52928547532527        0.02404237339849       -0.66752766846827
C           -4.88066905083728       -1.30386259487371       -0.44185323830437
O           -5.65188332806399       -2.04831461445706       -1.25651801246166
C           -6.22589322875430       -1.45121873805937       -2.39662512336408
C           -4.41885722863549       -1.98704028066125        0.72439808572222
O           -4.81148838951712       -3.27194644381780        0.81278637283048
C           -4.44490851221662       -4.02534803113144        1.94530919120244
C           -3.63489077293409       -1.32681203101846        1.65835894998217
C           -3.31581948737200        0.00296080707040        1.41068200406135
C           -2.33019237881499        2.42013758207445       -0.94609789789219
C           -1.42042032846447        1.28732878469557       -1.42132928280350
C           -0.27418912520591        0.98079918572353       -0.45085225132670
N            0.62484102541209       -0.01414563144217       -0.99579680862451
C            1.97590504843617        0.00597674545225       -0.47679235538239
C            2.98932666018942       -0.43235098575404       -1.54933511440969