25
 energy: -43.834319427561 gnorm: 0.071501704383 xtb: 6.6.1 (8d0f1dd)
C            3.25927229674739        1.16429690465223        0.09205865776020
N            2.31755526602266        0.08921443387975        0.03809633848884
C            2.60073003904935       -1.23381048276256        0.02489221530899
N            1.43182870341564       -1.95576915229987       -0.01649944938698
C            0.41473792988347       -1.06461467859677       -0.00321311865108
C            0.92776830890104        0.22385814109039        0.04099011629925
C            0.09837066339382        1.38250493232690        0.02113400588787
O            0.50094592078564        2.55479055018652        0.03369961378363
N           -1.30537144933949        1.07151466850345       -0.01088472605794
C           -2.30770439870411        2.21199612355485       -0.09472608864623
C           -1.82317067576740       -0.19785584050067       -0.01937555267740
O           -3.01969315673283       -0.40387595815649       -0.04042109360986
N           -0.92657794600846       -1.29733872064226       -0.00737062048846
C           -1.44813102790556       -2.65263354585694       -0.05356845917865
H            3.74994119308379        1.19592758429941        1.07295136890351
H            4.02738313350600        1.03037132083996       -0.67544490966581
H            2.72600399038284        2.08535703231715       -0.06178093519196
H            3.58544911666221       -1.66552753842518        0.02942532536055
H           -1.74113507642143        3.14081580522715       -0.05902772506138
H           -2.88850175600934        2.16117683306571       -0.97999342914051
H           -2.94040386713935        2.14008250683084        0.78562518217829
H           -1.13203105791990       -3.21372445911146        0.82821341082350
H           -1.11986551003586       -3.17804719997400       -0.95487488974546
H           -2.53355872945215       -2.57670329853767       -0.05548162332527
H            1.36348695713912       -2.95819204874937       -0.04413161991986
25
 energy: -43.836468753291 gnorm: 0.031068115882 xtb: 6.6.1 (8d0f1dd)
C            3.25906636520574        1.17007760320725        0.09576376578741
N            2.31270501247250        0.10112406621850        0.03679343265027
C            2.60128121206951       -1.23873738987926        0.02314296774368
N            1.42014454640863       -1.94365013270492       -0.01275701927544
C            0.40404608262938       -1.05530494237749       -0.00305699755278
C            0.91965497403893        0.23281522292464        0.03472284969395
C            0.09662781378218        1.38723046516737        0.01490125079689
O            0.48225179974800        2.56371982777232        0.02820156149298
N           -1.29978324254997        1.06023781957798       -0.01881308872553
C           -2.27329935869909        2.18034270540008       -0.07664021377072
C           -1.83089248188892       -0.19672431546013       -0.02874008255620
O           -3.02781579556495       -0.40298851547374       -0.04447874340504
N           -0.93737591180528       -1.29209645854947       -0.01099691048165
C           -1.45488125182529       -2.64313434841437       -0.05090012868043
H            3.75291917429436        1.20074136816005        1.07409860238311
H            4.02392499941985        1.03879263789732       -0.67430178825139
H            2.72082558275675        2.09826712693854       -0.06064505557398
H            3.57772249340403       -1.67146705145520        0.02606553614881
H           -1.69731957495632        3.10349526757198       -0.05204028125191
H           -2.85788206816400        2.11989105380165       -0.98230327600760
H           -2.92768014904628        2.12255397368944        0.79124058364182
H           -1.13400045100915       -3.20313374383821        0.83084792022560
H           -1.12106703595366       -3.16201406536143       -0.95341581998744
H           -2.54076959190949       -2.57027494752374       -0.05659014883061
H            1.34892572467961       -2.94594931412811       -0.03980692216606
25
 energy: -43.837695380259 gnorm: 0.010869532379 xtb: 6.6.1 (8d0f1dd)
C            3.26472696849196        1.16148168293370        0.09577160131319
N            2.31352102482445        0.10006355461671        0.03767073074627
C            2.60936264747713       -1.24848248153245        0.02469035295075
N            1.42267191617939       -1.94492373839650       -0.01385297596802
C            0.40526892214873       -1.05794668564419       -0.00098223860499
C            0.91846088623314        0.23100187709909        0.03708503642221
C            0.09933909761283        1.38754199338421        0.02149095119087
O            0.48720228033792        2.56131023288272        0.03545055931067
N           -1.30218986367009        1.06886698837954       -0.02161650898719
C           -2.27450837874821        2.18269921671930       -0.07716781702221
C           -1.82892010273895       -0.19050033926030       -0.02287744616746
O           -3.02443128500066       -0.40255048466074       -0.03906886614095
N           -0.93677457058431       -1.29117319096227       -0.01016283724906
C           -1.44790593927398       -2.64468847663904       -0.05141769799427
H            3.75623760492334        1.19348710767099        1.07388011777149
H            4.02805534497113        1.02745695019831       -0.67505345329447
H            2.72563339214618        2.09272893779813       -0.06511212655351
H            3.58399286825787       -1.67415238367198        0.02876625480165
H           -1.73481739223792        3.12881322396951       -0.05892615407411
H           -2.88406782742529        2.13955323317219       -0.98230735974270
H           -2.94388236138005        2.13723796651085        0.78173609771160
H           -1.12599746651310       -3.21003338172849        0.82730589716893
H           -1.11598491742713       -3.16737855453455       -0.95348017186444
H           -2.53368561732173       -2.57783749698538       -0.05581499800846
H            1.35602163625441       -2.94876183815832       -0.04571495366802
25
 energy: -43.837578659566 gnorm: 0.009952606291 xtb: 6.6.1 (8d0f1dd)
C            3.25708092097011        1.16640011812695        0.09545703547756
N            2.31162870658256        0.10009429654084        0.03560791472812
C            2.61116289141236       -1.24708736708074        0.02366628136086
N            1.42741749072139       -1.94908460464569       -0.01277068207418
C            0.40802484572526       -1.06555078905581       -0.00193738695505
C            0.91831319739041        0.22470505062265        0.03552165903135
C            0.10130950622639        1.38219772253958        0.01894374852205
O            0.49298102731313        2.55397931500780        0.02869114633074
N           -1.30329873567880        1.06827921572960       -0.02213971096165
C           -2.26976901705965        2.18692793986226       -0.07793494688927
C           -1.82656371961629       -0.19397112637107       -0.02286055285809
O           -3.02144989723413       -0.40835087008553       -0.04211510537546
N           -0.93443287684045       -1.29712039279602       -0.01186285435370
C           -1.45345104502608       -2.64813926215994       -0.05204313063190
H            3.74569474998191        1.20203035783238        1.07430061805871
H            4.02192092399657        1.04188866669857       -0.67540276823792
H            2.71485364840757        2.09463836545729       -0.06088525879002
H            3.58887273025222       -1.66392371306166        0.02849944210169
H           -1.72007802682361        3.12715833503445       -0.05518245297381
H           -2.88154042297347        2.15872356538197       -0.98132950494201
H           -2.93261093630920        2.13627862015311        0.78587671928439
H           -1.14013375108862       -3.21213551005855        0.83047060192945
H           -1.12637218001275       -3.17798138308129       -0.95244819184371
H           -2.53888027090456       -2.57188206311395       -0.05710958116246
H            1.36664910812480       -2.95426057431615       -0.04072104472791
25
 energy: -43.837851655529 gnorm: 0.003727128561 xtb: 6.6.1 (8d0f1dd)
C            3.26241919758752        1.16289335509714        0.09508408016091
N            2.31161888889164        0.10091100822249        0.03641951919174
C            2.60670354034576       -1.24616678872785        0.02370597468787
N            1.42255823192216       -1.94622491772087       -0.01374733201084
C            0.40643073601043       -1.06093030860857       -0.00125566548611
C            0.91852520253515        0.22874229360280        0.03725364218246
C            0.10012843475054        1.38610300501233        0.02151778408650
O            0.48993418706866        2.55867377361084        0.03224200549989
N           -1.30532688277257        1.07037769926176       -0.01780121754898
C           -2.27593844018523        2.18382230845554       -0.07935698771049
C           -1.82825446751838       -0.19174750995324       -0.02063520322286
O           -3.02325506878358       -0.40608573196123       -0.04049308890415
N           -0.93507724139861       -1.29338438041548       -0.01051771997638
C           -1.45039586774824       -2.64526446243271       -0.05242531843412
H            3.75293596912333        1.19628889148130        1.07325914231218
H            4.02647228589704        1.03255132107132       -0.67561205613384
H            2.72681325230020        2.09380625911250       -0.06158252936029
H            3.58356459490603       -1.66592268695594        0.02771988671367
H           -1.72475067293951        3.12323824280105       -0.05912599632091
H           -2.88020706812498        2.14387092700050       -0.98449286414032
H           -2.93853742760072        2.13135935938128        0.78482539139549
H           -1.13183500522627       -3.20837972577382        0.82871502596777
H           -1.12002036489312       -3.16959598224136       -0.95469863835115
H           -2.53630676458370       -2.57401283592982       -0.05602749061820
H            1.35912961797352       -2.95110920022889       -0.04267834993206
25
 energy: -43.837841985334 gnorm: 0.003537734075 xtb: 6.6.1 (8d0f1dd)
C            3.26121264461924        1.16297159756678        0.09563566971102
N            2.31229675105359        0.09987898239077        0.03713989495073
C            2.60738507628241       -1.24829682514586        0.02528504180739
N            1.42198353436280       -1.94616289174301       -0.01411658514230
C            0.40628804728002       -1.06057664535102       -0.00258012857364
C            0.91907153591210        0.22879537441939        0.03522331489358
C            0.10115859274759        1.38622857470822        0.01779829491451
O            0.48911992578161        2.55940125341761        0.03213487650965
N           -1.30453461775399        1.07026882219374       -0.02143187610273
C           -2.27412803136981        2.18458950894829       -0.07626032131105
C           -1.82827764151996       -0.19111260010099       -0.02619264664129
O           -3.02365607942067       -0.40427851383071       -0.04236374078826
N           -0.93535140590398       -1.29306240991304       -0.01237225449972
C           -1.44899729951570       -2.64578946535487       -0.05112422073694
H            3.75126291997343        1.19831789219393        1.07431697157003
H            4.02579229588816        1.03224796800659       -0.67436965484176
H            2.72150946813099        2.09193728758178       -0.06453165382176
H            3.58373452031689       -1.67044937592040        0.03027212128427
H           -1.72664174737709        3.12651862855164       -0.05599328651260
H           -2.88015490703912        2.14341502523011       -0.98029230812888
H           -2.93862503638791        2.13632924330630        0.78664151882756
H           -1.12883475919548       -3.20891481198891        0.82959874676139
H           -1.11715993203678       -3.17026791516224       -0.95236357753684
H           -2.53505412885777       -2.57742602104277       -0.05575755274492
H            1.35792914156650       -2.95074876980029       -0.04400464979965
25
 energy: -43.837867428872 gnorm: 0.001793457183 xtb: 6.6.1 (8d0f1dd)
C            3.26168860988587        1.16359275700961        0.09554010129023
N            2.31260636049602        0.10053854926817        0.03715239533842
C            2.60833184471350       -1.24758440258846        0.02391547586881
N            1.42314173967867       -1.94600761840979       -0.01360302300652
C            0.40684445764191       -1.06113834677303       -0.00071972249104
C            0.91928447220933        0.22853417340257        0.03736817870850
C            0.10127474044723        1.38567807293056        0.02082255334519
O            0.48882799685973        2.55891349121217        0.03311728526733
N           -1.30471420581164        1.06959976192667       -0.01961858771998
C           -2.27397541126200        2.18365605903681       -0.07880858677328
C           -1.82802733757866       -0.19186480604459       -0.02236052233212
O           -3.02329803820043       -0.40549395356917       -0.03984031981059
N           -0.93497285591313       -1.29373178316893       -0.01016659356967
C           -1.45072414995045       -2.64556622070878       -0.05165240342912
H            3.75323364242332        1.19690710595500        1.07350449939318
H            4.02528459841563        1.03391567987504       -0.67569490093294
H            2.72260332111129        2.09338803911655       -0.06203092126425
H            3.58511637594151       -1.66861064269322        0.02686462822102
H           -1.72641039962885        3.12555914552664       -0.05831518561001
H           -2.87963303167784        2.14326925152558       -0.98336059002867
H           -2.93943811583668        2.13568914669215        0.78339017603712
H           -1.13246888545288       -3.21078925345277        0.82834539002190
H           -1.12077338054237       -3.16966760302128       -0.95389849466099
H           -2.53659406412791       -2.57425728369528       -0.05621510018669
H            1.36012058369590       -2.95071540619116       -0.04344373762807
25
 energy: -43.837833098735 gnorm: 0.003942750762 xtb: 6.6.1 (8d0f1dd)
C            3.26251217289321        1.16281310044555        0.09483129526280
N            2.31145700762155        0.10120471367461        0.03558255667416
C            2.60656771046937       -1.24637640387437        0.02459811372551
N            1.42216994915235       -1.94580081406346       -0.01366220692211
C            0.40613550653201       -1.06094280968681       -0.00253505756415
C            0.91835891806043        0.22889490295160        0.03555844515006
C            0.10070808234258        1.38599518081072        0.01941515772137
O            0.48924549877794        2.55877186455801        0.02989456958798
N           -1.30604747874046        1.07012475310202       -0.01999992344401
C           -2.27577638200325        2.18376283153850       -0.07837166704740
C           -1.82865630598787       -0.19183211407381       -0.02215029797106
O           -3.02368874852882       -0.40622783445701       -0.04196861653901
N           -0.93527715597971       -1.29355695064477       -0.01203402707299
C           -1.45009673099714       -2.64557967138096       -0.05269611555701
H            3.75128138598786        1.19600578068528        1.07394822267592
H            4.02804614217168        1.03112290313976       -0.67425225896602
H            2.72812484875431        2.09439877517378       -0.06339287732786
H            3.58364071698071       -1.66563217474374        0.03072581545256
H           -1.72455325175877        3.12330943480015       -0.05644037608481
H           -2.88334667612253        2.14808331841419       -0.98172998963518
H           -2.93642934646478        2.12942367528640        0.78707556116171
H           -1.13128483166883       -3.20685548869041        0.82946518531725
H           -1.11950064197093       -3.17174338328695       -0.95392560587448
H           -2.53597587201607       -2.57467484034502       -0.05642381452187
H            1.35971435003223       -2.95087483617220       -0.04122009415359
25
 energy: -43.837869377941 gnorm: 0.001591242784 xtb: 6.6.1 (8d0f1dd)
C            3.26153195876175        1.16304615739595        0.09517592033704
N            2.31167520799489        0.10053922142977        0.03637391104048
C            2.60683461389735       -1.24724729372555        0.02430527966998
N            1.42208882372281       -1.94614005551531       -0.01414347359637
C            0.40619142002870       -1.06110047324346       -0.00202120401780
C            0.91861976243529        0.22857786755297        0.03638339534956
C            0.10131175366415        1.38590238167174        0.02032315581575
O            0.48972419393340        2.55873172171938        0.03204933773204
N           -1.30543493533616        1.07020458497453       -0.01942981275500
C           -2.27485853656688        2.18411639864597       -0.07844733854847
C           -1.82837771456549       -0.19153386390141       -0.02246957015051
O           -3.02352171142879       -0.40545168355610       -0.04155248306884
N           -0.93526640477833       -1.29351048782318       -0.01143532886249
C           -1.44980370748478       -2.64569545337178       -0.05203736692834
H            3.75143252969937        1.19715445873674        1.07380089264334
H            4.02615020912052        1.03260587375847       -0.67497757397480
H            2.72456807150587        2.09338419672481       -0.06287996854113
H            3.58375336065655       -1.66726955869199        0.02915719586558
H           -1.72484144596665        3.12450625050177       -0.05769827074751
H           -2.88084256563086        2.14557602607647       -0.98258919965907
H           -2.93774847792616        2.13295220053024        0.78565359566311
H           -1.13055770860568       -3.20809256081435        0.82933641863332
H           -1.11885727468137       -3.17079689464228       -0.95359260656487
H           -2.53572958492368       -2.57555308844514       -0.05592123834981
H            1.35928703001123       -2.95109201282722       -0.04307167293740
25
 energy: -43.837835683618 gnorm: 0.003881253874 xtb: 6.6.1 (8d0f1dd)
C            3.26298135921480        1.16347513157526        0.09572191885660
N            2.31364156419124        0.10065147313125        0.03743034656056
C            2.60926412553120       -1.24768410467428        0.02491335077061
N            1.42382859213089       -1.94561568774385       -0.01216480557700
C            0.40745802631011       -1.06088240038459       -0.00063505977468
C            0.91998431388997        0.22902901046913        0.03617531112437
C            0.10177846750617        1.38594373038283        0.01768195149564
O            0.48778382479046        2.55964547288702        0.03029627830668
N           -1.30472576304313        1.06934273248289       -0.02130880471065
C           -2.27482044682724        2.18295531747218       -0.07707706141405
C           -1.82762876294357       -0.19196910907144       -0.02445285139559
O           -3.02291807872250       -0.40591857766617       -0.03960681078477
N           -0.93447120185053       -1.29363750909960       -0.01056951703987
C           -1.45161556714454       -2.64505594543838       -0.05183082021372
H            3.75495706773150        1.19682976279706        1.07361151793439
H            4.02667815668035        1.03313113575066       -0.67528917666192
H            2.72365999246917        2.09318543445470       -0.06266192654325
H            3.58606367527285       -1.66917460666989        0.02780907295132
H           -1.72930859221915        3.12616031777019       -0.05622637593357
H           -2.88090859510851        2.14155962797876       -0.98118602528434
H           -2.94060073179327        2.13539904206171        0.78491060476197
H           -1.13484317492324       -3.21219000117204        0.82755705753814
H           -1.12246103932751       -3.16880063952757       -0.95437619353640
H           -2.53741470327247       -2.57227203708499       -0.05720053515545
H            1.36096635899400       -2.95029365751981       -0.04122945222725
25
 energy: -43.822259470388 gnorm: 0.103408766309 xtb: 6.6.1 (8d0f1dd)
C            3.27894852961248        1.15263483462455        0.10002569859423
N            2.33990316151263        0.08899687381888        0.03416307297443
C            2.61865789765502       -1.25380626960810        0.01555072174663
N            1.42638831282299       -1.96570561296798       -0.04346451805182
C            0.43728927310481       -1.06856576542135        0.00777029685367
C            0.92101846247977        0.23033736492624        0.06694151444788
C            0.09168789902878        1.37139605966937        0.05230540602753
O            0.48949595414315        2.55252598688105        0.07767932751976
N           -1.35659351994256        1.09562961970476        0.00672631759099
C           -2.39105462402780        2.27099166109027       -0.14660252089439
C           -1.82875813399846       -0.19252478037125        0.00794631216212
O           -3.02493194465554       -0.42891755099770       -0.00213649550268
N           -0.92283733594160       -1.28660037798961        0.02117120405559
C           -1.42623458653487       -2.65646854694117       -0.04553737509100
H            3.78403688717117        1.17004722530229        1.07761208218587
H            4.04567525849020        1.02236800507695       -0.67530407454833
H            2.75513068686092        2.07621442934040       -0.03314757333582
H            3.59849819209618       -1.69165247407925        0.00715236445812
H           -1.80757129882548        3.18879670484898       -0.09900845249752
H           -2.94821702763873        2.22128920731199       -1.02612097418000
H           -3.00350686391604        2.20098154156520        0.75142192145243
H           -1.09136289980102       -3.22668984299279        0.82510621705610
H           -1.09411250309385       -3.17415844949930       -0.95291783819037
H           -2.51371060589581       -2.59819610305864       -0.03558014637633
H            1.35767233603795       -2.96601255250965       -0.08173799074136
25
 energy: -43.828325273463 gnorm: 0.043686402543 xtb: 6.6.1 (8d0f1dd)
C            3.27486685785806        1.15638995845222        0.10451676389936
N            2.32104512369781        0.09974170235924        0.03433760121488
C            2.60515958677874       -1.24789925724952        0.01240756435033
N            1.41482323651456       -1.94694673223819       -0.03513950093414
C            0.41304649678394       -1.05528287251205        0.00518849974851
C            0.91085091965221        0.23973670702361        0.05661381326343
C            0.08850066267813        1.38699544409498        0.03981523341656
O            0.47131298232881        2.56417751156166        0.06936247182722
N           -1.33603322110212        1.07831289188250       -0.00889623399679
C           -2.32852867144776        2.21832453340167       -0.11171299764251
C           -1.83892646290967       -0.19161294560855       -0.00803887313097
O           -3.03353021076036       -0.42181795589615       -0.01039440004157
N           -0.93706956072463       -1.28167462591243        0.01305687362561
C           -1.43597630927607       -2.64380609276364       -0.04130939822291
H            3.78219967799750        1.17247011174279        1.07867977235545
H            4.03739233516177        1.03008423172905       -0.67199563222280
H            2.74805679830684        2.09164032599064       -0.03393377341538
H            3.57980653811637       -1.68457786918111        0.00074338539470
H           -1.75258855660026        3.14177172859668       -0.08687336911850
H           -2.89489277339859        2.15102275184909       -1.02181030314923
H           -2.98535947016676        2.17613908219233        0.75656990566596
H           -1.09575195945820       -3.21051213688048        0.82962375935345
H           -1.09841884914866       -3.14947000397733       -0.95122110163336
H           -2.52256892920948       -2.59091894800984       -0.03672595080808
H            1.34809526507212       -2.94937635292306       -0.07284961208348
25
 energy: -43.830553134293 gnorm: 0.016387290236 xtb: 6.6.1 (8d0f1dd)
C            3.28468779330194        1.14469500613378        0.10458135938246
N            2.32050696806352        0.09387365674065        0.03764144063825
C            2.61210451414584       -1.25772915977701        0.01390262158757
N            1.42184201922016       -1.94781936259682       -0.03663865591722
C            0.41088568076807       -1.05747055010276        0.00789665136938
C            0.91409840506853        0.23504624037782        0.06140857422714
C            0.08686694400678        1.38917936179746        0.05111707607099
O            0.47298872175986        2.55959345930986        0.08058696477913
N           -1.33688873918073        1.08827732809760       -0.01614121597357
C           -2.32680842278605        2.21717635641050       -0.11432861170283
C           -1.83863627711730       -0.18477525316943        0.00357232014970
O           -3.02932916032642       -0.42256943884920       -0.00072923275426
N           -0.93437286311393       -1.28099339403215        0.01523415801371
C           -1.42569514455188       -2.64513605154057       -0.04159197532108
H            3.79033788889407        1.16380699106847        1.07721902084562
H            4.04339164213934        1.01851716536165       -0.67421521762474
H            2.75565951342143        2.08430564273332       -0.03732083311323
H            3.58679349168916       -1.69132815171342        0.00504791890022
H           -1.79944201524087        3.17276322049345       -0.09884059493486
H           -2.93711620482651        2.18593259176258       -1.02263469951773
H           -3.00477029611777        2.19513556921722        0.74010732409240
H           -1.08542921091197       -3.21931244921682        0.82475130024350
H           -1.09111529171848       -3.15602975931229       -0.95057656845125
H           -2.51164941818711       -2.59955050504397       -0.03602329074582
H            1.35660096834462       -2.95267732642579       -0.08401133652777
25
 energy: -43.830524798760 gnorm: 0.012264729742 xtb: 6.6.1 (8d0f1dd)
C            3.27693333164343        1.15389711455892        0.10346060799469
N            2.32228838008210        0.09471766050601        0.03364737873194
C            2.61822943034001       -1.25783582431295        0.01200997898499
N            1.42826631956393       -1.95344225825017       -0.03451171389863
C            0.41553537162177       -1.06486411195483        0.00677531853813
C            0.91732732803983        0.22806709983534        0.05722053385161
C            0.08698174300421        1.38224267799560        0.04689846590809
O            0.47974393839336        2.55169985552018        0.07038343669055
N           -1.34146285271816        1.08946936853884       -0.01225737338189
C           -2.32452161350605        2.22392287389193       -0.11395557831213
C           -1.83767760156093       -0.18789275963824        0.00273092499379
O           -3.02739662324303       -0.43042896162391       -0.00519908321944
N           -0.93090797788146       -1.28701645408383        0.01279373074195
C           -1.43300507463454       -2.64855068833435       -0.04317451634743
H            3.77548200839117        1.17770357587690        1.07889509168890
H            4.03825349622004        1.03614191179172       -0.67389466449102
H            2.74128914589779        2.08810265989194       -0.03520594045456
H            3.59573544612484       -1.68568777897931        0.00657735403388
H           -1.77713459513871        3.16631954230687       -0.09242098637241
H           -2.93245686396458        2.20905058793926       -1.02334891953155
H           -2.99300743946059        2.19004369588330        0.74784138771919
H           -1.10241408502092       -3.22181721845479        0.82770617529635
H           -1.10345407330811       -3.16995422871662       -0.94948465536394
H           -2.51945725478414       -2.59187404260206       -0.03805419095476
H            1.36234162264304       -2.95910310986161       -0.07541826513058
25
 energy: -43.830876202979 gnorm: 0.006997546996 xtb: 6.6.1 (8d0f1dd)
C            3.28319462551751        1.15024134848246        0.10383984435186
N            2.32263521704295        0.09688656196810        0.03494851911636
C            2.61377894739286       -1.25674185909327        0.01092288037854
N            1.42226505404240       -1.95013840128352       -0.03662556311835
C            0.41406164156039       -1.05908099421982        0.00802462286748
C            0.91790290092419        0.23313387433011        0.05958187131083
C            0.08559952091866        1.38675362943732        0.05019900930899
O            0.47836124656726        2.55761770848204        0.07553257282985
N           -1.34477101170490        1.09359432333815       -0.00490092734806
C           -2.33323505056115        2.22062960262564       -0.11603686224046
C           -1.83985082611586       -0.18415092180684        0.00473993640988
O           -3.02976443033556       -0.42708447822171       -0.00385013129482
N           -0.93167505738441       -1.28245831342375        0.01490060867599
C           -1.42947838405873       -2.64505703571647       -0.04319465663422
H            3.78493349740511        1.16803965065374        1.07785880026604
H            4.04192763850748        1.02404394273465       -0.67460420975528
H            2.75559099007641        2.08752613876672       -0.03310629723301
H            3.58972147092669       -1.68728294478822        0.00382390217563
H           -1.78394473056738        3.16220758862152       -0.09994182471577
H           -2.92856051325219        2.18557922797563       -1.02839185820402