25
 energy: -42.167538758776 gnorm: 0.045312361470 xtb: 6.6.1 (8d0f1dd)
C            3.91824139844149        0.45291668835661        0.16045791411210
N            2.77004306278008       -0.22790305320841        0.05180134962125
C            2.67142402804135       -1.57779427987029       -0.02933336910879
N            1.35440062069367       -1.95044662442087       -0.08425196492642
C            0.60201224926659       -0.82880299761356       -0.04788918169404
C            1.46460225450627        0.27490359704850        0.00892079703008
C            0.90356857256032        1.57325462151573       -0.04615123304751
O            1.71438590746786        2.65635733251555       -0.12816052167882
N           -0.46141473564838        1.65205956178707       -0.02650773538315
C           -3.84379112092116        1.22963018753818        0.10904808034284
C           -1.26911424974045        0.61382748982000       -0.00885424593627
O           -2.58906273609703        0.48052640539477        0.01393557442219
N           -0.74736954842039       -0.70866082611349       -0.05549702540884
C           -1.54454204918179       -1.91902468735921       -0.06680070990161
H            3.92977381935073        1.47815975270645        0.46520466425614
H            4.83235618083562       -0.10568880513857        0.15631957558652
H            2.59014164551947        2.41328871249939       -0.44943305049267
H            3.49732949714261       -2.25363201149372       -0.02420373677654
H           -3.67290127943676        2.30547337161751        0.09579898140982
H           -4.43337969250637        0.92217289745456       -0.75306302887424
H           -4.31265793623204        0.91957625477469        1.03944657216230
H           -1.28224117738750       -2.54054815391357        0.79099548817665
H           -1.36886292233774       -2.47245143113648       -0.99109890046515
H           -2.59717524919410       -1.66571861509713       -0.00631411911692
H            1.03466497459711       -2.90323684606454       -0.14319855640921
25
 energy: -42.176814920759 gnorm: 0.026481330801 xtb: 6.6.1 (8d0f1dd)
C            3.91404924384633        0.45623558266624        0.16325625814793
N            2.76620983815772       -0.22649358913515        0.05387317829878
C            2.67644975996082       -1.57769437676962       -0.02896459949462
N            1.36281634906503       -1.96077486555466       -0.08352470603748
C            0.60363314383665       -0.84605777263940       -0.04555524730141
C            1.45455659877722        0.26645272383732        0.01278434323876
C            0.86033306900552        1.55205154350788       -0.04325872128802
O            1.59733388182685        2.66903079265626       -0.13589223979491
N           -0.49149113939675        1.62048667171806       -0.02537164158411
C           -3.76944387521811        1.27445428580479        0.10639291695975
C           -1.27282610229525        0.57660731609538       -0.00926201866024
O           -2.57981794309200        0.45349433452255        0.01012868024015
N           -0.74509981684591       -0.73733203041911       -0.05447569316239
C           -1.54455759194237       -1.94293167698058       -0.06869140502400
H            3.92839454083965        1.47901079958535        0.47470472998428
H            4.82881020000578       -0.10220510962045        0.15610000080959
H            2.49245395655138        2.46892969429597       -0.44957755821086
H            3.50632505205643       -2.24893330167368       -0.02502180739586
H           -3.58043499902844        2.34453272927738        0.09339566286053
H           -4.38432659062043        0.97695786673608       -0.74402867274939
H           -4.26172267140968        0.97357858717163        1.03131648693305
H           -1.28495581009671       -2.56269452483875        0.79075303898170
H           -1.36872304201059       -2.49212282611831       -0.99489702308443
H           -2.59576059582648       -1.68140221582880       -0.00936737012307
H            1.04822605795287       -2.91494209669664       -0.14364497464349
25
 energy: -42.184405349663 gnorm: 0.021724537150 xtb: 6.6.1 (8d0f1dd)
C            3.89569045945250        0.47469930782341        0.15912068959377
N            2.75714670135956       -0.22292190332797        0.05601202118486
C            2.68504465044502       -1.57644380263532       -0.02470821561686
N            1.37610343651913       -1.97732012673211       -0.08098696935365
C            0.60455938236108       -0.87292382744961       -0.04221550702655
C            1.43919834814785        0.25272802261226        0.01646760761591
C            0.80926813987307        1.52162231576350       -0.04376142315689
O            1.46397306638279        2.67518004797809       -0.13874997456402
N           -0.53199981586760        1.57677209954775       -0.02765327290448
C           -3.67488431279140        1.33296194495506        0.10265101700531
C           -1.28415290778459        0.51988105174301       -0.01158932881928
O           -2.58084297907738        0.41082036073054        0.00379821209737
N           -0.74518555527321       -0.78221358679947       -0.05335665109023
C           -1.54543520329150       -1.98501212708692       -0.07178166981286
H            3.89365566084708        1.50696355435718        0.44222302658496
H            4.81778196280197       -0.07369819561095        0.15721756804578
H            2.39549726601521        2.52584789999114       -0.39955217894645
H            3.52261738849645       -2.23827852576212       -0.02315158429797
H           -3.41492291727450        2.38785694910222        0.08748095383542
H           -4.33419468668811        1.07744469398007       -0.73567296356425
H           -4.20309733613135        1.07156961695259        1.02720557829030
H           -1.29041103304708       -2.60522952146549        0.78807817743095
H           -1.37001891228777       -2.53124086614474       -0.99906797696625
H           -2.59529166030140       -1.71671745178706       -0.01415734391838
H            1.07033237121363       -2.93410938913612       -0.14267817374696
25
 energy: -42.189535835618 gnorm: 0.027775096124 xtb: 6.6.1 (8d0f1dd)
C            3.87520191007614        0.49668496598490        0.15484598588394
N            2.74667486738837       -0.21622017231768        0.05531002787540
C            2.69381931203108       -1.57144571242851       -0.02208573270318
N            1.39009473344994       -1.99154649181575       -0.07791697079220
C            0.60322354425458       -0.89835454262512       -0.03967350023281
C            1.42250778478396        0.24225883243021        0.01811252151232
C            0.76641256653946        1.49805989679846       -0.04019012835586
O            1.36064039778775        2.68049220966634       -0.13614763047007
N           -0.57370905157760        1.53123110076703       -0.02311030435402
C           -3.60007057334314        1.38895724488375        0.09941385465452
C           -1.30357699571257        0.45883645947954       -0.01145461663136
O           -2.59971293982632        0.36601838008533       -0.00109406906245
N           -0.74962492928365       -0.83035906396187       -0.05186033979695
C           -1.54517862124341       -2.03592233848251       -0.07565186894290
H            3.85666004819166        1.53653494157298        0.41020432152073
H            4.80459400387616       -0.03890656716191        0.15923046580728
H            2.31093743974264        2.57865905884957       -0.36011034603277
H            3.54016186700042       -2.22223583281730       -0.02134242750778
H           -3.22966314725717        2.42029482644367        0.07843436396892
H           -4.29464844715032        1.19647178639013       -0.73388669542592
H           -4.15337212552690        1.18627733493858        1.02963142023139
H           -1.29287146204404       -2.65856548652635        0.78306598201825
H           -1.36847367225032       -2.57978151656314       -1.00390895432823
H           -2.59519216620746       -1.76711425400347       -0.01964236397026
H            1.09559717040014       -2.95208651798884       -0.13900137696723
25
 energy: -42.193664607601 gnorm: 0.024399879101 xtb: 6.6.1 (8d0f1dd)
C            3.84902488992839        0.52213676230279        0.14980210222085
N            2.73184695510671       -0.20727891509364        0.05262928546555
C            2.69941088198479       -1.56349404338914       -0.02023708106119
N            1.40157841071842       -2.00288853472814       -0.07391147322125
C            0.59770370452662       -0.92129365092138       -0.03790551318329
C            1.40193883018718        0.23387624781511        0.01737263232597
C            0.72942730203661        1.47913504718100       -0.03311738278184
O            1.28380659901373        2.67896685361454       -0.12225079520171
N           -0.61389852665139        1.48641674163205       -0.01312327318340
C           -3.53214978030030        1.44139214602416        0.09618433661648
C           -1.32583277292839        0.39969187335999       -0.00942655990196
O           -2.62724832055616        0.32923743887930       -0.00392515981784
N           -0.75875523970913       -0.87711685312981       -0.05012044217929
C           -1.54585165939406       -2.08927281679393       -0.07999936387533
H            3.81233120492697        1.56931694435825        0.37278194385885
H            4.78690262048256        0.00249039767601        0.16072076386247
H            2.23489671856699        2.61998400322353       -0.32814092416152
H            3.55535434405634       -2.20189865250052       -0.01907743981383
H           -3.04690953572131        2.43405661352534        0.06614946539516
H           -4.24267288089376        1.31928386085232       -0.73632801008925
H           -4.09333441333645        1.30516852646614        1.03384394936330
H           -1.29443737933395       -2.71607101930637        0.77626159323576
H           -1.36582860553436       -2.63152473719564       -1.00891639702007
H           -2.59717314851159       -1.82417486055296       -0.02571118388667
H            1.12030131543487       -2.96790083170209       -0.13238345506817
25
 energy: -42.196602169844 gnorm: 0.013914174798 xtb: 6.6.1 (8d0f1dd)
C            3.81933007380567        0.54749704139448        0.14162615017434
N            2.71427471086979       -0.19926714214780        0.04792082142534
C            2.70008026709005       -1.55570719637219       -0.01838262991284
N            1.40789861483908       -2.01164267418479       -0.06825017614106
C            0.58840778201374       -0.94049696828199       -0.03731837665468
C            1.37997425378675        0.22582569340885        0.01345121123399
C            0.70199854269543        1.46472670652098       -0.02806504530046
O            1.23613341858274        2.67252932886172       -0.10192599358297
N           -0.64430306069301        1.44894944456542       -0.00649137706584
C           -3.47237064536063        1.48187942157850        0.09310480182825
C           -1.34428123678168        0.35316168549281       -0.00882876411337
O           -2.65286516887940        0.31076933943377       -0.00478357557557
N           -0.77105883993272       -0.91522461740557       -0.04910657973141
C           -1.54911612629984       -2.13481373534153       -0.08358686449634
H            3.76373227682644        1.60097757176406        0.32934009853616
H            4.76641059490154        0.04603843403575        0.15914506148172
H            2.18525235712855        2.64970568160305       -0.28695581482480
H            3.56496750757876       -2.18195108941377       -0.01580704926459
H           -2.90493307112765        2.42342692363227        0.05368725715280
H           -4.18139726030441        1.42373349673294       -0.73895041468598
H           -4.02416833014323        1.40715869523892        1.03687232854266
H           -1.29690496554651       -2.76564164093241        0.77011685523641
H           -1.36415713603433       -2.67675234501117       -1.01240983313306
H           -2.60239904661000       -1.87565923812630       -0.03128991373979
H            1.13992600169410       -2.98098427545056       -0.12194055949243
25
 energy: -42.197990962823 gnorm: 0.011058736153 xtb: 6.6.1 (8d0f1dd)
C            3.79123724036296        0.57136214090173        0.12977253763326
N            2.69794177983433       -0.19291604230453        0.04192775583284
C            2.69866859026132       -1.54924144563698       -0.01649969472706
N            1.41143561501569       -2.01922342583870       -0.06170397240881
C            0.57854335005823       -0.95775372112870       -0.03790172534199
C            1.35941286019446        0.21618260987759        0.00821414351700
C            0.67810761933845        1.45142327600951       -0.02602080497955
O            1.20028276361892        2.66542185682321       -0.08176001143360
N           -0.66721369522483        1.41794040676566       -0.00805115785262
C           -3.42088441999748        1.51150205255123        0.09014645482012
C           -1.35903123062568        0.31728400355297       -0.01208586463326
O           -2.67171330339133        0.29705042405575       -0.00515389414063
N           -0.78297404992132       -0.94590865067679       -0.04966609405907
C           -1.55302312983208       -2.17048590758209       -0.08596987584622
H            3.71904692682768        1.62716147990211        0.29018360585031
H            4.74733102579978        0.08835767506865        0.15120535078478
H            2.15706432891636        2.67206712793436       -0.23299502222720
H            3.57135215863325       -2.16431777414918       -0.01195577424500
H           -2.78176544771031        2.40224707768107        0.04109172499928
H           -4.13500282012210        1.50980843925725       -0.73735627711524
H           -3.96642237818455        1.49262550710896        1.03811720782313
H           -1.29828182279360       -2.80138230730030        0.76724859816983
H           -1.36170530755945       -2.71181183352253       -1.01432761365580
H           -2.60815160336706       -1.91684065438583       -0.03606392832657
H            1.15617646396748       -2.99231377337059       -0.10922405054294
25
 energy: -42.198372755227 gnorm: 0.007114157960 xtb: 6.6.1 (8d0f1dd)
C            3.77348439494353        0.58571896791491        0.11940508934609
N            2.68785101620335       -0.18955434780273        0.03803295770265
C            2.69601024722866       -1.54534190789848       -0.01487274026039
N            1.41157842572083       -2.02262870457173       -0.05702166438248
C            0.57150356044997       -0.96663879999254       -0.03763754201222
C            1.34720246881770        0.20988133921360        0.00653963171004
C            0.66551306403650        1.44506696989358       -0.01981034074595
O            1.18741233794682        2.65885580880476       -0.06566791626631
N           -0.67685959546770        1.40443130132823       -0.00728168397741
C           -3.39207924620348        1.52687006206559        0.08693024716852
C           -1.36758402975404        0.30311989367026       -0.01264651683215
O           -2.68162701720293        0.29574342088555       -0.00276291357392
N           -0.79117141669520       -0.95970271388961       -0.04947749606249
C           -1.55574346115237       -2.18769604455229       -0.08766998141547
H            3.69207900360613        1.64146279588900        0.26458586807030
H            4.73517930747578        0.11530613194652        0.13953404102731
H            2.14276471444704        2.67326227458709       -0.19858325683288
H            3.57295251300880       -2.15388287340296       -0.00929073526986
H           -2.72055650037459        2.38094890253127        0.02886805895182
H           -4.10276830005562        1.55031836193891       -0.73604193257405
H           -3.92820094216154        1.53729848164914        1.03616894502606
H           -1.29953013348775       -2.81806273800187        0.76562906254239
H           -1.35918330351822       -2.72863234391106       -1.01535843595930
H           -2.61245195256339       -1.93998789039597       -0.04020473660106
H            1.16465635885072       -2.99791780630650       -0.10019439088531
