25
 energy: -40.427228735832 gnorm: 8.790691373293 xtb: 6.6.1 (8d0f1dd)
C            3.26459628265338        1.16118255179946       -0.09897905871335
N            2.19774716160896        0.25512903919003       -0.07856251409746
C            3.50609494377145       -0.35273829477728       -0.19354671784489
N            1.15334380682963       -2.21743248938100       -0.07384100842413
C            0.34044370197212       -1.24067196647142       -0.04403259840723
C            0.91717926280837        0.09690655670000       -0.02704195464798
C            0.07076558309350        1.30700894656995        0.04491260409654
O            0.55473008412128        2.41623402000469        0.07084123780369
N           -1.27787592941608        1.05743401195375        0.07529229647700
C           -2.19081375192054        2.18570490079322        0.14217087677930
C           -1.87621013213206       -0.19899804286993        0.03080043576812
O           -3.07248796681059       -0.31104348208062        0.04380515442245
N           -1.03685540589629       -1.30658853360033       -0.02608322775619
C           -1.67022348653831       -2.61376325644564       -0.06955184458170
H            3.46294969646625        1.71556077877500        0.81090993625101
H            3.37725761115441        1.75788674214594       -0.99890285426245
H            3.63599493057308       -0.54963458122500       -0.54624102748966
H            3.78492388950320       -0.75445817173799        0.82001442533794
H           -1.60406085202304        3.10149036964086        0.15804758914092
H           -2.85602520725484        2.17511719558452       -0.72231921300177
H           -2.80460746433392        2.11212363867250        1.04101699301523
H           -1.37933314237044       -3.20615077527861        0.79959299952342
H           -1.39118233172206       -3.13866391433621       -0.98477407627339
H           -2.74913514155095       -2.46860640399407       -0.05633119516895
H            0.80321537151244       -3.16479029803274       -0.08602564004555
25
 energy: -42.132911265005 gnorm: 0.151392796301 xtb: 6.6.1 (8d0f1dd)
C            3.26201424841165        1.16778956242878       -0.09424007146985
N            2.19149767963420        0.26088490633119       -0.07393365146116
C            3.41830558589504       -0.22118204875945        0.04641671268925
N            1.15333863450854       -2.21744983247781       -0.07383989211065
C            0.34046538991937       -1.24069888824684       -0.04405790720517
C            0.91669405094886        0.09659256651371       -0.02693939697281
C            0.07071787664715        1.30698338821720        0.04490722536029
O            0.55473309963588        2.41624731415562        0.07085163199500
N           -1.27789608081306        1.05743184914771        0.07527674162726
C           -2.19081518380433        2.18570619089998        0.14217100456093
C           -1.87622179496961       -0.19899752760009        0.03080503427049
O           -3.07247572003292       -0.31104398694096        0.04380861994998
N           -1.03685857202484       -1.30658658178493       -0.02608770893860
C           -1.67022692532961       -2.61376648959524       -0.06954952049798
H            3.46286908520145        1.71630947879860        0.81084847135761
H            3.37751475717165        1.75728974688639       -0.99918217589437
H            3.73494648694059       -0.69567890565911       -0.80505034643088
H            3.78294449405507       -0.75210616336378        0.82975584295892
H           -1.60406200309768        3.10148819711905        0.15804726719317
H           -2.85602416758682        2.17511675010649       -0.72231766464583
H           -2.80460410233987        2.11212192196346        1.04101197891758
H           -1.37933403296515       -3.20614995263080        0.79959976562823
H           -1.39118123218329       -3.13866698067997       -0.98477265930852
H           -2.74913421413567       -2.46860725540581       -0.05632996242028
H            0.80322415441237       -3.16478871782429       -0.08602772125167
25
 energy: -42.152022659790 gnorm: 0.056278063316 xtb: 6.6.1 (8d0f1dd)
C            3.25463596443733        1.19778236274948       -0.08460835513705
N            2.18402057331473        0.27129934068591       -0.07354350360139
C            3.45846694352121       -0.26403898069549        0.01943826077739
N            1.15182933585302       -2.21239942570609       -0.07167699513210
C            0.33684864759431       -1.23696879381773       -0.03660931708258
C            0.90702423234809        0.10403304969720       -0.02565488303935
C            0.06135162183181        1.31198174247717        0.03155088309923
O            0.54602196242310        2.42078379633392        0.06718822271836
N           -1.28527984919567        1.05967565304905        0.07204649278860
C           -2.19611332321415        2.18774444701515        0.14593121489344
C           -1.88080045572336       -0.19818044849281        0.03158885468960
O           -3.07660286600015       -0.31211243904531        0.04654915186963
N           -1.04006854509799       -1.30512901794720       -0.02383386725613
C           -1.67129194649554       -2.61339866977824       -0.06980424186377
H            3.40394056239625        1.79078572384205        0.81349086025000
H            3.40206623596745        1.75678418737427       -1.00188529185161
H            3.77350471383771       -0.73494768764990       -0.83835785138040
H            3.82425413445422       -0.82498097394260        0.87355264441751
H           -1.60661234654380        3.10184760829016        0.16172571742814
H           -2.86193111544407        2.17832291228027       -0.71764274910469
H           -2.80642923310288        2.11257358750349        1.04659557437511
H           -1.37992996278613       -3.20638024108142        0.79879656704147
H           -1.39148294968661       -3.13711644448519       -0.98555316372768
H           -2.75022064991827       -2.46918024907334       -0.05676342080499
H            0.80322982932830       -3.16054249798371       -0.09134918646584
25
 energy: -42.155247858668 gnorm: 0.050057352708 xtb: 6.6.1 (8d0f1dd)
C            3.25538357528962        1.20101861869630       -0.06276134929075
N            2.18892649043969        0.27224008378038       -0.06664150668207
C            3.47936285677033       -0.27779389516666       -0.01310746835981
N            1.15052788238885       -2.21162191306372       -0.06553989743834
C            0.33671347316323       -1.23583117071020       -0.03000492414490
C            0.90884255189048        0.10469762313354       -0.02197484100851
C            0.05931766486921        1.31219445972246        0.02593130755891
O            0.54255896077445        2.42212872500715        0.05611895325471
N           -1.28803931619031        1.06023123489305        0.06786370938838
C           -2.20021372179036        2.18795413967105        0.14446768698356
C           -1.88277431559591       -0.19792177675255        0.03198213570085
O           -3.07859390346385       -0.31280696780431        0.04801779454342
N           -1.04077817006814       -1.30413481389145       -0.02046331779034
C           -1.67209968497511       -2.61248636812434       -0.06691757383428
H            3.36913601484805        1.80818296492063        0.83309932756697
H            3.43100637254889        1.74756248350080       -0.98245178370742
H            3.79435265992785       -0.74623524886928       -0.87756711352966
H            3.81893479840118       -0.82548945193493        0.86550078011592
H           -1.61157479875813        3.10253709257318        0.16120237302162
H           -2.86897513388543        2.18125810590731       -0.71694884841501
H           -2.80866284213554        2.11181893115151        1.04632341035786
H           -1.38122599837129       -3.20559104141054        0.80171395575867
H           -1.39130915054454       -3.13567128292265       -0.98266699371477
H           -2.75117625493006       -2.46891706428247       -0.05496015151689
H            0.80079150349578       -3.15908492642518       -0.08904404691718
25
 energy: -42.156499088289 gnorm: 0.048126184692 xtb: 6.6.1 (8d0f1dd)
C            3.25521312963108        1.20022681099152       -0.04480192314435
N            2.19315056774112        0.27298774205271       -0.06074861904029
C            3.49202970110967       -0.28545124833076       -0.04204348495673
N            1.14973945800376       -2.21139555698979       -0.06254829908844
C            0.33753800619661       -1.23441632269809       -0.02992060826802
C            0.91213255375137        0.10509278217028       -0.02018180074111
C            0.05950948906232        1.31219421325693        0.02783074508458
O            0.54044011697302        2.42362469159511        0.04717098852910
N           -1.28879086129628        1.06065266104358        0.06546290740968
C           -2.20284408983396        2.18761010815065        0.14071584537014
C           -1.88336601908282       -0.19742849063789        0.03220999772608
O           -3.07919676303265       -0.31311550873038        0.04920645880181
N           -1.04039603535095       -1.30278603567414       -0.01895227664775
C           -1.67162454638087       -2.61140807257733       -0.06336530308359
H            3.36353937097460        1.79988534680474        0.85144149983320
H            3.43779558423560        1.75170316090898       -0.95887942949592
H            3.80738431161706       -0.75407644406984       -0.91413858933077
H            3.80231321398810       -0.81481080513518        0.85854390271732
H           -1.61621957027513        3.10344973389381        0.15825717635182
H           -2.87248569978674        2.18135573594595       -0.72013890335904
H           -2.81146328420237        2.10973595906906        1.04249316193708
H           -1.38073036663840       -3.20379459606830        0.80572736024646
H           -1.39103005518009       -3.13521910847513       -0.97882661262544
H           -2.75077090702727       -2.46815898636440       -0.05141261813888
H            0.79856420890221       -3.15821922853296       -0.08192995818602
25
 energy: -42.157021820766 gnorm: 0.042351704267 xtb: 6.6.1 (8d0f1dd)
C            3.25587899973110        1.19658770955152       -0.03736667857390
N            2.19482936233814        0.27324198392812       -0.05885241436560
C            3.49376272510028       -0.28855672675712       -0.05426870849810
N            1.14952354662979       -2.21118040080465       -0.06367937117690
C            0.33823609573753       -1.23326875131360       -0.03394367769735
C            0.91407512071493        0.10553203878550       -0.02173059031764
C            0.06036965467969        1.31257327024637        0.02875855791716
O            0.53981713636108        2.42467302460499        0.04370386453309
N           -1.28832133240450        1.06097203842351        0.06434515472999
C           -2.20368363044001        2.18711372973364        0.13838366950663
C           -1.88305725612864       -0.19696591850918        0.03227578900855
O           -3.07884546421335       -0.31305689699908        0.05100238533220
N           -1.03975762500989       -1.30180976957864       -0.01968217013567
C           -1.67058171371902       -2.61076805296723       -0.06107047425235
H            3.37512893238054        1.78388589091763        0.86335666699552
H            3.43069956900967        1.76093253448167       -0.94536562096490
H            3.81021247359399       -0.76013826682049       -0.93205595320005
H            3.78889818641984       -0.80007067810141        0.85789867308186
H           -1.61883938001038        3.10403594323464        0.15562782456804
H           -2.87295030500400        2.17943871271509       -0.72278787709084
H           -2.81304264712407        2.10813155091896        1.03971634317766
H           -1.37895313435268       -3.20158773169817        0.80884757900559
H           -1.39075049576232       -3.13603603920712       -0.97591778648443
H           -2.74974774941862       -2.46766072859274       -0.04825543391541
H            0.79753044498987       -3.15777992459310       -0.07776813328223
25
 energy: -42.157490584942 gnorm: 0.030583329189 xtb: 6.6.1 (8d0f1dd)
C            3.25760016947402        1.19173389371466       -0.03078900286364
N            2.19537145855862        0.27405028372842       -0.05425213784970
C            3.48982059865152       -0.28929226694606       -0.06443672474066
N            1.14980273461910       -2.21051306178193       -0.06613504190545
C            0.33893060463677       -1.23195775938454       -0.03933732332685
C            0.91515346648535        0.10640719111043       -0.02375486763243
C            0.06113712850418        1.31347698012846        0.02889684522579
O            0.53932888455645        2.42590206967535        0.04255530497551
N           -1.28760006074714        1.06131181874286        0.06290844438723
C           -2.20418633347926        2.18656227074798        0.13437618865084
C           -1.88242790129740       -0.19658988888903        0.03222970643922
O           -3.07811813726507       -0.31306582977062        0.05322716453502
N           -1.03893060247827       -1.30099126880485       -0.02129410092592
C           -1.66900824734642       -2.61043599742439       -0.05776534189422
H            3.40125667428341        1.75912784979326        0.87964973832792
H            3.41375424634334        1.77816015233852       -0.93000158308438
H            3.80696969797873       -0.76545867159934       -0.95126709793771
H            3.77673833951334       -0.78675659824413        0.85493871640128
H           -1.62109593022498        3.10451887399991        0.15057775742439
H           -2.87214823464353        2.17597692822457       -0.72783778117387
H           -2.81488820342769        2.10744771599604        1.03483699714544
H           -1.37631333991597       -3.19799930497537        0.81404848005529
H           -1.38991610577149       -3.13872521629547       -0.97104111556146
H           -2.74820485142907       -2.46757060172492       -0.04398408519153
H            0.79740545852047       -3.15708102076066       -0.07517752157920
25
 energy: -42.157741815143 gnorm: 0.020544193813 xtb: 6.6.1 (8d0f1dd)
C            3.25936548894863        1.18972453578295       -0.02686598633473
N            2.19436390362973        0.27528248421915       -0.04737459219789
C            3.48409617487855       -0.28836358418229       -0.06864727993418
N            1.15045503493976       -2.20933515261628       -0.06873861166792
C            0.33903923368897       -1.23111663136903       -0.04201617834194
C            0.91434112906505        0.10746519018818       -0.02339664949707
C            0.06071550246968        1.31443516377248        0.03007555921364
O            0.53868219150630        2.42679737427551        0.04491849186803
N           -1.28777739581418        1.06155257670945        0.06220243735473
C           -2.20481584483300        2.18651020696276        0.12992403631516
C           -1.88227761725390       -0.19657220158457        0.03225150953889
O           -3.07787951121086       -0.31334099547579        0.05430921824574
N           -1.03862432610785       -1.30079447404624       -0.02235464727553
C           -1.66802062062443       -2.61062251325501       -0.05469726550453
H            3.42309807489080        1.74249548496541        0.89133207791237
H            3.39994670756542        1.79194311672402       -0.91944263427835
H            3.80052874683980       -0.76747294341507       -0.96404700106559
H            3.77783231531517       -0.78633061089431        0.84771127835039
H           -1.62214077335717        3.10470001255888        0.14520297813790
H           -2.87094021734950        2.17345890347301       -0.73371540955283
H           -2.81714396339158        2.10892031742889        1.02932461315945
H           -1.37467250760716       -3.19502274185196        0.81909370734132
H           -1.38897221480126       -3.14186125024665       -0.96620196906012
H           -2.74726069048862       -2.46813357023738       -0.04078192659425
H            0.79849269320067       -3.15608015628698       -0.07689413823177
25
 energy: -42.157941590516 gnorm: 0.011418936268 xtb: 6.6.1 (8d0f1dd)
C            3.26119642780716        1.18993567960581       -0.02311878768399
N            2.19275083507632        0.27705017368754       -0.03792800830680
C            3.47872260366797       -0.28719368677359       -0.07014246567982
N            1.15141277498137       -2.20756992613113       -0.07262030455241
C            0.33891398769353       -1.23032344254256       -0.04299623622960
C            0.91265427049210        0.10884699514381       -0.02044556699006
C            0.05938428991028        1.31548789121563        0.03301854748637
O            0.53758282353564        2.42768705870731        0.05009187007421
N           -1.28882911430772        1.06184665696534        0.06205992609395
C           -2.20606343659748        2.18684364322394        0.12457862333924
C           -1.88256427949592       -0.19672107680224        0.03266845066519
O           -3.07809270184140       -0.31390821940474        0.05508762594635
N           -1.03858795590899       -1.30078799363366       -0.02268876285867
C           -1.66733830378583       -2.61096666877624       -0.05111437087145
H            3.43873388120050        1.73254679276646        0.90025775847785
H            3.39070867659762        1.80199575002992       -0.91055808034531
H            3.79353388923817       -0.76849617256036       -0.97543819584946
H            3.78758285094181       -0.79538657581552        0.83641010554165
H           -1.62308066609780        3.10487042699087        0.13894944865728
H           -2.86970235985958        2.17140687276960       -0.74093585423941
H           -2.82066941119889        2.11211544816103        1.02256830857092
H           -1.37357667271349       -3.19216541138076        0.82474503642160
H           -1.38794725650104       -3.14523323631961       -0.96067003189916
H           -2.74664396202843       -2.46902583552856       -0.03765797590882
H            0.80035032329317       -3.15461660199913       -0.08294944195875
25
 energy: -42.158061873605 gnorm: 0.005344166336 xtb: 6.6.1 (8d0f1dd)
C            3.26238302784482        1.19168327574989       -0.02066596791720
N            2.19165723812710        0.27858081802215       -0.03163802767608
C            3.47674651301334       -0.28657910621889       -0.06811669347664
N            1.15220044579146       -2.20597968265866       -0.07771412598095
C            0.33879460256079       -1.22972196362125       -0.04266986829132
C            0.91136529545110        0.10998140706698       -0.01688332201215
C            0.05795003614691        1.31618020358043        0.03656500324359
O            0.53643732737922        2.42831156960693        0.05578386279161
N           -1.29016403432613        1.06213817483180        0.06255023344419
C           -2.20748858717042        2.18731107725089        0.12063545415207
C           -1.88305913996924       -0.19686471629655        0.03376477921592
O           -3.07854495164611       -0.31451812720050        0.05624788035976
N           -1.03866184664160       -1.30075414195365       -0.02184391872573
C           -1.66703922522195       -2.61112954874044       -0.04805219673748
H            3.43993631167606        1.73293898922536        0.90337793484515
H            3.39162956834068        1.80344638004358       -0.90699687047291
H            3.79056821748659       -0.76937198640677       -0.98134336771085
H            3.79784360630881       -0.80747963427406        0.82759631266448
H           -1.62400440264266        3.10509735891553        0.13435204319308
H           -2.86907688225248        2.17022217795469       -0.74638230165632
H           -2.82412189078401        2.11531940774043        1.01742723275904
H           -1.37302688022167       -3.19046816822398        0.82897300532858
H           -1.38738739530471       -3.14717871708645       -0.95644274493735
H           -2.74640340255632       -2.46966244779309       -0.03512565655680
H            0.80189796270951       -3.15326405791521       -0.09222706194478
