72
 energy: -103.312389754654 gnorm: 0.090857531243 xtb: 6.6.1 (8d0f1dd)
N           -1.48708802524748        2.76290480202678        2.23125459919578
C           -1.56042291056832        2.16387297672392        1.14678771515030
C           -2.74428318728897        2.05700054601006        0.24473671987128
C           -3.31510610479518        0.64915976968324        0.33129256377170
C           -4.30951529301192        0.26933043772875       -0.57692209959976
C           -4.84316085173430       -1.01302646318377       -0.53479152767702
O           -5.80831329925094       -1.48059909524199       -1.36154783632098
C           -6.38252028916621       -0.59774952065111       -2.29293107717608
C           -4.39412930931042       -1.94455815890388        0.44177740056507
O           -4.98155446647284       -3.16479394933235        0.40982385919826
C           -4.65966179848098       -4.10440416143322        1.40930095717551
C           -3.41902198053019       -1.54574963090041        1.33793799897007
C           -2.88411017960601       -0.26277833372993        1.27840127723472
C           -2.19250902256011        2.29796612492563       -1.18346840580682
C           -1.26887524919127        1.16766600094631       -1.66329326834960
C            0.00806856143376        1.10211302182715       -0.90750325510913
N            0.62392313106970       -0.03277216878231       -0.57772809400851
C            2.00432503232996       -0.03111246775646       -0.16075157026300
C            2.93167589024403       -0.54247109188090       -1.28133292711374
C            4.36104964332186       -0.43334713755416       -0.83576052215752
C            5.07707943929332        0.72988909919653       -1.04329587908833
C            6.38934077243960        0.84093853457788       -0.60484500520801
C            7.00330321336222       -0.20928746835226        0.05651945384584
O            8.27052044318307       -0.21054482102638        0.52505044455048
C            9.07160242423094        0.92936619074599        0.31950952740737
C            6.27423924936294       -1.40467629762195        0.27908919432537
O            6.95231901101845       -2.38118212666555        0.92859114432025
C            6.31939070246707       -3.61611248519004        1.15339052626181
C            4.96743446535101       -1.49561197681644       -0.16380963048372
C           -0.05043473900819       -1.30900475392566       -0.62480827579480
C           -3.87089426964315        3.07697257874293        0.58184136748506
C           -4.50504810464293        2.77082153433895        1.93533028592575
C           -3.39916049999481        4.52573083296158        0.54231027271353
H           -4.69004019422562        0.99452317155357       -1.28607250860942
H           -6.83279069124575        0.26742376514044       -1.79772014160157
H           -7.15885410601075       -1.16604600656785       -2.79736111209948
H           -5.64635030765979       -0.25901163911356       -3.03006980651968
H           -4.88253572408966       -3.72012549272815        2.41019054574199
H           -5.28682177796895       -4.97158306618832        1.20965969017832
H           -3.60814930546115       -4.40251124481444        1.35891903567375
H           -3.06909453115934       -2.22066708676843        2.10238235868428
H           -2.14685111370637        0.01998082321702        2.01409937915128
H           -3.02352068467750        2.37870905407795       -1.88160611239105
H           -1.64770970559853        3.24246276272191       -1.20276250764256
H           -1.81241946272808        0.22060281430050       -1.61537468632223
H           -1.01041110060175        1.36815309046859       -2.70796082817214
H           -0.67885591345846        1.64990862558754        0.64824746805693
H            0.63715675715656        1.98245379457755       -0.93891392066488
H            2.11675987455375       -0.66571424078674        0.72162755050460
H            2.30406901603067        0.98426225101244        0.10485048154949
H            2.77128251737560        0.06318205375281       -2.17525601459650
H            2.68543567518816       -1.57903483675716       -1.51699270020992
H            4.62482249471626        1.56007605925914       -1.56460830399518
H            6.92611943311936        1.75661498859737       -0.79181182627283
H            8.65339879503220        1.81012344225420        0.81724052749472
H            9.20455681597678        1.14067158687612       -0.74612890723766
H           10.03683939829103        0.69076694943745        0.76206750788579
H            7.05926253947444       -4.23598505718632        1.65601265296858
H            5.44188898309359       -3.50802341321742        1.79953319934861
H            6.02555607117993       -4.09577060502791        0.21415929603122
H            4.40584023580312       -2.40356930798877       -0.00791996178779
H           -0.21750925572341       -1.62840642492459       -1.65723554343717
H           -1.01443233233490       -1.25142222630785       -0.11499353874762
H            0.56308192160666       -2.05510232898332       -0.12719296813449
H           -4.64232863827467        2.94979228472434       -0.18828739352462
H           -3.77756188806624        2.89902056045299        2.72769347627929
H           -4.88596292850122        1.75270116025077        1.96816410815610
H           -5.33343679053889        3.45266632054416        2.11065457035247
H           -2.61448144963706        4.69210096710413        1.26977003322691
H           -3.04168282173942        4.81226502531031       -0.44324174403701
H           -4.23414980155387        5.17622195261355        0.79178806824683
H           -0.61655927132544        2.79323569554948        2.74516030907814
72
 energy: -103.315386256408 gnorm: 0.032788316002 xtb: 6.6.1 (8d0f1dd)
N           -1.50408694483185        2.79578702775960        2.24408859085301
C           -1.56603676141867        2.15867021143841        1.16733969078259
C           -2.74667912798411        2.06048177566026        0.25157532164487
C           -3.31980642661218        0.65258184583331        0.33552002949015
C           -4.31289847243115        0.26129395562676       -0.56614559049480
C           -4.84775900875409       -1.01451060698457       -0.52811834918718
O           -5.81362972894704       -1.48306516695890       -1.36213395274682
C           -6.38288483740190       -0.59789670157755       -2.29367755447843
C           -4.39473215270093       -1.94202123442397        0.44182814446177
O           -4.98489629301467       -3.16625045181211        0.40710213737050
C           -4.65904936800369       -4.10148073692479        1.40679959032699
C           -3.42204828479204       -1.54174475976265        1.33823294792035
C           -2.88916866886022       -0.25792929743819        1.28132591007222
C           -2.19480675145183        2.29505868470613       -1.18006693663427
C           -1.26458485702508        1.17715281358959       -1.67922255102250
C            0.01077717180330        1.11839403094893       -0.91106619842194
N            0.63411170218309       -0.04868737021691       -0.56778989866320
C            2.00911270003942       -0.04330324910692       -0.16320156442653
C            2.94061674499088       -0.54660990074403       -1.28469471457714
C            4.36786457570690       -0.43818294946402       -0.84645016914334
C            5.08202909962796        0.72762322061701       -1.04743971906796
C            6.39139518540174        0.84053017465902       -0.60342685933434
C            7.00449568383819       -0.20972125597697        0.05800611748228
O            8.27875664806678       -0.21181929209816        0.52844264827845
C            9.07336783346688        0.92952373411468        0.32022790991985
C            6.27649063344836       -1.40350673854171        0.27951548952753
O            6.95700528323343       -2.38320360838738        0.93192089512443
C            6.31977346144857       -3.61556556758008        1.15389956438339
C            4.97304448118535       -1.49698966625124       -0.16845876879255
C           -0.04657208323144       -1.31546782044495       -0.62291183238762
C           -3.87749649919982        3.07662980167609        0.57837469461018
C           -4.50881862207289        2.77393192341965        1.93499196251029
C           -3.40346175442144        4.52627260620583        0.54324168141890
H           -4.67912896178698        0.97469732365271       -1.28800011753394
H           -6.83333931821818        0.26898568008981       -1.79970212471380
H           -7.15963603167471       -1.16628525568793       -2.80107040459658
H           -5.64566005918738       -0.25706462702343       -3.02889959395787
H           -4.88111895386495       -3.71669936241025        2.40772594430391
H           -5.28552512390775       -4.96980350886990        1.20873796591342
H           -3.60618072219591       -4.39812330176667        1.35713438361292
H           -3.06830230663379       -2.21891764276856        2.09967328506022
H           -2.14451598347883        0.02445527589954        2.00916715354878
H           -3.02849497658836        2.38396914400459       -1.87734478337541
H           -1.64644535711530        3.23788440702837       -1.19764585620945
H           -1.80082984104905        0.22951832574315       -1.62325279358552
H           -1.03867211529379        1.37589232644100       -2.73631517628377
H           -0.68917972707580        1.64424364810153        0.68252745572059
H            0.65257572223572        1.98596423203407       -0.97451203569687
H            2.12918171956051       -0.67395689868621        0.72280828891118
H            2.29985997396812        0.97560347844168        0.10191545810101
H            2.76964766239672        0.06280822300686       -2.17370601082505
H            2.68859633902985       -1.58142170728042       -1.51947038589668
H            4.62657847482582        1.55894395768722       -1.56462392835081
H            6.92801023750258        1.75722613098442       -0.78844852889373
H            8.65247865644798        1.81020467915762        0.81670865454572
H            9.20358112314801        1.14101023568892       -0.74622947160984
H           10.04001013275564        0.69418639167171        0.76200422010169
H            7.05771609014609       -4.23813265739938        1.65708127301502
H            5.44053212234998       -3.50656239734235        1.79807787339922
H            6.02458439237640       -4.09376826315559        0.21383002075880
H            4.40839056604290       -2.40274634456673       -0.00921786004302
H           -0.21703651902988       -1.63456363226725       -1.65684276839343
H           -1.01221129855884       -1.25237472603981       -0.11427173371313
H            0.56223895683693       -2.06518582745076       -0.12405830141976
H           -4.64949426603124        2.95436091574986       -0.19125988646490
H           -3.77265737455321        2.89952934696615        2.72193180657257
H           -4.88691328897211        1.75476934596595        1.96760263674993
H           -5.33771758936554        3.45527958356398        2.11498406964406
H           -2.61387682371713        4.68392894925671        1.27071103937319
H           -3.04198556647043        4.80867347002077       -0.44242729979486
H           -4.23570844071562        5.18140623779676        0.79315876591346
H           -0.62675295450922        2.79498597571209        2.75475576573024
72
 energy: -103.315920558703 gnorm: 0.020029751522 xtb: 6.6.1 (8d0f1dd)
N           -1.48940989139250        2.78550726502389        2.23503988501850
C           -1.54862404809050        2.14970131872729        1.15116738352587
C           -2.74160647316775        2.06071282994079        0.24653455923765
C           -3.31207927845470        0.65120764929791        0.32866240097968
C           -4.30919777365607        0.25926297318769       -0.56656723136863
C           -4.84150549380869       -1.01512184523887       -0.53088698484329
O           -5.81219793570493       -1.48368243626857       -1.36485394461859
C           -6.38206563295707       -0.59741265136146       -2.29320221797541
C           -4.38993331217741       -1.94121264904183        0.43784452099548
O           -4.98518690914266       -3.16790906882814        0.40620770915334
C           -4.66090243226299       -4.10162612047514        1.40689950698425
C           -3.41869833574107       -1.54278961783306        1.33450405291921
C           -2.88331726814031       -0.26064235928675        1.27522274337696
C           -2.19584045886713        2.29689615629126       -1.18652246284444
C           -1.26710932035419        1.17227370398668       -1.67114201650638
C            0.00180866115965        1.12849781085800       -0.89647306128421
N            0.63414471168432       -0.05418030541590       -0.55422968689660
C            2.00366684871479       -0.03589819213009       -0.15826768974802
C            2.93635193664011       -0.54092429627019       -1.27923520617392
C            4.35946588594365       -0.43350584871954       -0.83883528648247
C            5.07529853502780        0.73103810572310       -1.04253735850298
C            6.38599107701648        0.84184511083655       -0.60412945667019
C            6.99739398194077       -0.20902636945351        0.05594477933218
O            8.27689889496459       -0.21295043202759        0.52639612539436
C            9.07006481930740        0.92747571627717        0.31923121319298
C            6.26971468738549       -1.40047886405815        0.27971268339673
O            6.95505665980916       -2.38313433375831        0.93000867414212
C            6.31948117313528       -3.61525221388609        1.15302223954600
C            4.96524982305712       -1.49297689248462       -0.16276435593504
C           -0.04825358168110       -1.31300884773303       -0.62504488578266
C           -3.86954147790107        3.07382230705642        0.58008940297690
C           -4.50517436874992        2.77060000228987        1.93587146084535
C           -3.40100252737194        4.52711651859110        0.54271414438807
H           -4.68490465856994        0.97845935645635       -1.27736423936265
H           -6.83140411200133        0.26974867863113       -1.79760294060564
H           -7.16122507048811       -1.16654259530296       -2.79768998636131
H           -5.64764358163518       -0.25701234607237       -3.03142902189328
H           -4.88273660506077       -3.71863382613616        2.40881021041680
H           -5.28831170594899       -4.96981033135156        1.20938902799625
H           -3.60852061603224       -4.40248594654337        1.35945584540400
H           -3.06915314627155       -2.21948192766927        2.09937542304633
H           -2.14475303900376        0.02220379422960        2.00890333746971
H           -3.02875641908821        2.38249905749222       -1.88616513683778
H           -1.64618610845352        3.24001399023776       -1.20651254122019
H           -1.80247932651716        0.22376764654562       -1.61380984092250
H           -1.02745455417242        1.36558344079632       -2.72544419726347
H           -0.67992818705106        1.65256146580717        0.65810135840577
H            0.64083399688101        1.99379552428135       -0.94185666998149
H            2.12459973347592       -0.66393702287204        0.73014257071374
H            2.29315289207677        0.98518747313135        0.10632067232109
H            2.76612158097595        0.06683445875673       -2.16954385705730
H            2.68098086936379       -1.57525635182890       -1.51256506081994
H            4.62018654595865        1.56073901152675       -1.56279196783536
H            6.92454186822072        1.75693238120687       -0.79298995147083
H            8.65147484483367        1.80915952420238        0.81658725036787
H            9.20259202215578        1.14064019530448       -0.74695677433435
H           10.03595455427467        0.68986762957040        0.76159307804327
H            7.06006929314585       -4.23591357871511        1.65514844930293
H            5.44134956020409       -3.50862510822114        1.79941667433092
H            6.02362939365097       -4.09561270298583        0.21391261067893
H            4.40052155729374       -2.39940577034803       -0.00546484431585
H           -0.21842685087949       -1.62740473752876       -1.66156270413208
H           -1.01559483415638       -1.25338409289201       -0.11723297677934
H            0.56173248146905       -2.06244961527981       -0.12796514945429
H           -4.64094227863745        2.95049394767289       -0.18860046594451
H           -3.77358694935565        2.89767089247984        2.72744497903245
H           -4.88301398327705        1.75115960874350        1.96775241658619
H           -5.33538193230932        3.45143343237374        2.11030201414972
H           -2.61130456784779        4.69071258223726        1.27017055136227
H           -3.04066786617695        4.81040671920659       -0.44347229185871
H           -4.23662142548595        5.17763132268010        0.79168367185548
H           -0.59566142081002        2.77312625987049        2.72299450361095
72
 energy: -103.316427319951 gnorm: 0.010760387776 xtb: 6.6.1 (8d0f1dd)
N           -1.51356108028008        2.78232256189966        2.24298917430232
C           -1.55639667757095        2.15636878758901        1.15404666073444
C           -2.74619830866441        2.06098192732022        0.24728474048399
C           -3.31621082110606        0.65210330741991        0.33037823832086
C           -4.31053483851150        0.26331035217692       -0.57034790101963
C           -4.84282583018620       -1.01271591532801       -0.53082365546907
O           -5.81257565560934       -1.48257391859360       -1.36410276485720
C           -6.38172349663477       -0.59775538595425       -2.29344635546221
C           -4.39368716058194       -1.93914409573218        0.44119592473357
O           -4.98578108792133       -3.16731107240079        0.40929212956794
C           -4.65918910137492       -4.10221139268591        1.40803704331629
C           -3.42212181889413       -1.54243878150458        1.33836498571524
C           -2.88816755115860       -0.25999248420319        1.27904887984416
C           -2.19355220522078        2.29800355479660       -1.18206535995843
C           -1.26839327415506        1.16983189264245       -1.66582742737676
C            0.00372586265238        1.12327519367505       -0.90260986742400
N            0.63542357696805       -0.05387738579129       -0.56613728307316
C            2.00536246889493       -0.03635275806438       -0.16841319671948
C            2.94093102898069       -0.54524580212251       -1.28612453464758
C            4.36357039077762       -0.43638088381913       -0.84058146824052
C            5.08027356257834        0.72798355598546       -1.04478607082342
C            6.39073566344216        0.84006898998550       -0.60512450988097
C            7.00130541888277       -0.21020676296607        0.05571350474738
O            8.27930011674614       -0.21151110172875        0.52808312610117
C            9.07218672398461        0.92905757621118        0.32061711487246
C            6.27471589566342       -1.40256374783368        0.27755095316741
O            6.95767453784674       -2.38436335181372        0.93048036962320
C            6.32034911142027       -3.61540293413571        1.15370759792160
C            4.97057152720355       -1.49649685900517       -0.16640491385641
C           -0.04900710362698       -1.31099947655336       -0.62627340431789
C           -3.87256893786598        3.07523836620055        0.58037655537463
C           -4.50816457744969        2.77251886028908        1.93604404157447
C           -3.40150947062126        4.52747448133527        0.54226325249389
H           -4.68603472269554        0.98601306503632       -1.28202588933496
H           -6.83370829701803        0.26839334416327       -1.79898573640187
H           -7.15892363129888       -1.16737496357226       -2.79933753605871
H           -5.64575086362150       -0.25781862699759       -3.03020122287096
H           -4.88118576690439       -3.72109166400259        2.41073100427775
H           -5.28468950877605       -4.97175110393872        1.20978936075164
H           -3.60639162497314       -4.40098071527063        1.35884452151350
H           -3.07131918314752       -2.21959416959968        2.10241041790558
H           -2.15016692949109        0.02184064592127        2.01425946280676
H           -3.02525331578006        2.38232032564985       -1.88172714248414
H           -1.64592554332503        3.24233932160856       -1.19976915496085
H           -1.80795497031549        0.22242374528595       -1.61539457488051
H           -1.01774699092357        1.36862925488673       -2.71495720955518
H           -0.68608103916619        1.65455406932238        0.66378289260208
H            0.64605496501261        1.98460122126748       -0.94938538461729
H            2.12345266640316       -0.66764248052543        0.71835158612248
H            2.30269520492509        0.98172073891745        0.09919263608743
H            2.77508650011061        0.06081633036982       -2.17855722721594
H            2.68808687362987       -1.58037887711381       -1.52057336021493
H            4.62651012801819        1.55742157975029       -1.56651108414124
H            6.92816623173112        1.75634667017984       -0.79092659821192
H            8.65385181312272        1.81127786862309        0.81721580612605
H            9.20594624377746        1.14146614072905       -0.74555442486615
H           10.03831194337113        0.69271502612179        0.76325411199869
H            7.05887618959445       -4.23677164902253        1.65772711983535
H            5.44139251439568       -3.50716868120568        1.79866683781786
H            6.02619412874560       -4.09626439451100        0.21440776334704
H            4.40822056251280       -2.40482135660496       -0.01164180912145
H           -0.22078695419526       -1.63331912234503       -1.65935903013071
H           -1.01422210931376       -1.24956752245900       -0.11497562770941
H            0.56256575584541       -2.05709812929078       -0.12597995791102
H           -4.64394341010768        2.95119577486618       -0.18845387521822
H           -3.77706132839671        2.89941369990449        2.72736681139686
H           -4.88878457010224        1.75417244052169        1.96883646715534
H           -5.33587072553315        3.45545416750755        2.11104209421862
H           -2.61337928784706        4.69074497233937        1.27041939241679
H           -3.04146629201973        4.81194528555447       -0.44351307632716
H           -4.23589565126589        5.17820988043217        0.79199756180004
H           -0.62480276267060        2.78552915372045        2.73799416070118
72
 energy: -103.316461192234 gnorm: 0.010003714532 xtb: 6.6.1 (8d0f1dd)
N           -1.50121184278661        2.78784935034795        2.24077031986818
C           -1.55107463674900        2.15834160326057        1.15610357159231
C           -2.74334927983018        2.06004663219655        0.25021518015040
C           -3.31665097670616        0.65227250537391        0.33322745965930
C           -4.31022428956456        0.26391278959110       -0.56991341282816
C           -4.84329872996608       -1.01264950668751       -0.52978184904211
O           -5.81265629604653       -1.48220334135363       -1.36277687561381
C           -6.38202271021993       -0.59743421154319       -2.29217925269484
C           -4.39216023757207       -1.94007655648239        0.44080222878445
O           -4.98415389108701       -3.16735890027383        0.40773999938410
C           -4.65994491479945       -4.10162185607891        1.40707021181231
C           -3.41866690311675       -1.54403686820001        1.33723740920230
C           -2.88573037345870       -0.26080130096738        1.27934202822167
C           -2.19439251418514        2.29512055287446       -1.18180060602403
C           -1.26794683679215        1.17165214483992       -1.67517721560644
C            0.00572177976399        1.12046419561176       -0.91375053684042
N            0.63327736756725       -0.05090889811796       -0.56890494649422
C            2.00181649569559       -0.03603809556277       -0.16049341845751
C            2.93669293131583       -0.54301743975142       -1.27951992327111
C            4.36168151857974       -0.43477009623227       -0.83875535166897
C            5.07845637741391        0.72953113725556       -1.04344096241164
C            6.38907668870683        0.84166022030719       -0.60334703957590
C            6.99966546445602       -0.20919134184198        0.05701034568764
O            8.27712864996475       -0.21118617102381        0.52762729892607
C            9.07068487533651        0.92859337029510        0.31899032445588
C            6.27303686040371       -1.40147259876108        0.27915606394500
O            6.95509330780530       -2.38324507760081        0.93147060032163
C            6.31833129738033       -3.61480010230781        1.15318303446673
C            4.96856889933280       -1.49495543471409       -0.16466789339007
C           -0.04817384625946       -1.31091634657911       -0.62488967186420
C           -3.87173517487901        3.07458505694103        0.57985427834881
C           -4.50582565070142        2.77113270960795        1.93544107698916
C           -3.40090507513747        4.52606715039238        0.54285658159401
H           -4.68069931597120        0.98365784153807       -1.28780878500759
H           -6.83300449108025        0.26908295527596       -1.79791341337345
H           -7.15978049152321       -1.16555665118200       -2.79847398848509
H           -5.64611262646219       -0.25763467014574       -3.02899525628389
H           -4.88237044023320       -3.71725306526875        2.40836777680367
H           -5.28716493142439       -4.97000378249223        1.20915149066700
H           -3.60744680749684       -4.40090797280628        1.35834895491357
H           -3.06532994083814       -2.22176488092430        2.09905834503501
H           -2.14192471833571        0.01982480639195        2.00945617266375
H           -3.02872454958203        2.38055261567718       -1.87782536689757
H           -1.64787777138887        3.23942200484495       -1.20128033808750
H           -1.80683861431253        0.22483638617110       -1.62362082555428
H           -1.02798060849519        1.37335399464923       -2.72705428770247
H           -0.68524927289761        1.64184594179935        0.66876155718194
H            0.64983746778130        1.98119811931861       -0.96499090555673
H            2.12104406402248       -0.66924440324080        0.72579074645077
H            2.29940622702361        0.98087668328589        0.10846257397616
H            2.76706191493445        0.06488197619698       -2.17011765647121
H            2.68418441664894       -1.57816603743233       -1.51485094135015
H            4.62365356489013        1.56057702544971       -1.56190001435835
H            6.92617100574144        1.75802172135819       -0.78878556917638
H            8.65261112810802        1.81041709650262        0.81630559039438
H            9.20214754568665        1.14089012453198       -0.74744850426314
H           10.03777138949347        0.69242860140832        0.75996574924320
H            7.05727703996033       -4.23733484896526        1.65517402805902
H            5.44003783616332       -3.50758400131086        1.79905153720008
H            6.02317640852670       -4.09358879617245        0.21323997027279
H            4.40462572940231       -2.40136314678013       -0.00554667045476
H           -0.21567981161130       -1.63407865977351       -1.65781675472397
H           -1.01476539654456       -1.25219234772953       -0.11659575918180
H            0.56153186393388       -2.05913045785726       -0.12374303343007
H           -4.64391000662345        2.95120419674934       -0.18913453287685
H           -3.77294164256616        2.89854226617594        2.72449190291995
H           -4.88396744841898        1.75201370139485        1.96759886744892
H           -5.33447065778429        3.45229467901109        2.11316950118338
H           -2.61292307308750        4.68676441596815        1.27097522076910
H           -3.04087001599532        4.80981215841866       -0.44283762600442
H           -4.23423930556451        5.17805497215446        0.79315017007475
H           -0.61335086702955        2.78960072650382        2.73838668277233
72
 energy: -103.316630698408 gnorm: 0.004648745709 xtb: 6.6.1 (8d0f1dd)
N           -1.50203609633014        2.78609329036583        2.24171293926398
C           -1.55314675354440        2.15530698291329        1.15743555770344
C           -2.74515105199359        2.06073905343947        0.24949584451368
C           -3.31737578055615        0.65215380748051        0.33166081369879
C           -4.31198516242757        0.26185922316864       -0.56894358785881
C           -4.84402342256044       -1.01446216996961       -0.53021706605789
O           -5.81319733449510       -1.48388961054103       -1.36420744424878
C           -6.38218196383787       -0.59857784467344       -2.29343095159857
C           -4.39258641618838       -1.94078371321716        0.44007784230690
O           -4.98471697647316       -3.16841459405180        0.40746444992319
C           -4.65981354305566       -4.10194931815880        1.40706660276925
C           -3.42085100715776       -1.54278377813111        1.33747886168944
C           -2.88731808111512       -0.25969418924283        1.27857171235730
C           -2.19491346866731        2.29645984890566       -1.18242682803552
C           -1.26609694586461        1.17278477398852       -1.67074582953201
C            0.00562339865660        1.12298000830535       -0.90515660603756
N            0.63484336810305       -0.05134550099496       -0.56315046231528
C            2.00472025579327       -0.03699506507080       -0.16179682216860
C            2.93835783027412       -0.54363476000230       -1.28275487303233