72
 energy: 0.000000000000 xtb: 6.6.1 (8d0f1dd)
N           -1.47310921155849        2.74401293103706        2.22063921685122
C           -1.55658879776851        2.16490285539332        1.13274273951491
C           -2.74549199786261        2.05621232186130        0.23826248438941
C           -3.31377553111525        0.64333411542669        0.32332512650568
C           -4.30230156009016        0.24487110156316       -0.58026161703006
C           -4.85238763031941       -1.02286490450319       -0.53363588718165
O           -5.81419972815119       -1.48606034185536       -1.36157882725342
C           -6.39655633239252       -0.60827000183299       -2.29568474302620
C           -4.39972501531283       -1.94646102182611        0.44396929121966
O           -4.98748311285188       -3.16145997157803        0.41085992006324
C           -4.66362127904578       -4.10093827755394        1.40909127743729
C           -3.42072513477031       -1.54561384810496        1.33436546260297
C           -2.88302799614223       -0.26315800396994        1.27400150770375
C           -2.19303798107274        2.30467000305896       -1.18742977106749
C           -1.26651538239283        1.17243369445008       -1.65249429687285
C            0.01082524939134        1.09745454476277       -0.89354803499847
N            0.61779393476578       -0.02034948052406       -0.57705522512502
C            2.00145210352228       -0.02376006389122       -0.15611399603240
C            2.92554934655222       -0.53865282675074       -1.27700088804721
C            4.35756843073516       -0.43050757231754       -0.83075544324989
C            5.07346135469827        0.73206409086248       -1.03980965825901
C            6.38627986649936        0.84224441421807       -0.60344822702769
C            7.00047264773336       -0.20824756335880        0.05722314418200
O            8.26703657141718       -0.21011313101264        0.52410943644933
C            9.06912227848686        0.92943601033931        0.31863058007678
C            6.27039964270142       -1.40439753960823        0.28033466008274
O            6.94829939911432       -2.38012925705718        0.92751999079483
C            6.31537317745639       -3.61583200086742        1.15217711710877
C            4.96302794628964       -1.49347471867959       -0.16064430359178
C           -0.05511211367372       -1.29906247805359       -0.62085686319744
C           -3.86758037025447        3.07992600430699        0.58498060215443
C           -4.49286159663096        2.77383493050346        1.94313289484366
C           -3.39165179876499        4.52917666589254        0.54797523472093
H           -4.66030026466202        0.94509067363451       -1.31640568823548
H           -6.85037928558380        0.25803162192116       -1.80468845313260
H           -7.17287442604349       -1.18600110843259       -2.79318157561361
H           -5.66836817451085       -0.26952966318766       -3.04040255244073
H           -4.88416720672258       -3.71589460520039        2.40913542187496
H           -5.29223570620378       -4.96637458756866        1.20969236903657
H           -3.61139813139015       -4.39919835331056        1.35529357841967
H           -3.07077796610445       -2.21868765711333        2.10002662693138
H           -2.14562754426994        0.02067850696302        2.01001344383370
H           -3.02188875377605        2.38238012313952       -1.88813545054866
H           -1.65198530896729        3.25146700677685       -1.20556284570283
H           -1.81103374245520        0.23006524641044       -1.62116301628650
H           -0.99335688527853        1.37490212198123       -2.69443256973690
H           -0.67628064361333        1.65183887049447        0.61785727145403
H            0.63525841192517        1.98466369793744       -0.92314021190751
H            2.11132552493482       -0.65949692842762        0.72532613231274
H            2.30680473056284        0.98978251704176        0.11078972794250
H            2.76694198818247        0.06750735147374       -2.17075252200790
H            2.67954581369920       -1.57455627803457       -1.51167743520200
H            4.62169998552446        1.56295612048703       -1.56123579000624
H            6.92357674630170        1.75715815945204       -0.79119596719031
H            8.65159112996149        1.81001823324363        0.81701555159939
H            9.20136171144928        1.14042857828877       -0.74698991949293
H           10.03428838009630        0.69003240176163        0.76064937965836
H            7.05567174969094       -4.23621171795340        1.65347565939075
H            5.43848001056755       -3.50813558175093        1.79970565785717
H            6.02060041905269       -4.09420497120334        0.21253282636366
H            4.40102758497114       -2.40127266373392       -0.00490198249042
H           -0.22071299714579       -1.61775583601871       -1.65116008982042
H           -1.01972258008625       -1.24102717432227       -0.10935206830928
H            0.55899954147532       -2.04486085926761       -0.12333730421426
H           -4.63991875734388        2.95501092798550       -0.18098088071825
H           -3.76095216473977        2.90314704960906        2.73380821053058
H           -4.87457614030224        1.75695641518947        1.97884603101694
H           -5.31925552549014        3.45579210326349        2.12325564252114
H           -2.60025590131176        4.69225046143352        1.27368918226171
H           -3.03987406413880        4.81897652321898       -0.43870975059559
H           -4.22191740670577        5.18069648090034        0.80616693961239
H           -0.59832433787845        2.77744694953323        2.72958984441332
72
 energy: -5.957561542293 xtb: 6.6.1 (8d0f1dd)
N           -1.50486097283545        2.78592064933529        2.24027287867958
C           -1.55271495036874        2.15558393713036        1.15511612116053
C           -2.74523551529370        2.06068372188503        0.24836944693498
C           -3.31625121089251        0.65215239797635        0.33133537687159
C           -4.31059899217696        0.26278358758273       -0.56946306097084
C           -4.84319421283190       -1.01326736487837       -0.53034538848519
O           -5.81298235733724       -1.48270521185748       -1.36382594592775
C           -6.38260320759233       -0.59804640206195       -2.29278230570677
C           -4.39268732239755       -1.93964670677621        0.44020453658201
O           -4.98493476900571       -3.16761213647674        0.40799198205301
C           -4.65936338046312       -4.10144832069934        1.40714574430182
C           -3.42059884531040       -1.54280309559753        1.33727678929537
C           -2.88688908270134       -0.26003049186928        1.27860513947788
C           -2.19476281407335        2.29675186747474       -1.18267619004811
C           -1.26722216962444        1.17142651708083       -1.67011112015990
C            0.00478973913434        1.12267376525020       -0.90645374218649
N            0.63447233490815       -0.05212988427171       -0.56519887059742
C            2.00340959207210       -0.03674838147363       -0.16336708020703
C            2.93851759240175       -0.54380110333873       -1.28297943518753
C            4.36234558799269       -0.43568993839221       -0.84065265435458
C            5.07879375475374        0.72887789963741       -1.04462545672374
C            6.38923102953415        0.84106267607941       -0.60446011871216
C            6.99960572224557       -0.20969616425131        0.05631869919732
O            8.27765201319529       -0.21146586681522        0.52821860953685
C            9.07105060224886        0.92810401636855        0.32053965894792
C            6.27318787664982       -1.40166886609898        0.27856466519611
O            6.95611164182655       -2.38341795904797        0.93118692081209
C            6.32018448399135       -3.61491556975001        1.15402960624929
C            4.96887459465110       -1.49553524231008       -0.16573282079090
C           -0.04763653285055       -1.31103046176303       -0.62610518830831
C           -3.87217502621142        3.07515088688212        0.58024526851528
C           -4.50639245502789        2.77182844407560        1.93624034240381
C           -3.40133532733105        4.52717900571602        0.54270122278509
H           -4.68365333020777        0.98320333694051       -1.28372271678496
H           -6.83359551332197        0.26869774792862       -1.79842438454512
H           -7.16058226361636       -1.16717875839643       -2.79816469069215
H           -5.64737758563987       -0.25801634497204       -3.03038230487856
H           -4.88118299028848       -3.71889163519431        2.40934696018174
H           -5.28582795975308       -4.97044796360004        1.20958175656262
H           -3.60675094258505       -4.40091966704455        1.35851950842552
H           -3.06890918389814       -2.21992894403872        2.10025489353943
H           -2.14634102638506        0.02204226051149        2.01116142550089
H           -3.02777889252222        2.38153237855100       -1.88081445098626
H           -1.64751117955319        3.24097837768438       -1.20101327272137
H           -1.80561041688454        0.22416082863193       -1.61810314745290
H           -1.02396518313117        1.37037650922452       -2.72180767372606
H           -0.68566033644418        1.64958927332093        0.66517014961970
H            0.64699827439362        1.98505276385133       -0.95484954799453
H            2.12312088749650       -0.66914060160525        0.72310933146904
H            2.29982683374925        0.98095789640115        0.10455406038262
H            2.76998356437119        0.06380251161043       -2.17391838829305
H            2.68486644211920       -1.57871345822231       -1.51749955102725
H            4.62427290939403        1.55891797593740       -1.56498892578078
H            6.92637532050468        1.75722526579383       -0.79042966167683
H            8.65304443005517        1.81057056282675        0.81711155497611
H            9.20429892733370        1.14044951341672       -0.74577231022256
H           10.03741899913540        0.69151065919037        0.76292157598791
H            7.05962114889715       -4.23597761321472        1.65729686106649
H            5.44145688819073       -3.50775963619627        1.79946257918128
H            6.02571011946049       -4.09549296750336        0.21469257736716
H            4.40545115179129       -2.40271920517296       -0.00898290234293
H           -0.21866748236342       -1.63198605392250       -1.65989721025215
H           -1.01344519777809       -1.25219147656661       -0.11577201457306
H            0.56342599140104       -2.05974244116019       -0.12744487917441
H           -4.64434220359340        2.95159508093052       -0.18845102931528
H           -3.77382299838491        2.89854516223874        2.72611524597256
H           -4.88551099492459        1.75299277378173        1.96858861679001
H           -5.33481475090688        3.45367514667138        2.11279932710306
H           -2.61253276518017        4.68907205471364        1.27019273032606
H           -3.04161916417967        4.81118142729757       -0.44319101403413
H           -4.23533638691626        5.17852236011456        0.79294187074167
H           -0.61479743019981        2.78483125800635        2.73509108706325
72
 energy: -6.162339043921 xtb: 6.6.1 (8d0f1dd)
N           -1.51817965925169        2.80100117843697        2.24725279470987
C           -1.55658946511039        2.15840946818503        1.16828567795408
C           -2.74402373620715        2.06114652382503        0.25414472488782
C           -3.31822865419281        0.65581587339959        0.33869699491141
C           -4.31931568584153        0.27885248102748       -0.56075928005830
C           -4.84011698938783       -1.00437297404189       -0.52862676442433
O           -5.80718346343176       -1.47631777234640       -1.36349593617149
C           -6.36865160407255       -0.58645141606431       -2.29107064756158
C           -4.38789436938792       -1.93714047357735        0.43816249684280
O           -4.97863887244603       -3.16786946409961        0.40593081835165
C           -4.65576575943987       -4.10294177062405        1.40663091978242
C           -3.41877934335611       -1.54272259179536        1.33926618229395
C           -2.88643253750287       -0.25950747938899        1.28178561610572
C           -2.19346251949861        2.29100795775465       -1.17881161381770
C           -1.27037580628150        1.16427954516442       -1.67390440482263
C            0.00678730533865        1.11575162762590       -0.91927977348543
N            0.63572849670142       -0.05887309247591       -0.56760917053820
C            2.00572554510711       -0.04257301568566       -0.16826698671962
C            2.94317940912926       -0.54776529418565       -1.28748544111205
C            4.36654739705008       -0.43844083385536       -0.84437209989154
C            5.08248615376293        0.72656669916239       -1.04753650759758
C            6.39245559300848        0.83970170188883       -0.60591707638669
C            7.00316749082705       -0.21064521341853        0.05536278613846
O            8.28100975455832       -0.21173971471070        0.52816920074556
C            9.07369851215874        0.92843007551390        0.32091689313471
C            6.27718921578180       -1.40283651893283        0.27735356998689
O            6.95991095647265       -2.38422782475500        0.93122160397516
C            6.32376561037376       -3.61548473737516        1.15456929578753
C            4.97335969865925       -1.49756486380035       -0.16846119430338
C           -0.04367008035205       -1.31990736646805       -0.63037578823913
C           -3.87599201075624        3.07269416589187        0.57654983962457
C           -4.51920970739570        2.76898134069105        1.92812314198711
C           -3.40951480943132        4.52497122609602        0.53665144653773
H           -4.70832501932472        1.02008033635179       -1.24995786078806
H           -6.81697277343457        0.27910606169428       -1.79276194627901
H           -7.14650748324541       -1.14800299952313       -2.80391342865808
H           -5.62552485207228       -0.24623897858835       -3.02058825380428
H           -4.88029235036191       -3.72292083709782        2.40942824493604
H           -5.28042709554120       -4.97359047482919        1.20833707082946
H           -3.60335266406019       -4.40331612970463        1.36176109776224
H           -3.06778186842413       -2.22128698993415        2.10165633817197
H           -2.14657823501868        0.02179082202924        2.01515837805299
H           -3.02822462488488        2.37899745992541       -1.87477031008675
H           -1.64224712420738        3.23262035255024       -1.19882180756734
H           -1.80716730340688        0.21623972296616       -1.61270574969107
H           -1.04115550980928        1.36189139335483       -2.73053730202024
H           -0.68738100139672        1.64640128242371        0.69458183861472
H            0.64681452618802        1.98059018615053       -0.96682406418935
H            2.12831791035664       -0.67383457554336        0.71896690757881
H            2.29793680893056        0.97642717062583        0.09819983853427
H            2.77492365108852        0.05959710489718       -2.17861761348170
H            2.69126049792897       -1.58301681580850       -1.52278389693457
H            4.62754932615586        1.55614013176404       -1.56818989214363
H            6.92916519460226        1.75622629678193       -0.79164247976146
H            8.65459013313426        1.81052391016350        0.81722139296365
H            9.20737082950592        1.14126000419478       -0.74527815092001
H           10.04011736000005        0.69281848027862        0.76378448197281
H            7.06248690920742       -4.23632891015779        1.65919570929021
H            5.44440330078604       -3.50747001011302        1.79887321082941
H            6.02992267435885       -4.09709308568938        0.21557394632616
H            4.41031066280571       -2.40498251546587       -0.01182344647993
H           -0.21398762265216       -1.64203111836872       -1.66437224951683
H           -1.01008402293524       -1.26225340711161       -0.12159990186741
H            0.56662552241476       -2.06878429790507       -0.13039117400346
H           -4.64449353492115        2.94643636716794       -0.19581043113952
H           -3.79138782554649        2.89533239070705        2.72186158867755
H           -4.89762654548342        1.74961800828792        1.95774160169937
H           -5.34932004727638        3.45030103122251        2.09929055868548
H           -2.62610833381113        4.69036890737087        1.26814447240808
H           -3.04329728079552        4.80469175139870       -0.44796251214572
H           -4.24744225932478        5.17461418473215        0.77798683321002
H           -0.63314801882476        2.80103690731569        2.75081426992778
72
 energy: -6.101592765614 xtb: 6.6.1 (8d0f1dd)
N           -1.53189702830482        2.81630361238504        2.25314439414172
C           -1.56064816685845        2.16152411870297        1.18071830670311
C           -2.74342482322931        2.06148999988076        0.26011001697455
C           -3.32149690744555        0.65927911039324        0.34648185934960
C           -4.33039010436956        0.29466445591199       -0.55043443218787
C           -4.84017541066191       -0.99496771737609       -0.52488967551813
O           -5.80262980726882       -1.46996105439219       -1.36256630238045
C           -6.35536795995312       -0.57498091292964       -2.28925734477253
C           -4.38343614635686       -1.93431121421084        0.43644756975417
O           -4.97195297242681       -3.16793816069381        0.40350032291030
C           -4.65149707657011       -4.10399206163972        1.40569910627246
C           -3.41656146684108       -1.54258740927471        1.34100639480248
C           -2.88523782100378       -0.25912018872110        1.28461521794048
C           -2.19232706224766        2.28522953869085       -1.17412598838780
C           -1.27429390434333        1.15602768412178       -1.67502528547533
C            0.00888286347437        1.10719096443503       -0.93155493693327
N            0.63725349544677       -0.06659432720599       -0.57047499193832
C            2.00806169739460       -0.04855045973776       -0.17343511272013
C            2.94766857688237       -0.55177932166545       -1.29225424344192
C            4.37065927254653       -0.44131445395193       -0.84843648846911
C            5.08613485713374        0.72414371628298       -1.05071499180421
C            6.39553439623854        0.83838132556886       -0.60742233450821
C            7.00644653757281       -0.21149250562270        0.05449806381981
O            8.28396486576033       -0.21192412746441        0.52861992761812
C            9.07624806043425        0.92857293638025        0.32168520912908
C            6.28097811075009       -1.40394447144245        0.27601860680254
O            6.96362312214489       -2.38467098215874        0.93143675244899
C            6.32772649322407       -3.61586123905653        1.15546438867656
C            4.97775314011204       -1.49971667497560       -0.17157314227519
C           -0.03983699398300       -1.32908702717300       -0.63566455885904
C           -3.87986444645951        3.07050163095053        0.57305822492847
C           -4.53158988716841        2.76611875497332        1.92029107894681
C           -3.41766099339783        4.52311477687681        0.53064621784052
H           -4.73263125948336        1.05603734090783       -1.21598557305883
H           -6.80071570991472        0.28962539713911       -1.78722488952163
H           -7.13308519933130       -1.12868133717478       -2.80985489549966
H           -5.60426705602671       -0.23475205560628       -3.01053047828597
H           -4.87883887570200       -3.72640781017734        2.40893583831781
H           -5.27452348883374       -4.97604719126816        1.20668332648334
H           -3.59936564511064       -4.40561376452852        1.36466207276209
H           -3.06680437413776       -2.22221786067293        2.10335402964387
H           -2.14591020975654        0.02165984655999        2.01854111749871
H           -3.02894021479242        2.37634383345619       -1.86779286957219
H           -1.63715021289492        3.22438336699315       -1.19613172272399
H           -1.80999840464568        0.20771758129789       -1.60681618363779
H           -1.05856675034199        1.35294671457331       -2.73607091087136
H           -0.68927156465613        1.64327340491813        0.72329211863977
H            0.64710352607896        1.97438434584044       -0.97946949183879
H            2.13354631479819       -0.67887368831441        0.71424241679311
H            2.29656932987290        0.97154365743958        0.09215888908992
H            2.77924737355390        0.05564971715628       -2.18326803106257
H            2.69707034020647       -1.58723867563181       -1.52838261995622
H            4.63072046933605        1.55331886201641       -1.57147180971295
H            6.93169072667903        1.75546861724250       -0.79224139300829
H            8.65634367451226        1.81055188259445        0.81753939816973
H            9.21049132363436        1.14151679377848       -0.74444466627029
H           10.04259878754212        0.69367105704364        0.76512761862724
H            7.06606551561082       -4.23605123961080        1.66148281005487
H            5.44769550420032       -3.50745028027448        1.79871132876225
H            6.03485573009937       -4.09868199536896        0.21679443128868
H            4.41498324542558       -2.40729056396155       -0.01505133669712
H           -0.21023369308550       -1.65155886070799       -1.66993156647056
H           -1.00648013968895       -1.27288694667897       -0.12744509978337
H            0.57053760819408       -2.07803211076390       -0.13555112193984
H           -4.64447999946026        2.94162612742485       -0.20302012630150
H           -3.80830774842927        2.89208964976904        2.71772288712563
H           -4.90944014276784        1.74627968300858        1.94718675287115
H           -5.36317713370164        3.44690514384157        2.08647231519996
H           -2.63960616369129        4.69193858521793        1.26609138342035
H           -3.04523521155404        4.79847154184158       -0.45279378849765
H           -4.25925663595539        5.17114957067169        0.76334147540445
H           -0.65197267438329        2.81737839179059        2.76501703369575
72
 energy: -5.809008843329 xtb: 6.6.1 (8d0f1dd)
N           -1.54611671096306        2.83259565710061        2.25790639630350
C           -1.56470673081514        2.16567304947250        1.19252454539624
C           -2.74289738656071        2.06190467645495        0.26601718488807
C           -3.32525383033038        0.66286363349012        0.35475610907753
C           -4.34310172103388        0.31063457513630       -0.53804527084288
C           -4.84129686064400       -0.98519651325698       -0.51937116395938
O           -5.79867426992224       -1.46327569695454       -1.36079778723616
C           -6.34219738948916       -0.56355048897348       -2.28726719138650
C           -4.37886072697777       -1.93149361819940        0.43492497560385
O           -4.96489673852260       -3.16796993068631        0.40054622987030
C           -4.64690130850120       -4.10492176542369        1.40414893682292
C           -3.41435884686064       -1.54239590165135        1.34299563334444
C           -2.88420631363491       -0.25861263676392        1.28776456827594
C           -2.19102766089743        2.27949188957120       -1.16923364173661
C           -1.27872726919579        1.14692726513809       -1.67529334685008
C            0.01049176510381        1.09775419124609       -0.94288625505922
N            0.63901546650355       -0.07505316042349       -0.57490777732129
C            2.01021542509519       -0.05444481679900       -0.17922066479782
C            2.95221637623868       -0.55581276003884       -1.29724746693770
C            4.37476384601907       -0.44424300401667       -0.85242388323220
C            5.08975826294787        0.72166315132173       -1.05379562082813
C            6.39857863913831        0.83706456791427       -0.60888809191699
C            7.00968284476027       -0.21233329914216        0.05364193071467
O            8.28689314470532       -0.21208546876495        0.52910272644595
C            9.07876348483859        0.92872692410637        0.32249867931520
C            6.28473555483686       -1.40505828905843        0.27466362244992
O            6.96735779579376       -2.38506796152309        0.93163924097825
C            6.33172063753873       -3.61618559350648        1.15636462158488
C            4.98211713049026       -1.50190597104699       -0.17466172649359
C           -0.03623157638969       -1.33842627385143       -0.64174319131309
C           -3.88348856960877        3.06843460222840        0.56972031918277
C           -4.54380767556695        2.76320362971702        1.91252092653234
C           -3.42569776292571        4.52147980765637        0.52466861754932
H           -4.75626640203921        1.09152517850409       -1.18107891185929
H           -6.78459755530526        0.30021365146273       -1.78180402402901
H           -7.11958940762829       -1.10939466122388       -2.81594600475811
H           -5.58307783140434       -0.22340320659006       -3.00014008145628
H           -4.87728521821821       -3.72985178364430        2.40784983037236
H           -5.26826971142640       -4.97820227950094        1.20383939921610
H           -3.59506856672348       -4.40792041111679        1.36744591912141
H           -3.06597976111299       -2.22300706813526        2.10544255982124
H           -2.14496910948826        0.02141658590066        2.02204384204524
H           -3.02954729974697        2.37395600751537       -1.86056375060432
H           -1.63164285254821        3.21618228573355       -1.19318846959499
H           -1.81368713690102        0.19889318285323       -1.60047537335068
H           -1.07635909868070        1.34292649973748       -2.74028890612780
H           -0.69152020817894        1.63940222921352        0.75205329361791
H            0.64791081148825        1.96641550890823       -0.99214947914459
H            2.13864809978154       -0.68366705163478        0.70899217532770
H            2.29510758090219        0.96673258877453        0.08569958745396
H            2.78368096249531        0.05178161726789       -2.18808146730210
H            2.70275485015591       -1.59140901938505       -1.53420962534748
H            4.63384872773735        1.55040334484772       -1.57470722149100
H            6.93416682447278        1.75473707501784       -0.79267959524310
H            8.65812474021513        1.81062758326807        0.81790250224831
H            9.21358651967781        1.14174279064975       -0.74357332741715
H           10.04503749952728        0.69452659109583        0.76650959300416
H            7.06970634838505       -4.23565060415106        1.66379953038280
H            5.45100966886831       -3.50743142189634        1.79856896541347
H            6.03986316939994       -4.10024880285649        0.21800902485775
H            4.41958667187392       -2.40962245573189       -0.01836237793404
H           -0.20684319611992       -1.66128251316068       -1.67608525820090
H           -1.00299879034985       -1.28352282754865       -0.13366720431980
H            0.57445612637764       -2.08718504893458       -0.14158101068548
H           -4.64374608098014        2.93675447480483       -0.21024946849625
H           -3.82531175433208        2.88886665931144        2.71387475118581
H           -4.92125180890247        1.74296199665184        1.93675606699235
H           -5.37680607299324        3.44345619624570        2.07360038973371
H           -2.65313534454181        4.69445149254562        1.26410484675981
H           -3.04715270878610        4.79244054574409       -0.45761898365674
H           -4.27096949069625        5.16779146102118        0.74867586484630
H           -0.67172386594831        2.83386322947713        2.77835392934178
72
 energy: -5.297566223528 xtb: 6.6.1 (8d0f1dd)
N           -1.56064632432188        2.84937455490937        2.26228734964260
C           -1.56900352349624        2.17084389597049        1.20402649784633
C           -2.74258025620117        2.06251823280440        0.27186859163359
C           -3.32935773287991        0.66673561408911        0.36306992097009
C           -4.35652290347847        0.32633034550412       -0.52465884017120
C           -4.84300246359716       -0.97556744605054       -0.51330468998801
O           -5.79551531996072       -1.45625138136018       -1.35854445184238
C           -6.32925272754689       -0.55192483060922       -2.28523252874123
C           -4.37479123813210       -1.92840865670680        0.43386081409813
O           -4.95786359441050       -3.16772763397015        0.39753745982020
C           -4.64222812381797       -4.10563012986233        1.40235831790325
C           -3.41293188978772       -1.54163716359746        1.34545218772447
C           -2.88416922765096       -0.25735527293152        1.29136222346186
C           -2.18974913272928        2.27394817407312       -1.16419850130420
C           -1.28342713010424        1.13781483683013       -1.67487983329008
C            0.01173886020293        1.08779108925199       -0.95369153107020
N            0.64077877812407       -0.08391712517503       -0.58042371214251
C            2.01217568252390       -0.06031917864371       -0.18541460238672
C            2.95677476922189       -0.55983599938359       -1.30239820449996
C            4.37886273745229       -0.44718326082638       -0.85631554563964