25
 energy: -41.173660483094 gnorm: 5.855564163204 xtb: 6.6.1 (8d0f1dd)
C            2.96838584438304        1.08786672252264        0.57961847916830
N            2.26945425007677       -0.03105032645149       -0.06183192398397
C            2.95047853669668       -0.93315618021833       -0.62366672398814
N            3.64310811817055       -1.76457657263809       -1.11184616381782
C            0.17983330507510       -1.25696770079236        0.15530523220391
C            0.84275988616445       -0.08306442448970       -0.02721336909583
C            0.10079090872148        1.16253502304818       -0.23370428025599
O            0.61302749796631        2.23264076319437       -0.47825335676999
N           -1.27076013824304        1.00939402359777       -0.12853923838318
C           -2.10445009839966        2.19388009582796       -0.26830563673338
C           -1.95621070253850       -0.17420014358871        0.05803831785350
O           -3.15404930532253       -0.22675114486792        0.10897273730391
N           -1.16078049528460       -1.32172677579365        0.18811246965096
C           -1.83432725788178       -2.59323311908603        0.36130061204719
H            2.65806149525532        1.14874108571741        1.62255288616970
H            4.04292159264192        0.92982177042941        0.52508266860012
H            2.70194741711030        2.01743693888023        0.07353297951585
H            3.94484123999992       -2.11089027003785       -1.29886833403738
H           -1.45580268162374        3.06471392694031       -0.32152532968809
H           -2.70768081925519        2.12029237994269       -1.17309277164437
H           -2.77579159823831        2.26519839520082        0.58671728092311
H           -1.44900478694070       -3.11033343204010        1.23878250558585
H           -1.69647909056592       -3.21934008369626       -0.52089538065892
H           -2.89742905901869       -2.39636406552164        0.49255076620278
H            0.70758745512340       -2.19262834448222        0.28834719173123
25
 energy: -42.034314493998 gnorm: 1.191424885423 xtb: 6.6.1 (8d0f1dd)
C            2.96840331657556        1.08825079242184        0.57985280966618
N            2.26618977571145       -0.02677348998220       -0.05907786284688
C            2.92724645428889       -0.90614457800311       -0.60836548743925
N            3.48935126492912       -1.58825615291577       -1.01677083411330
C            0.17981250821199       -1.25695412544486        0.15530481789093
C            0.84233093850923       -0.08280291362339       -0.02708657408980
C            0.10075745684383        1.16254850943250       -0.23370505853027
O            0.61301909996334        2.23264894799030       -0.47824999389891
N           -1.27077465191286        1.00939570534371       -0.12855995121957
C           -2.10444909017651        2.19388613044225       -0.26831594551921
C           -1.95621727107873       -0.17422159752493        0.05804307920445
O           -3.15405008052047       -0.22674288411089        0.10897224588428
N           -1.16077317649936       -1.32173740407030        0.18811889366775
C           -1.83432957364857       -2.59323326396901        0.36129908368569
H            2.65808389048352        1.14874915480817        1.62257958990103
H            4.04289775912558        0.92981040844904        0.52506501398469
H            2.70194114059290        2.01745534748388        0.07355967647186
H            4.12558099483338       -2.31917481536931       -1.41237312092923
H           -1.45580406603387        3.06471193287274       -0.32153538398781
H           -2.70768348015712        2.12028909669811       -1.17310159160767
H           -2.77579264711066        2.26520060338687        0.58671091743461
H           -1.44900334392616       -3.11033068047675        1.23878930102965
H           -1.69647393917493       -3.21934310475784       -0.52088756076708
H           -2.89742626992821       -2.39636284405234        0.49255326568128
H            0.70759450417123       -2.19263023343129        0.28835228834591
25
 energy: -42.136720188712 gnorm: 0.325741621241 xtb: 6.6.1 (8d0f1dd)
C            2.96683829845336        1.10822197197640        0.59211172605119
N            2.21764022119671        0.03600057116950       -0.01717434523644
C            2.84907951434635       -0.81009029849807       -0.55000299109347
N            3.57336479823216       -1.69153312572999       -1.08045966766374
C            0.17776479721528       -1.25520474345417        0.15685045845351
C            0.82010960054610       -0.07035560348982       -0.01659676626801
C            0.09373457552065        1.16621331649563       -0.23465932235717
O            0.61217274452672        2.23432202693624       -0.47851359350918
N           -1.27410686209318        1.01020126322710       -0.12914315874680
C           -2.10584113239200        2.19451838092807       -0.26876550523752
C           -1.95723192801286       -0.17428768489710        0.05829928137859
O           -3.15512685061688       -0.22724006251123        0.10879305526287
N           -1.16307192940149       -1.32224544982196        0.18775965013232
C           -1.83459941268179       -2.59385963646794        0.36117476979768
H            2.65897326935287        1.15423292023103        1.62942711232440
H            4.04002280405833        0.92885905826968        0.52472458481409
H            2.70223236190663        2.02503339880786        0.07518992129801
H            4.21309988711604       -2.42731884167086       -1.47832696188760
H           -1.45588270078530        3.06437247855339       -0.32183100229707
H           -2.70792496438766        2.12027039265765       -1.17365359786471
H           -2.77605590320990        2.26538765388424        0.58654204754405
H           -1.44905449341569       -3.11018552602213        1.23906789590391
H           -1.69644958278473       -3.21967300634782       -0.52094288538892
H           -2.89736577980573       -2.39635597607913        0.49253464136182
H            0.70811018118858       -2.19104493654915        0.28876627112754
25
 energy: -42.159682547799 gnorm: 0.109390406065 xtb: 6.6.1 (8d0f1dd)
C            2.95973274662346        1.12383594953376        0.60463797813759
N            2.22917101643459        0.02676742321684       -0.01577635412886
C            2.90377920373624       -0.87454840215675       -0.58741448051749
N            3.59952793981775       -1.72609283721280       -1.10257022691989
C            0.17209865768433       -1.24801220805927        0.16577976961744
C            0.81600347844666       -0.06201995646676       -0.00294353647180
C            0.08151423574688        1.17365663363044       -0.22834519922476
O            0.59991818052923        2.24064260850368       -0.47746921713849
N           -1.28641705143006        1.01449433915323       -0.12908603592550
C           -2.11605922965522        2.19853581999941       -0.27040060604956
C           -1.96579963698371       -0.17267535249723        0.05810676631593
O           -3.16329315165004       -0.22891169550538        0.10777596422772
N           -1.16833445443707       -1.31915407507059        0.18873291329848
C           -1.83639851733339       -2.59329052919716        0.36053023330548
H            2.66631120483935        1.18197706132525        1.65042104412419
H            4.03008326616469        0.93757082153072        0.52988187188875
H            2.70467360434583        2.05059050056593        0.09143536512167
H            4.23522567120096       -2.45595004253875       -1.50059803098311
H           -1.46146771990510        3.06521373252725       -0.32292341475581
H           -2.71563995393663        2.12409103380401       -1.17667414643904
H           -2.78476682780975        2.27001851824696        0.58577165208007
H           -1.44997564698763       -3.10866927992187        1.23878862433089
H           -1.69588454744655       -3.21945483669178       -0.52109932447759
H           -2.89961784578059       -2.39829991468779        0.49156215087501
H            0.70604689185832       -2.18207677043387        0.29304785760805
25
 energy: -42.164583984259 gnorm: 0.042100014348 xtb: 6.6.1 (8d0f1dd)
C            2.95938366320947        1.12003575259270        0.60471920542304
N            2.24802823411819        0.00484790747081       -0.02506339485168
C            2.93065010429706       -0.90488871728623       -0.60158204444971
N            3.60258837350911       -1.72685038188183       -1.10493530942292
C            0.17209244009740       -1.24461497339640        0.16898325654580
C            0.82479850440746       -0.06365540991291       -0.00280642254411
C            0.08048987879029        1.17486992824845       -0.22302786647492
O            0.59539363896230        2.24257479514033       -0.47585267214922
N           -1.29004789100439        1.01618552183062       -0.12758019523958
C           -2.12290860760370        2.19960320637199       -0.27155533132620
C           -1.96905398478134       -0.17126213913865        0.05883379044111
O           -3.16711385310493       -0.22876903992353        0.10746440514677
N           -1.16965883322416       -1.31602577773317        0.18961324431294
C           -1.83766545122728       -2.59068314727517        0.36053348553120
H            2.66770316222994        1.18683151416733        1.65299242339547
H            4.03026386312994        0.94618508226765        0.53452077347693
H            2.70124315971213        2.05281504677855        0.10001071905987
H            4.23339427445507       -2.44825239373077       -1.50266449541930
H           -1.46985633839753        3.06732710734464       -0.32470142181187
H           -2.72301851346139        2.12622636727125       -1.17787152723724
H           -2.79358964470583        2.27388054995328        0.58322418008898
H           -1.45084890581193       -3.10596509720358        1.23866780226834
H           -1.69563790542674       -3.21663846590771       -0.52110043022761
H           -2.90153460199257       -2.39810598414535        0.49096294708368
H            0.70533674789596       -2.17743271030484        0.29938649627962
25
 energy: -42.165165271906 gnorm: 0.048872841665 xtb: 6.6.1 (8d0f1dd)
C            2.95974303798128        1.11482622838008        0.60571066719211
N            2.25598009851061       -0.00390695803421       -0.02825995321514
C            2.93778543893124       -0.90853822678898       -0.60459915010160
N            3.60407087340900       -1.72093770889188       -1.11159083649217
C            0.17302365833399       -1.24272121516947        0.17126235293045
C            0.83020768641088       -0.06509682421702       -0.00434046188276
C            0.08343199675663        1.17475247385687       -0.22305681654039
O            0.59603973314465        2.24406112424123       -0.47309153576079
N           -1.28827749461445        1.01671518179849       -0.12714050741071
C           -2.12407596756441        2.19900202253400       -0.27344278684499
C           -1.96849829168771       -0.16987923645734        0.05961371702584
O           -3.16674703652049       -0.22731595308767        0.10681616146868
N           -1.16910547419511       -1.31366945873742        0.19188082117024
C           -1.83729287183272       -2.58842969758676        0.36196573568899
H            2.66363197731175        1.17736676626762        1.65292285702166
H            4.03292857948593        0.95389680643917        0.53861852038976
H            2.69116660563088        2.04626029755482        0.10424707282698
H            4.22472322693228       -2.44413229765392       -1.50516088459125
H           -1.47463586741031        3.06920045044127       -0.32828511288456
H           -2.72462202187929        2.12263819094525       -1.17949781429335
H           -2.79652123093033        2.27379545383463        0.58020092857172
H           -1.45178317806064       -3.10384604500223        1.24051753465816
H           -1.69410750872759       -3.21387499660265       -0.51988087289662
H           -2.90142441061608       -2.39615833097972        0.49071955076529
H            0.70478995527253       -2.17576950548665        0.30504243110384
25
 energy: -42.165737782541 gnorm: 0.043183487209 xtb: 6.6.1 (8d0f1dd)
C            2.95870312225141        1.10621666484817        0.61038773737459
N            2.26369364220603       -0.01511409167066       -0.02915020315595
C            2.94182708261178       -0.91277445586465       -0.60260750405223
N            3.60678187678623       -1.70955721404595       -1.12939503167366
C            0.17363484299271       -1.24048743731805        0.17685007120143
C            0.83594504278454       -0.06719599747701       -0.00538776600328
C            0.08862916243774        1.17443611541517       -0.22376402709956
O            0.59823078208537        2.24584895837431       -0.47024321452517
N           -1.28422274018196        1.01711302707083       -0.12768870049401
C           -2.12327658135759        2.19759780194686       -0.27901504063806
C           -1.96703420767164       -0.16776052153438        0.06023927797859
O           -3.16546222847383       -0.22428367070873        0.10450284348869
N           -1.16852207195179       -1.31052614659388        0.19725239635101
C           -1.83695636839090       -2.58531679092132        0.36629315164379
H            2.65821548939049        1.15977784596374        1.65666120132650
H            4.03471206889301        0.96226490854632        0.54498331491606
H            2.67549009051703        2.03565791452226        0.11346167405598
H            4.21421436176983       -2.42856581770241       -1.52206025178243
H           -1.47860604511302        3.07094919218379       -0.33673442054945
H           -2.72373395647760        2.11487403731635       -1.18494728788922
H           -2.79792452626072        2.27302954626783        0.57314260701208
H           -1.45434234825820       -3.10033832621908        1.24619437849432
H           -1.69114763287928       -3.21049490718667       -0.51534044645032
H           -2.90149966453344       -2.39289116188074        0.49137198189272
H            0.70308232089623       -2.17422093173444        0.31616487647705
25
 energy: -42.166299450752 gnorm: 0.024780102988 xtb: 6.6.1 (8d0f1dd)
C            2.95468103308276        1.09736636107319        0.62337340706947
N            2.26964881113658       -0.02415741985301       -0.02635296595039
C            2.94733918620854       -0.91147656171291       -0.60266290075386
N            3.62061305413413       -1.67516671697556       -1.17401441192791
C            0.17428414520508       -1.23953242748852        0.18529546978105
C            0.84061658998641       -0.06991825474387       -0.00406379104143
C            0.09526430925177        1.17324164945492       -0.22435727949474
O            0.60235234447172        2.24619773773144       -0.46862902737601
N           -1.27829973946365        1.01638429609213       -0.13037184143330
C           -2.11910148088850        2.19513688337778       -0.28995663136543
C           -1.96445305991072       -0.16627381141710        0.05979410969380
O           -3.16302856816215       -0.22098110846597        0.09972154814504
N           -1.16761799095204       -1.30841542468443        0.20522859554564
C           -1.83693209645179       -2.58263195997921        0.37465955999557
H            2.65473403055025        1.13546505292327        1.67044290961679
H            4.03275250782129        0.97067511988972        0.55335009290053
H            2.65489790237319        2.02611778912058        0.13463152525182
H            4.18131584253800       -2.42343707764525       -1.54560928315433
H           -1.47797246277680        3.07056515541180       -0.35162640603842
H           -2.71826267291702        2.10407786195833       -1.19621541029024
H           -2.79595392138035        2.27289234463867        0.56041037715184
H           -1.45859781141601       -3.09571840184077        1.25739883254581
H           -1.68744261857975       -3.20920325865975       -0.50534527987150
H           -2.90194200738378       -2.38916726219199        0.49439090298047
H            0.70153618759515       -2.17380202441566        0.33167951591925
25
 energy: -42.166801437593 gnorm: 0.039056351929 xtb: 6.6.1 (8d0f1dd)
C            2.94817330827955        1.08624259018865        0.64957606035680
N            2.27346219660620       -0.03319210840822       -0.01493308871516
C            2.95353556552935       -0.91226829506550       -0.59751598114223
N            3.65705107078950       -1.59182638777592       -1.26673281267699
C            0.17445260199120       -1.24091470855241        0.19906669441470
C            0.84381758432891       -0.07444541826939        0.00192403044722
C            0.10322313442774        1.16951503628674       -0.22693630054141
O            0.60950074261324        2.24261421725894       -0.47140420812322
N           -1.27072429681003        1.01372375552589       -0.13769125005585
C           -2.11064854406857        2.19139828395220       -0.30991711844350
C           -1.96099371278463       -0.16590771601549        0.05756139096078
O           -3.15968850958836       -0.21764220131487        0.09127376435110
N           -1.16693107058155       -1.30804520779884        0.21710791466283
C           -1.83831803465169       -2.58057686044892        0.39005059561618
H            2.65479824325079        1.10298108214824        1.69920201737726
H            4.02725176455862        0.97677353821013        0.56797724556736
H            2.63092749792321        2.01650378865758        0.17408428492465
H            4.11311317620711       -2.42825185469634       -1.58411829257012
H           -1.47044108977738        3.06679332949228       -0.37764026341747
H           -2.70731561941366        2.09029448921239       -1.21681340888688
H           -2.78956974214562        2.27543895238688        0.53823807068707
H           -1.46618773779865       -3.08884559355234        1.27817122813173
H           -1.68383769613090       -3.21194580557276       -0.48563677241422
H           -2.90383018114299       -2.38483105570149        0.50195618859793
H            0.69961086246082       -2.17534730854935        0.35432162879105
25
 energy: -42.167370290305 gnorm: 0.016204364108 xtb: 6.6.1 (8d0f1dd)
C            2.94332009749233        1.08360654878390        0.67035720858215
N            2.27430941150933       -0.02421739375965       -0.02040338064087
C            2.96197858573630       -0.88490631841659       -0.63440527603291
N            3.65185877407836       -1.56825504387924       -1.30358212958643
C            0.17852972697131       -1.24175241632336        0.20021550539285
C            0.84559051306074       -0.07367779685992        0.00079349937782
C            0.10642154003887        1.16938044683467       -0.22810393224920
O            0.61198075109641        2.24229444265663       -0.47415129222787
N           -1.26671180879502        1.01160908680631       -0.14279933551808
C           -2.10500393425403        2.18857757705880       -0.32194451908585
C           -1.95669565811228       -0.16778883722268        0.05520043448381
O           -3.15520384736857       -0.21939931241682        0.08722544946550
N           -1.16250484796005       -1.30957725770504        0.22138883910421
C           -1.83513412963294       -2.58080040249705        0.40005605147639
H            2.65946583095322        1.07340226700498        1.72386396243426
H            4.02167825752159        0.98156474832235        0.57429392053005
H            2.61720654494566        2.02213300972595        0.21602974369524
H            4.05755338185234       -2.44549424441604       -1.58393801028896
H           -1.46290296435518        3.06226022611344       -0.39331576195153
H           -2.69978711771173        2.08273686489563       -1.22926991944937
H           -2.78399506336424        2.27715179343115        0.52547956011319
H           -1.46566795397321       -3.08484052870919        1.29175214820953
H           -1.67980215550832       -3.21722294705142       -0.47174402751070
H           -2.90071880131839       -2.38339552755044        0.50901258544721
H            0.70466638116979       -2.17515044322830        0.35916029412908
25
 energy: -42.167524041690 gnorm: 0.021778615321 xtb: 6.6.1 (8d0f1dd)
C            2.94299164934318        1.07146212683453        0.69986668216244
N            2.27226426525082       -0.01931572960249       -0.01786082242682
C            2.95570732521347       -0.87607851639184       -0.65604104735390
N            3.63226697239575       -1.54457319999550       -1.34830630677254
C            0.18148959613790       -1.24273233863762        0.20544615719082
C            0.84532439603699       -0.07300602821675        0.00191228390497
C            0.10784332704945        1.16763141361283       -0.23569889166815
O            0.61598183783320        2.23855909297922       -0.48461462707526
N           -1.26473725294550        1.00931363858357       -0.15405849095382
C           -2.10019192279105        2.18599171280352       -0.34217995277295
C           -1.95347959270112       -0.16964643285787        0.05131249314123
O           -3.15180875493296       -0.22156043164451        0.08110567378095
N           -1.15897277392429       -1.31107247609595        0.22826994374990
C           -1.83259678350003       -2.58042148064104        0.41748287196098
H            2.66971136345702        1.03384147644294        1.75581955807789
H            4.01958703549362        0.97376721780898        0.59028832409589
H            2.61350634392701        2.02209021364066        0.27285624191534
H            4.02228160574964       -2.40273000718454       -1.62780972000455
H           -1.45403966846410        3.05634724933069       -0.41977968264782
H           -2.69380323275922        2.07540679710073       -1.24922493950372
H           -2.77860995096550        2.28355436789395        0.50453739802527
H           -1.46573815127904       -3.07613601173559        1.31512595455857
H           -1.67528976878069       -3.22617806248637       -0.44718716719380
H           -2.89839292432483       -2.38179442616454        0.52204051563757
H            0.70913657355229       -2.17448162377858        0.36786916807122
25
 energy: -42.167267856004 gnorm: 0.025385367898 xtb: 6.6.1 (8d0f1dd)
C            2.94362120040307        1.05881521707474        0.73685151507543
N            2.27434094293945       -0.01231655699982       -0.01294072759860
C            2.95316561884993       -0.86221779779359       -0.67298003284499
N            3.64401018780408       -1.45880371812750       -1.44213761262982
C            0.18793371488550       -1.24339695473720        0.21049618054712
C            0.84864008777619       -0.07234912019289        0.00110487866758
C            0.11093377048063        1.16521044645905       -0.24609270849662
O            0.62222718658541        2.23433988963379       -0.49606636301032
N           -1.26156608063953        1.00635957816793       -0.16825538934743
C           -2.09573753715332        2.18190502929060       -0.36614503128780
C           -1.94803799745328       -0.17237961145750        0.04578630447376
O           -3.14621952557215       -0.22577156829853        0.07315261763505
N           -1.15218467752361       -1.31256853839889        0.23491154505271
C           -1.82673107781714       -2.57973717267940        0.43721481791098
H            2.67987230090140        0.98651421528968        1.79405357737532
H            4.01923002744507        0.97081679228030        0.61417455905292
H            2.60683884854646        2.02257878622621        0.34303363497649
H            3.91505238165492       -2.41866289557051       -1.64866184054839
H           -1.44670641496254        3.04975404126527       -0.45117045576735
H           -2.68896510895037        2.06561358244207       -1.27237387705673
H           -2.77381503310086        2.28943554142029        0.47962122658397
H           -1.46284297144218       -3.06494949686851        1.34212647696088
H           -1.66704014425999       -3.23685156468053       -0.41871626389064
H           -2.89286941554822       -2.38005509044210        0.53638175505910
H            0.71728123022311       -2.17304449170434        0.37780283100703
25
 energy: -42.167990459632 gnorm: 0.009329861029 xtb: 6.6.1 (8d0f1dd)
C            2.95043833312606        1.06562286316138        0.71359757382273
N            2.27316815678899       -0.00890636481950       -0.01796400561185
C            2.94527528335058       -0.86586987153126       -0.66446543010339
N            3.62225339786903       -1.51670938415853       -1.37541222939572
C            0.18699305079831       -1.24155010185823        0.20248567332185
C            0.84709951030366       -0.06960541163942       -0.00068512089694
C            0.10553320186678        1.16820127800738       -0.24091615948850
O            0.61818458966808        2.23716434298641       -0.48987545822566
N           -1.26747726182631        1.00917718095990       -0.16138162813299
C           -2.10389192235730        2.18488546772809       -0.35112573691770
C           -1.95149218208551       -0.17164707647902        0.04752017495080
O           -3.14979576246974       -0.22750590086818        0.07841075234801
N           -1.15378459928369       -1.31148830440726        0.22562648510134
C           -1.82589474222680       -2.58024937736768        0.42451926147536
H            2.67824114396146        1.01220309597413        1.76743037520255
H            4.02645830657328        0.96606840236847        0.60340638631387
H            2.62471884814336        2.02501275965867        0.30597651783456
H            3.97199726210612       -2.41632416046078       -1.62641609816778
H           -1.45645830479653        3.05441903086705       -0.43108118643655
H           -2.69876408258739        2.07497843539877       -1.25736467228344
H           -2.78186333007561        2.28657142868166        0.49537656236738
H           -1.45696844668819       -3.06871600401002        1.32534029188017
H           -1.66888340009333       -3.23295378959940       -0.43494058826761
H           -2.89182292467222       -2.38301256161671        0.52912219149500
H            0.71716738867900       -2.17152743537748        0.36398768571416
25
 energy: -42.168082484948 gnorm: 0.008245919776 xtb: 6.6.1 (8d0f1dd)
C            2.95255981392755        1.06096255381126        0.72130686276854
N            2.27396617519443       -0.00744907587077       -0.01567225825720
C            2.93968086273033       -0.86493858398182       -0.66653486504278
N            3.61655911073148       -1.50447841746706       -1.39080853100789
C            0.18839794834281       -1.24090897828131        0.20352251300378
C            0.84780496837063       -0.06869196625977        0.00048124753133
C            0.10554921973468        1.16882398655709       -0.24112978482558
O            0.62029694903738        2.23692842030178       -0.48932974228298
N           -1.26771411613001        1.00945613196658       -0.16493051266568
C           -2.10468448822819        2.18435544268295       -0.35732035527644
C           -1.95061669807609       -0.17183537396811        0.04496708547845
O           -3.14889384057683       -0.22891604354609        0.07542759125708
N           -1.15225639662716       -1.31111886485508        0.22521519934198
C           -1.82328008594297       -2.57965434965508        0.42897113065433
H            2.68275145151004        1.00006101519543        1.77564241160622
H            4.02865917756968        0.96157802574815        0.60731618536827
H            2.62602130861114        2.02300226403675        0.32065164719001
H            3.95546607574482       -2.40986304765832       -1.63641641866429
H           -1.45773371865725        3.05420308669940       -0.43872366474974
H           -2.69943702998359        2.07247605270616       -1.26360130156008
H           -2.78314193313626        2.28743197957978        0.48868158014623
H           -1.45383720932500       -3.06389185732075        1.33197011177227
H           -1.66531997952615       -3.23580685974132       -0.42771429059132
H           -2.88940593966426       -2.38306061160236        0.53257708379039
H            0.71903988844083       -2.17042638747898        0.36662269291475
