25
 energy: -42.045878867486 gnorm: 0.002005851676 xtb: 6.6.1 (8d0f1dd)
C            3.29688627471373        1.18064053433148        0.01003611075300
N            2.35129237581002        0.09482151840211        0.00501004519695
C            2.67883851535681       -1.19131389233789       -0.01057303605848
N            1.57558219442814       -1.94598395657206        0.01308090088432
C            0.44924555582298       -1.10719257012586        0.05087724466239
C            0.99062577505936        0.20857431953715        0.04335628454704
C            0.23437830208856        1.46913256585976        0.03144013400337
O            0.78911347460661        2.57018897370734       -0.04031490441599
N           -1.07526272790744        1.27886861518728        0.09440741459251
C           -2.04446796953321        2.27852180901471        0.10581589625973
C           -4.01681794623427       -1.07717794756408       -0.63575184365379
O           -4.29559359814014       -0.02861747987201       -0.33996823747496
N           -0.78688141676332       -1.43623825499620        0.08721905388756
C           -1.33604029026237       -2.73187782878747        0.06846531003008
H            3.76941283531755        1.26189580718385        0.99030671589575
H            4.06662294729827        1.01202624264193       -0.74152571919036
H            2.76686551306788        2.11163733620650       -0.19860525033680
H            3.68538663545109       -1.56546699927150       -0.03743216753309
H           -1.61260280672635        3.28710108029217        0.16626608928282
H           -2.65479237909189        2.20713244703341       -0.80258720394994
H           -2.71180718386140        2.11686912858619        0.95957511857461
H           -1.18304652701141       -3.24147540424522        1.02764018379274
H           -0.92373315122534       -3.35686007534857       -0.73302832199892
H           -2.41367965100723       -2.62170360436113       -0.09140800494414
H            1.56090676283771       -2.95526382290121        0.00886980509011
