      -----------------------------------------------------------      
     |                   =====================                   |     
     |                           x T B                           |     
     |                   =====================                   |     
     |                         S. Grimme                         |     
     |          Mulliken Center for Theoretical Chemistry        |     
     |                    University of Bonn                     |     
      -----------------------------------------------------------      

   * xtb version 6.6.1 (8d0f1dd) compiled by 'conda@1efc2f54142f' on 2023-08-01

   xtb is free software: you can redistribute it and/or modify it under
   the terms of the GNU Lesser General Public License as published by
   the Free Software Foundation, either version 3 of the License, or
   (at your option) any later version.
   
   xtb is distributed in the hope that it will be useful,
   but WITHOUT ANY WARRANTY; without even the implied warranty of
   MERCHANTABILITY or FITNESS FOR A PARTICULAR PURPOSE.  See the
   GNU Lesser General Public License for more details.
   
   Cite this work as:
   * C. Bannwarth, E. Caldeweyher, S. Ehlert, A. Hansen, P. Pracht,
     J. Seibert, S. Spicher, S. Grimme, WIREs Comput. Mol. Sci., 2020, 11,
     e01493. DOI: 10.1002/wcms.1493
   
   for GFN2-xTB:
   * C. Bannwarth, S. Ehlert and S. Grimme., J. Chem. Theory Comput., 2019,
     15, 1652-1671. DOI: 10.1021/acs.jctc.8b01176
   for GFN1-xTB:
   * S. Grimme, C. Bannwarth, P. Shushkov, J. Chem. Theory Comput., 2017,
     13, 1989-2009. DOI: 10.1021/acs.jctc.7b00118
   for GFN0-xTB:
   * P. Pracht, E. Caldeweyher, S. Ehlert, S. Grimme, ChemRxiv, 2019, preprint.
     DOI: 10.26434/chemrxiv.8326202.v1
   for GFN-FF:
   * S. Spicher and S. Grimme, Angew. Chem. Int. Ed., 2020, 59, 15665-15673.
     DOI: 10.1002/anie.202004239
   
   for ALPB and GBSA implicit solvation:
   * S. Ehlert, M. Stahn, S. Spicher, S. Grimme, J. Chem. Theory Comput.,
     2021, 17, 4250-4261. DOI: 10.1021/acs.jctc.1c00471
   
   for DFT-D4:
   * E. Caldeweyher, C. Bannwarth and S. Grimme, J. Chem. Phys., 2017,
     147, 034112. DOI: 10.1063/1.4993215
   * E. Caldeweyher, S. Ehlert, A. Hansen, H. Neugebauer, S. Spicher,
     C. Bannwarth and S. Grimme, J. Chem. Phys., 2019, 150, 154122.
     DOI: 10.1063/1.5090222
   * E. Caldeweyher, J.-M. Mewes, S. Ehlert and S. Grimme, Phys. Chem. Chem. Phys.
     2020, 22, 8499-8512. DOI: 10.1039/D0CP00502A
   
   for sTDA-xTB:
   * S. Grimme and C. Bannwarth, J. Chem. Phys., 2016, 145, 054103.
     DOI: 10.1063/1.4959605
   
   in the mass-spec context:
   * V. Asgeirsson, C. Bauer and S. Grimme, Chem. Sci., 2017, 8, 4879.
     DOI: 10.1039/c7sc00601b
   * J. Koopman and S. Grimme, ACS Omega 2019, 4, 12, 15120-15133.
     DOI: 10.1021/acsomega.9b02011
   
   for metadynamics refer to:
   * S. Grimme, J. Chem. Theory Comput., 2019, 155, 2847-2862
     DOI: 10.1021/acs.jctc.9b00143
   
   for SPH calculations refer to:
   * S. Spicher and S. Grimme, J. Chem. Theory Comput., 2021, 17, 1701-1714
     DOI: 10.1021/acs.jctc.0c01306
   
   with help from (in alphabetical order)
   P. Atkinson, C. Bannwarth, F. Bohle, G. Brandenburg, E. Caldeweyher
   M. Checinski, S. Dohm, S. Ehlert, S. Ehrlich, I. Gerasimov, C. Hölzer
   A. Katbashev, J. Koopman, C. Lavigne, S. Lehtola, F. März, M. Müller,
   F. Musil, H. Neugebauer, J. Pisarek, C. Plett, P. Pracht, F. Pultar,
   J. Seibert, P. Shushkov, S. Spicher, M. Stahn, M. Steiner, T. Strunk,
   J. Stückrath, T. Rose, and J. Unsleber
   
 * started run on 2024/06/05 at 19:58:53.691     

           -------------------------------------------------
          |                Calculation Setup                |
           -------------------------------------------------

          program call               : xtb struc.xyz --opt loose --input .xc1 --gfn2
          hostname                   : n-62-29-9
          coordinate file            : struc.xyz
          omp threads                :                     1

   ID    Z sym.   atoms
    1    6 C      1, 3, 5-7, 10, 11, 14
    2    7 N      2, 4, 9, 13
    3    8 O      8, 12
    4    1 H      15-25
constraining bond 13 23 to    4.0600000 Å, actual value:    2.0982917 Å

           -------------------------------------------------
          |                 G F N 2 - x T B                 |
           -------------------------------------------------

        Reference                      10.1021/acs.jctc.8b01176
      * Hamiltonian:
        H0-scaling (s, p, d)           1.850000    2.230000    2.230000
        zeta-weighting                 0.500000
      * Dispersion:
        s8                             2.700000
        a1                             0.520000
        a2                             5.000000
        s9                             5.000000
      * Repulsion:
        kExp                           1.500000    1.000000
        rExp                           1.000000
      * Coulomb:
        alpha                          2.000000
        third order                    shell-resolved
        anisotropic                    true
        a3                             3.000000
        a5                             4.000000
        cn-shift                       1.200000
        cn-exp                         4.000000
        max-rad                        5.000000


          ...................................................
          :                      SETUP                      :
          :.................................................:
          :  # basis functions                  67          :
          :  # atomic orbitals                  67          :
          :  # shells                           39          :
          :  # electrons                        74          :
          :  max. iterations                   250          :
          :  Hamiltonian                  GFN2-xTB          :
          :  restarted?                      false          :
          :  GBSA solvation                  false          :
          :  PC potential                    false          :
          :  electronic temp.         7500.0000000     K    :
          :  accuracy                    1.0000000          :
          :  -> integral cutoff          0.2500000E+02      :
          :  -> integral neglect         0.1000000E-07      :
          :  -> SCF convergence          0.1000000E-05 Eh   :
          :  -> wf. convergence          0.1000000E-03 e    :
          :  Broyden damping             0.4000000          :
          ...................................................

 iter      E             dE          RMSdq      gap      omega  full diag
   1    -42.5960780 -0.425961E+02  0.440E+00    3.52       0.0  T
   2    -42.7780033 -0.181925E+00  0.248E+00    3.37       1.0  T
   3    -42.7871777 -0.917437E-02  0.149E+00    3.50       1.0  T
   4    -42.7817164  0.546128E-02  0.642E-01    3.42       1.0  T
   5    -42.7911189 -0.940247E-02  0.115E-01    3.49       1.0  T
   6    -42.7912109 -0.920486E-04  0.685E-02    3.46       1.0  T
   7    -42.7912647 -0.537856E-04  0.265E-02    3.48       1.0  T
   8    -42.7912686 -0.385526E-05  0.113E-02    3.47       1.8  T
   9    -42.7912697 -0.111307E-05  0.441E-03    3.47       4.5  T
  10    -42.7912698 -0.733569E-07  0.139E-03    3.47      14.4  T
  11    -42.7912698 -0.243437E-08  0.602E-04    3.47      33.2  T
  12    -42.7912698 -0.222032E-08  0.181E-04    3.47     110.6  T

   *** convergence criteria satisfied after 12 iterations ***

         #    Occupation            Energy/Eh            Energy/eV
      -------------------------------------------------------------
         1        2.0000           -0.9116047             -24.8060
       ...           ...                  ...                  ...
        31        1.9942           -0.6212459             -16.9050
        32        1.9930           -0.6166804             -16.7807
        33        1.9876           -0.6031136             -16.4116
        34        1.9710           -0.5827317             -15.8569
        35        1.9403           -0.5651917             -15.3796
        36        1.9387           -0.5645672             -15.3627
        37        1.9155           -0.5566412             -15.1470 (HOMO)
        38        0.1907           -0.4290919             -11.6762 (LUMO)
        39        0.0640           -0.4015676             -10.9272
        40        0.0206           -0.3740689             -10.1789
        41        0.0006           -0.2879107              -7.8344
        42        0.0000           -0.2065811              -5.6214
       ...           ...                  ...                  ...
        67                          0.5613577              15.2753
      -------------------------------------------------------------
                  HL-Gap            0.1275493 Eh            3.4708 eV
             Fermi-level           -0.4825284 Eh          -13.1303 eV

 SCC (total)                   0 d,  0 h,  0 min,  0.035 sec
 SCC setup                      ...        0 min,  0.000 sec (  0.813%)
 Dispersion                     ...        0 min,  0.000 sec (  1.006%)
 classical contributions        ...        0 min,  0.000 sec (  0.263%)
 integral evaluation            ...        0 min,  0.005 sec ( 14.141%)
 iterations                     ...        0 min,  0.018 sec ( 50.760%)
 molecular gradient             ...        0 min,  0.011 sec ( 32.588%)
 printout                       ...        0 min,  0.000 sec (  0.394%)

         :::::::::::::::::::::::::::::::::::::::::::::::::::::
         ::                     SUMMARY                     ::
         :::::::::::::::::::::::::::::::::::::::::::::::::::::
         :: total energy             -35.388788170995 Eh    ::
         :: gradient norm              5.242099261243 Eh/a0 ::
         :: HOMO-LUMO gap              3.470793873671 eV    ::
         ::.................................................::
         :: SCC energy               -42.791269777655 Eh    ::
         :: -> isotropic ES            0.136760385929 Eh    ::
         :: -> anisotropic ES         -0.005341405309 Eh    ::
         :: -> anisotropic XC          0.011501049227 Eh    ::
         :: -> dispersion             -0.022650340738 Eh    ::
         :: repulsion energy           0.531105277918 Eh    ::
         :: add. restraining           6.871262169733 Eh    ::
         :: total charge               1.000000000010 e     ::
         :::::::::::::::::::::::::::::::::::::::::::::::::::::

      ----------------------------------------------------------- 
     |                   =====================                   |
     |                        A N C O P T                        |
     |                   =====================                   |
     |               Approximate Normal Coordinate               |
     |                Rational Function Optimizer                |
      ----------------------------------------------------------- 

          ...................................................
          :                      SETUP                      :
          :.................................................:
          :   optimization level             loose          :
          :   max. optcycles                   200          :
          :   ANC micro-cycles                  20          :
          :   degrees of freedom                69          :
          :.................................................:
          :   RF solver                   davidson          :
          :   write xtbopt.log                true          :
          :   linear?                        false          :
          :   energy convergence         0.5000000E-04 Eh   :
          :   grad. convergence          0.4000000E-02 Eh/α :
          :   maxmium RF displ.          1.0000000          :
          :   Hlow (freq-cutoff)         0.1000000E-01      :
          :   Hmax (freq-cutoff)         5.0000000          :
          :   S6 in model hess.         20.0000000          :
          ...................................................

generating ANC from model Hessian ...
Using Lindh-Hessian (1995)
 Shifting diagonal of input Hessian by    1.6300424916231846     
 Lowest  eigenvalues of input Hessian
    0.010000    0.217405    0.000000    0.000000    0.000000    0.000000
    0.000000    0.000000    1.633153    1.634628    1.638610    1.640038
    1.641605    1.643012    1.646929    1.651379    1.652357    1.660445
 Highest eigenvalues
    3.773907    3.828607    3.878387    4.019113    4.129923    4.579070


........................................................................
.............................. CYCLE    1 ..............................
........................................................................

 iter      E             dE          RMSdq      gap      omega  full diag
   1    -42.7912698 -0.427913E+02  0.838E-05    3.47       0.0  T
   2    -42.7912698 -0.247127E-10  0.452E-05    3.47     442.9  T
   3    -42.7912698 -0.149214E-11  0.279E-05    3.47     715.8  T
     SCC iter.                  ...        0 min,  0.005 sec
     gradient                   ...        0 min,  0.011 sec
 * total energy  :   -35.3887882 Eh     change       -0.2401990E-09 Eh
   gradient norm :     5.2420996 Eh/α   predicted     0.0000000E+00 (-100.00%)
   displ. norm   :     0.6790411 α      lambda       -0.3483383E+01
   maximum displ.:     0.5726657 α      in ANC's #69, #60, #57, ...

........................................................................
.............................. CYCLE    2 ..............................
........................................................................

 iter      E             dE          RMSdq      gap      omega  full diag
   1    -42.7348229 -0.427348E+02  0.761E-01    3.58       0.0  T
   2    -42.7355405 -0.717623E-03  0.445E-01    3.57       1.0  T
   3    -42.7353233  0.217213E-03  0.161E-01    3.57       1.0  T
   4    -42.7357256 -0.402251E-03  0.347E-02    3.57       1.0  T
   5    -42.7357363 -0.107257E-04  0.173E-02    3.57       1.2  T
   6    -42.7357363 -0.277674E-07  0.590E-03    3.57       3.4  T
   7    -42.7357371 -0.778970E-06  0.146E-03    3.57      13.7  T
   8    -42.7357371 -0.165880E-07  0.789E-04    3.57      25.4  T
   9    -42.7357371 -0.381321E-08  0.282E-04    3.57      70.8  T
     SCC iter.                  ...        0 min,  0.013 sec
     gradient                   ...        0 min,  0.011 sec
 * total energy  :   -38.4128132 Eh     change       -0.3024025E+01 Eh
   gradient norm :     3.7177585 Eh/α   predicted    -0.2587815E+01 ( -14.42%)
   displ. norm   :     0.7464806 α      lambda       -0.2764985E+01
   maximum displ.:     0.6255884 α      in ANC's #69, #60, #57, ...

........................................................................
.............................. CYCLE    3 ..............................
........................................................................

 iter      E             dE          RMSdq      gap      omega  full diag
   1    -42.6118678 -0.426119E+02  0.649E-01    3.21       0.0  T
   2    -42.6121434 -0.275672E-03  0.542E-01    3.33       1.0  T
   3    -42.6153002 -0.315682E-02  0.271E-01    3.39       1.0  T
   4    -42.6162010 -0.900735E-03  0.934E-02    3.42       1.0  T
   5    -42.6162545 -0.535468E-04  0.278E-02    3.41       1.0  T
   6    -42.6162618 -0.725208E-05  0.188E-02    3.42       1.1  T
   7    -42.6162654 -0.358111E-05  0.795E-03    3.41       2.5  T
   8    -42.6162659 -0.520534E-06  0.342E-03    3.41       5.8  T
   9    -42.6162661 -0.259556E-06  0.769E-04    3.41      26.0  T
  10    -42.6162661 -0.123292E-08  0.369E-04    3.41      54.2  T
     SCC iter.                  ...        0 min,  0.014 sec
     gradient                   ...        0 min,  0.011 sec
 * total energy  :   -40.6044358 Eh     change       -0.2191623E+01 Eh
   gradient norm :     2.1892536 Eh/α   predicted    -0.2152864E+01 (  -1.77%)
   displ. norm   :     0.6548899 α      lambda       -0.1416733E+01
   maximum displ.:     0.5216295 α      in ANC's #69, #60, #57, ...

........................................................................
.............................. CYCLE    4 ..............................
........................................................................

 iter      E             dE          RMSdq      gap      omega  full diag
   1    -42.4927479 -0.424927E+02  0.805E-01    1.95       0.0  T
   2    -42.4701322  0.226157E-01  0.974E-01    2.28       1.0  T
   3    -42.5052010 -0.350688E-01  0.390E-01    2.17       1.0  T
   4    -42.5075658 -0.236475E-02  0.234E-01    2.18       1.0  T
   5    -42.5082044 -0.638618E-03  0.791E-02    2.16       1.0  T
   6    -42.5083561 -0.151683E-03  0.265E-02    2.17       1.0  T
   7    -42.5083655 -0.944048E-05  0.150E-02    2.17       1.3  T
   8    -42.5083671 -0.155206E-05  0.658E-03    2.17       3.0  T
   9    -42.5083681 -0.103132E-05  0.152E-03    2.17      13.1  T
  10    -42.5083681 -0.265121E-07  0.759E-04    2.17      26.3  T
  11    -42.5083681 -0.618161E-08  0.251E-04    2.17      79.6  T
     SCC iter.                  ...        0 min,  0.015 sec
     gradient                   ...        0 min,  0.011 sec
 * total energy  :   -41.6320591 Eh     change       -0.1027623E+01 Eh
   gradient norm :     0.9766137 Eh/α   predicted    -0.1012173E+01 (  -1.50%)
   displ. norm   :     0.5127572 α      lambda       -0.4506780E+00
   maximum displ.:     0.3257322 α      in ANC's #69, #1, #60, ...

........................................................................
.............................. CYCLE    5 ..............................
........................................................................

 iter      E             dE          RMSdq      gap      omega  full diag
   1    -42.4402732 -0.424403E+02  0.740E-01    1.40       0.0  T
   2    -42.4409663 -0.693078E-03  0.657E-01    1.40       1.0  T
   3    -42.4496647 -0.869841E-02  0.255E-01    1.44       1.0  T
   4    -42.4476566  0.200810E-02  0.242E-01    1.39       1.0  T
   5    -42.4489122 -0.125562E-02  0.168E-01    1.43       1.0  T
   6    -42.4500881 -0.117594E-02  0.231E-02    1.43       1.0  T
   7    -42.4500974 -0.926667E-05  0.114E-02    1.43       1.8  T
   8    -42.4500980 -0.622175E-06  0.593E-03    1.43       3.4  T
   9    -42.4500985 -0.424518E-06  0.286E-03    1.43       7.0  T
  10    -42.4500987 -0.272279E-06  0.649E-04    1.43      30.8  T
  11    -42.4500987 -0.753083E-09  0.260E-04    1.43      77.0  T
     SCC iter.                  ...        0 min,  0.015 sec
     gradient                   ...        0 min,  0.011 sec
 * total energy  :   -41.9076441 Eh     change       -0.2755850E+00 Eh
   gradient norm :     0.2229368 Eh/α   predicted    -0.2845852E+00 (   3.27%)
   displ. norm   :     0.7037622 α      lambda       -0.6694079E-01
   maximum displ.:     0.6961095 α      in ANC's #1, #46, #36, ...

........................................................................
.............................. CYCLE    6 ..............................
........................................................................

 iter      E             dE          RMSdq      gap      omega  full diag
   1    -42.4040704 -0.424041E+02  0.877E-01    1.38       0.0  T
   2    -42.3551788  0.488916E-01  0.145E+00    1.17       1.0  T
   3    -42.4195115 -0.643327E-01  0.455E-01    1.31       1.0  T
   4    -42.4117892  0.772235E-02  0.553E-01    1.28       1.0  T
   5    -42.4228464 -0.110572E-01  0.125E-01    1.29       1.0  T
   6    -42.4231567 -0.310346E-03  0.366E-02    1.30       1.0  T
   7    -42.4231910 -0.342337E-04  0.120E-02    1.30       1.7  T
   8    -42.4231918 -0.853649E-06  0.779E-03    1.30       2.6  T
   9    -42.4231936 -0.180153E-05  0.232E-03    1.30       8.6  T
  10    -42.4231937 -0.759461E-07  0.938E-04    1.30      21.3  T
  11    -42.4231937 -0.179494E-07  0.416E-04    1.30      48.1  T
     SCC iter.                  ...        0 min,  0.015 sec
     gradient                   ...        0 min,  0.011 sec
 * total energy  :   -41.9361463 Eh     change       -0.2850224E-01 Eh
   gradient norm :     0.1994106 Eh/α   predicted    -0.5004795E-01 (  75.59%)
   displ. norm   :     0.2745963 α      lambda       -0.1803384E-01
   maximum displ.:     0.2587547 α      in ANC's #1, #36, #39, ...

........................................................................
.............................. CYCLE    7 ..............................
........................................................................

 iter      E             dE          RMSdq      gap      omega  full diag
   1    -42.4435532 -0.424436E+02  0.323E-01    1.35       0.0  T
   2    -42.4423370  0.121619E-02  0.359E-01    1.39       1.0  T
   3    -42.4448256 -0.248866E-02  0.158E-01    1.36       1.0  T
   4    -42.4423584  0.246726E-02  0.264E-01    1.38       1.0  T
   5    -42.4453025 -0.294415E-02  0.345E-02    1.37       1.0  T
   6    -42.4453282 -0.257016E-04  0.905E-03    1.36       2.2  T
   7    -42.4453306 -0.238758E-05  0.398E-03    1.37       5.0  T
   8    -42.4453307 -0.707508E-07  0.136E-03    1.37      14.7  T
   9    -42.4453307 -0.312837E-07  0.422E-04    1.37      47.4  T
  10    -42.4453307 -0.305576E-09  0.314E-04    1.36      63.7  T
     SCC iter.                  ...        0 min,  0.014 sec
     gradient                   ...        0 min,  0.011 sec
 * total energy  :   -41.9496855 Eh     change       -0.1353921E-01 Eh
   gradient norm :     0.1448724 Eh/α   predicted    -0.9697741E-02 ( -28.37%)
   displ. norm   :     0.2675201 α      lambda       -0.3255071E-01
   maximum displ.:     0.1080476 α      in ANC's #36, #1, #34, ...

........................................................................
.............................. CYCLE    8 ..............................
........................................................................

 iter      E             dE          RMSdq      gap      omega  full diag
   1    -42.4748743 -0.424749E+02  0.423E-01    1.53       0.0  T
   2    -42.4714579  0.341646E-02  0.399E-01    1.50       1.0  T
   3    -42.4729467 -0.148887E-02  0.346E-01    1.53       1.0  T
   4    -42.4767645 -0.381779E-02  0.140E-01    1.52       1.0  T
   5    -42.4771716 -0.407021E-03  0.460E-02    1.52       1.0  T
   6    -42.4772272 -0.556006E-04  0.115E-02    1.52       1.7  T
   7    -42.4772300 -0.289207E-05  0.684E-03    1.52       2.9  T
   8    -42.4772307 -0.692828E-06  0.160E-03    1.52      12.5  T
   9    -42.4772308 -0.293704E-07  0.670E-04    1.52      29.8  T
  10    -42.4772308 -0.251693E-08  0.386E-04    1.52      51.8  T
     SCC iter.                  ...        0 min,  0.014 sec
     gradient                   ...        0 min,  0.011 sec
 * total energy  :   -41.9742233 Eh     change       -0.2453778E-01 Eh
   gradient norm :     0.1043976 Eh/α   predicted    -0.1744016E-01 ( -28.93%)
   displ. norm   :     0.3722501 α      lambda       -0.2943530E-01
   maximum displ.:     0.1598013 α      in ANC's #36, #34, #39, ...

........................................................................
.............................. CYCLE    9 ..............................
........................................................................

 iter      E             dE          RMSdq      gap      omega  full diag
   1    -42.4932934 -0.424933E+02  0.495E-01    1.56       0.0  T
   2    -42.4850404  0.825302E-02  0.520E-01    1.55       1.0  T
   3    -42.4900564 -0.501607E-02  0.411E-01    1.56       1.0  T
   4    -42.4958212 -0.576480E-02  0.130E-01    1.56       1.0  T
   5    -42.4960677 -0.246493E-03  0.358E-02    1.55       1.0  T
   6    -42.4961030 -0.352932E-04  0.989E-03    1.55       2.0  T
   7    -42.4961033 -0.264395E-06  0.532E-03    1.55       3.8  T
   8    -42.4961037 -0.448013E-06  0.166E-03    1.55      12.0  T
   9    -42.4961038 -0.639061E-07  0.667E-04    1.55      30.0  T
  10    -42.4961038 -0.410063E-08  0.359E-04    1.55      55.7  T
     SCC iter.                  ...        0 min,  0.014 sec
     gradient                   ...        0 min,  0.011 sec
 * total energy  :   -41.9945834 Eh     change       -0.2036008E-01 Eh
   gradient norm :     0.1299826 Eh/α   predicted    -0.1675710E-01 ( -17.70%)
   displ. norm   :     0.2739419 α      lambda       -0.1512429E-01
   maximum displ.:     0.1072596 α      in ANC's #36, #34, #1, ...

........................................................................
.............................. CYCLE   10 ..............................
........................................................................

 iter      E             dE          RMSdq      gap      omega  full diag
   1    -42.4945200 -0.424945E+02  0.307E-01    1.54       0.0  T
   2    -42.4895793  0.494075E-02  0.374E-01    1.56       1.0  T
   3    -42.4941140 -0.453473E-02  0.217E-01    1.55       1.0  T
   4    -42.4953653 -0.125135E-02  0.624E-02    1.55       1.0  T
   5    -42.4955027 -0.137310E-03  0.161E-02    1.55       1.2  T
   6    -42.4955098 -0.712342E-05  0.569E-03    1.55       3.5  T
   7    -42.4955099 -0.119244E-06  0.249E-03    1.55       8.0  T
   8    -42.4955099 -0.484259E-07  0.876E-04    1.55      22.8  T
   9    -42.4955100 -0.148110E-07  0.408E-04    1.55      49.0  T
     SCC iter.                  ...        0 min,  0.013 sec
     gradient                   ...        0 min,  0.011 sec
 * total energy  :   -42.0053751 Eh     change       -0.1079165E-01 Eh
   gradient norm :     0.1255963 Eh/α   predicted    -0.8129746E-02 ( -24.67%)
   displ. norm   :     0.2363285 α      lambda       -0.1193467E-01
   maximum displ.:     0.0869969 α      in ANC's #36, #34, #33, ...

........................................................................
.............................. CYCLE   11 ..............................
........................................................................

 iter      E             dE          RMSdq      gap      omega  full diag
   1    -42.4974250 -0.424974E+02  0.214E-01    1.49       0.0  T
   2    -42.4951346  0.229047E-02  0.252E-01    1.50       1.0  T
   3    -42.4970234 -0.188885E-02  0.166E-01    1.49       1.0  T
   4    -42.4978049 -0.781508E-03  0.375E-02    1.49       1.0  T
   5    -42.4978555 -0.506290E-04  0.103E-02    1.50       1.9  T
   6    -42.4978583 -0.279454E-05  0.506E-03    1.50       3.9  T
   7    -42.4978587 -0.407635E-06  0.218E-03    1.50       9.2  T
   8    -42.4978588 -0.348920E-07  0.605E-04    1.50      33.1  T
   9    -42.4978588 -0.431994E-08  0.342E-04    1.50      58.5  T
     SCC iter.                  ...        0 min,  0.013 sec
     gradient                   ...        0 min,  0.011 sec
 * total energy  :   -42.0141598 Eh     change       -0.8784719E-02 Eh
   gradient norm :     0.0972348 Eh/α   predicted    -0.6300794E-02 ( -28.28%)
   displ. norm   :     0.2351190 α      lambda       -0.1175134E-01
   maximum displ.:     0.0787884 α      in ANC's #33, #34, #2, ...

........................................................................
.............................. CYCLE   12 ..............................
........................................................................

 iter      E             dE          RMSdq      gap      omega  full diag
   1    -42.5100907 -0.425101E+02  0.238E-01    1.44       0.0  T
   2    -42.5091113  0.979408E-03  0.204E-01    1.46       1.0  T
   3    -42.5085798  0.531501E-03  0.228E-01    1.44       1.0  T
   4    -42.5103983 -0.181846E-02  0.386E-02    1.45       1.0  T
   5    -42.5104227 -0.244838E-04  0.125E-02    1.45       1.6  T
   6    -42.5104272 -0.449370E-05  0.591E-03    1.45       3.4  T
   7    -42.5104280 -0.797951E-06  0.254E-03    1.45       7.9  T
   8    -42.5104281 -0.786770E-07  0.655E-04    1.45      30.6  T
   9    -42.5104281 -0.339459E-08  0.343E-04    1.45      58.3  T
     SCC iter.                  ...        0 min,  0.013 sec
     gradient                   ...        0 min,  0.011 sec
 * total energy  :   -42.0225519 Eh     change       -0.8392150E-02 Eh
   gradient norm :     0.0724405 Eh/α   predicted    -0.6200497E-02 ( -26.12%)
   displ. norm   :     0.2278328 α      lambda       -0.8166832E-02
   maximum displ.:     0.1463456 α      in ANC's #1, #2, #33, ...

........................................................................
.............................. CYCLE   13 ..............................
........................................................................

 iter      E             dE          RMSdq      gap      omega  full diag
   1    -42.5285966 -0.425286E+02  0.244E-01    1.40       0.0  T
   2    -42.5285615  0.350185E-04  0.149E-01    1.41       1.0  T
   3    -42.5270765  0.148504E-02  0.214E-01    1.40       1.0  T
   4    -42.5285153 -0.143879E-02  0.667E-02    1.41       1.0  T
   5    -42.5287226 -0.207317E-03  0.171E-02    1.41       1.2  T
   6    -42.5287341 -0.114616E-04  0.400E-03    1.41       5.0  T
   7    -42.5287339  0.114679E-06  0.300E-03    1.41       6.7  T
   8    -42.5287342 -0.237198E-06  0.689E-04    1.41      29.0  T
   9    -42.5287342 -0.125001E-07  0.300E-04    1.41      66.6  T
     SCC iter.                  ...        0 min,  0.013 sec
     gradient                   ...        0 min,  0.011 sec
 * total energy  :   -42.0283254 Eh     change       -0.5773438E-02 Eh
   gradient norm :     0.0890319 Eh/α   predicted    -0.4295444E-02 ( -25.60%)
   displ. norm   :     0.2106839 α      lambda       -0.6556891E-02
   maximum displ.:     0.1508978 α      in ANC's #1, #2, #33, ...

........................................................................
.............................. CYCLE   14 ..............................
........................................................................

 iter      E             dE          RMSdq      gap      omega  full diag
   1    -42.5432099 -0.425432E+02  0.232E-01    1.37       0.0  T
   2    -42.5432540 -0.441583E-04  0.138E-01    1.37       1.0  T
   3    -42.5428554  0.398657E-03  0.136E-01    1.36       1.0  T
   4    -42.5429791 -0.123725E-03  0.887E-02    1.38       1.0  T
   5    -42.5433227 -0.343593E-03  0.186E-02    1.37       1.1  T
   6    -42.5433395 -0.168046E-04  0.399E-03    1.37       5.0  T
   7    -42.5433398 -0.304812E-06  0.220E-03    1.37       9.1  T
   8    -42.5433399 -0.576860E-07  0.679E-04    1.37      29.5  T
   9    -42.5433399 -0.138446E-07  0.211E-04    1.37      94.9  T
     SCC iter.                  ...        0 min,  0.013 sec
     gradient                   ...        0 min,  0.011 sec
 * total energy  :   -42.0335151 Eh     change       -0.5189772E-02 Eh
   gradient norm :     0.0980584 Eh/α   predicted    -0.3424117E-02 ( -34.02%)
   displ. norm   :     0.3469733 α      lambda       -0.1040950E-01
   maximum displ.:     0.2637113 α      in ANC's #1, #57, #33, ...

........................................................................
.............................. CYCLE   15 ..............................
........................................................................

 iter      E             dE          RMSdq      gap      omega  full diag
   1    -42.5577913 -0.425578E+02  0.365E-01    1.28       0.0  T
   2    -42.5581444 -0.353105E-03  0.218E-01    1.29       1.0  T
   3    -42.5579372  0.207242E-03  0.180E-01    1.27       1.0  T
   4    -42.5576407  0.296450E-03  0.147E-01    1.31       1.0  T
   5    -42.5583603 -0.719606E-03  0.469E-02    1.29       1.0  T
   6    -42.5584756 -0.115287E-03  0.819E-03    1.29       2.4  T
   7    -42.5584780 -0.236364E-05  0.343E-03    1.29       5.8  T
   8    -42.5584780 -0.334535E-07  0.127E-03    1.29      15.7  T
   9    -42.5584780 -0.407689E-07  0.325E-04    1.29      61.4  T
  10    -42.5584780 -0.547502E-09  0.201E-04    1.29      99.4  T
     SCC iter.                  ...        0 min,  0.014 sec
     gradient                   ...        0 min,  0.011 sec
 * total energy  :   -42.0417534 Eh     change       -0.8238213E-02 Eh
   gradient norm :     0.1019996 Eh/α   predicted    -0.5831955E-02 ( -29.21%)
   displ. norm   :     0.4262660 α      lambda       -0.1293132E-01
   maximum displ.:     0.3030541 α      in ANC's #1, #57, #33, ...

........................................................................
.............................. CYCLE   16 ..............................
........................................................................

 iter      E             dE          RMSdq      gap      omega  full diag
   1    -42.5649510 -0.425650E+02  0.468E-01    1.14       0.0  T
   2    -42.5655737 -0.622746E-03  0.274E-01    1.18       1.0  T
   3    -42.5648843  0.689456E-03  0.270E-01    1.13       1.0  T
   4    -42.5654246 -0.540349E-03  0.167E-01    1.18       1.0  T
   5    -42.5661832 -0.758613E-03  0.611E-02    1.16       1.0  T
   6    -42.5663812 -0.197924E-03  0.133E-02    1.16       1.5  T
   7    -42.5663870 -0.581554E-05  0.596E-03    1.16       3.4  T
   8    -42.5663873 -0.286402E-06  0.170E-03    1.16      11.8  T
   9    -42.5663873 -0.584200E-07  0.614E-04    1.16      32.6  T
  10    -42.5663873 -0.205193E-08  0.361E-04    1.16      55.4  T
     SCC iter.                  ...        0 min,  0.014 sec
     gradient                   ...        0 min,  0.011 sec
 * total energy  :   -42.0519975 Eh     change       -0.1024414E-01 Eh
   gradient norm :     0.1139682 Eh/α   predicted    -0.7640512E-02 ( -25.42%)
   displ. norm   :     0.4931250 α      lambda       -0.1471042E-01
   maximum displ.:     0.3478735 α      in ANC's #1, #57, #33, ...

........................................................................
.............................. CYCLE   17 ..............................
........................................................................

 iter      E             dE          RMSdq      gap      omega  full diag
   1    -42.5640724 -0.425641E+02  0.550E-01    0.92       0.0  T
   2    -42.5645818 -0.509459E-03  0.325E-01    1.01       1.0  T
   3    -42.5629161  0.166575E-02  0.367E-01    0.91       1.0  T
   4    -42.5655302 -0.261410E-02  0.153E-01    0.97       1.0  T
   5    -42.5658203 -0.290173E-03  0.736E-02    0.96       1.0  T
   6    -42.5660922 -0.271885E-03  0.195E-02    0.96       1.0  T
   7    -42.5661023 -0.100505E-04  0.101E-02    0.96       2.0  T
   8    -42.5661036 -0.131033E-05  0.191E-03    0.96      10.5  T
   9    -42.5661036 -0.496599E-07  0.897E-04    0.96      22.3  T
  10    -42.5661036 -0.477463E-08  0.472E-04    0.96      42.3  T
     SCC iter.                  ...        0 min,  0.014 sec
     gradient                   ...        0 min,  0.011 sec
 * total energy  :   -42.0633702 Eh     change       -0.1137275E-01 Eh
   gradient norm :     0.1377216 Eh/α   predicted    -0.9143861E-02 ( -19.60%)
   displ. norm   :     0.3587394 α      lambda       -0.1763514E-01
   maximum displ.:     0.1545355 α      in ANC's #1, #57, #10, ...

........................................................................
.............................. CYCLE   18 ..............................
........................................................................

 iter      E             dE          RMSdq      gap      omega  full diag
   1    -42.5586001 -0.425586E+02  0.600E-01    0.73       0.0  T
   2    -42.5583670  0.233114E-03  0.390E-01    0.85       1.0  T
   3    -42.5561743  0.219265E-02  0.446E-01    0.73       1.0  T
   4    -42.5610770 -0.490268E-02  0.134E-01    0.77       1.0  T
   5    -42.5610305  0.464562E-04  0.749E-02    0.78       1.0  T
   6    -42.5612702 -0.239702E-03  0.238E-02    0.77       1.0  T
   7    -42.5612832 -0.129113E-04  0.114E-02    0.77       1.8  T
   8    -42.5612849 -0.174026E-05  0.211E-03    0.77       9.5  T
   9    -42.5612849 -0.544193E-07  0.911E-04    0.77      21.9  T
  10    -42.5612850 -0.515563E-08  0.375E-04    0.77      53.3  T
     SCC iter.                  ...        0 min,  0.014 sec
     gradient                   ...        0 min,  0.011 sec
 * total energy  :   -42.0731434 Eh     change       -0.9773173E-02 Eh
   gradient norm :     0.1779510 Eh/α   predicted    -0.9952670E-02 (   1.84%)
   displ. norm   :     0.3699223 α      lambda       -0.1797108E-01
   maximum displ.:     0.2718447 α      in ANC's #1, #57, #2, ...

........................................................................
.............................. CYCLE   19 ..............................
........................................................................

 iter      E             dE          RMSdq      gap      omega  full diag
   1    -42.5581507 -0.425582E+02  0.401E-01    0.54       0.0  T
   2    -42.5564286  0.172210E-02  0.354E-01    0.64       1.0  T
   3    -42.5576490 -0.122037E-02  0.288E-01    0.54       1.0  T
   4    -42.5595262 -0.187722E-02  0.814E-02    0.57       1.0  T
   5    -42.5595146  0.115827E-04  0.411E-02    0.58       1.0  T
   6    -42.5595725 -0.578901E-04  0.178E-02    0.57       1.1  T
   7    -42.5595822 -0.972353E-05  0.843E-03    0.57       2.4  T
   8    -42.5595832 -0.932704E-06  0.199E-03    0.57      10.0  T
   9    -42.5595833 -0.806173E-07  0.684E-04    0.57      29.2  T
  10    -42.5595833 -0.412837E-08  0.311E-04    0.57      64.2  T
     SCC iter.                  ...        0 min,  0.014 sec
     gradient                   ...        0 min,  0.011 sec
 * total energy  :   -42.0834000 Eh     change       -0.1025663E-01 Eh
   gradient norm :     0.1604982 Eh/α   predicted    -0.1021515E-01 (  -0.40%)
   displ. norm   :     0.2558224 α      lambda       -0.2247071E-01
   maximum displ.:     0.1415725 α      in ANC's #1, #39, #17, ...

........................................................................
.............................. CYCLE   20 ..............................
........................................................................

 iter      E             dE          RMSdq      gap      omega  full diag
   1    -42.5812982 -0.425813E+02  0.372E-01    0.49       0.0  T
   2    -42.5821443 -0.846143E-03  0.293E-01    0.55       1.0  T
   3    -42.5827074 -0.563139E-03  0.206E-01    0.49       1.0  T
   4    -42.5830639 -0.356484E-03  0.148E-01    0.53       1.0  T
   5    -42.5834034 -0.339435E-03  0.425E-02    0.51       1.0  T
   6    -42.5834658 -0.624538E-04  0.182E-02    0.51       1.1  T
   7    -42.5834792 -0.134322E-04  0.573E-03    0.51       3.5  T
   8    -42.5834795 -0.228181E-06  0.290E-03    0.51       6.9  T
   9    -42.5834796 -0.102165E-06  0.830E-04    0.51      24.1  T
  10    -42.5834796 -0.987919E-08  0.387E-04    0.51      51.7  T
     SCC iter.                  ...        0 min,  0.014 sec
     gradient                   ...        0 min,  0.011 sec
 * total energy  :   -42.0979441 Eh     change       -0.1454405E-01 Eh
   gradient norm :     0.1371042 Eh/α   predicted    -0.1197085E-01 ( -17.69%)
   displ. norm   :     0.2025614 α      lambda       -0.1614098E-01
   maximum displ.:     0.1021718 α      in ANC's #57, #60, #69, ...
 * RMSD in coord.:     0.8020649 α      energy gain  -0.6709156E+01 Eh

generating ANC from model Hessian ...
Using Lindh-Hessian (1995)
 Shifting diagonal of input Hessian by    1.1177784892756471E-002
 Lowest  eigenvalues of input Hessian
    0.010000    0.010096    0.000000    0.000000    0.000000    0.000000
    0.000000    0.000000    0.013859    0.014882    0.016884    0.019861
    0.021027    0.022538    0.024161    0.025222    0.029312    0.033721
 Highest eigenvalues
    2.104825    2.109965    2.179972    2.301095    2.437213    3.049062


........................................................................
.............................. CYCLE   21 ..............................
........................................................................

 iter      E             dE          RMSdq      gap      omega  full diag
   1    -42.5970726 -0.425971E+02  0.459E-01    0.40       0.0  T
   2    -42.5918574  0.521516E-02  0.563E-01    0.51       1.0  T
   3    -42.6003291 -0.847165E-02  0.201E-01    0.37       1.0  T
   4    -42.6008923 -0.563253E-03  0.744E-02    0.37       1.0  T
   5    -42.6008813  0.109993E-04  0.283E-02    0.37       1.0  T
   6    -42.6009056 -0.242390E-04  0.142E-02    0.37       1.4  T
   7    -42.6009118 -0.618530E-05  0.619E-03    0.37       3.2  T
   8    -42.6009122 -0.451961E-06  0.992E-04    0.37      20.2  T
   9    -42.6009122 -0.915163E-08  0.408E-04    0.37      49.0  T
     SCC iter.                  ...        0 min,  0.013 sec
     gradient                   ...        0 min,  0.011 sec
 * total energy  :   -42.1071324 Eh     change       -0.9188324E-02 Eh
   gradient norm :     0.1067827 Eh/α   predicted     0.0000000E+00 (-100.00%)
   displ. norm   :     0.3650850 α      lambda       -0.2148377E-01
   maximum displ.:     0.2129171 α      in ANC's #20, #21, #17, ...

........................................................................
.............................. CYCLE   22 ..............................
........................................................................

 iter      E             dE          RMSdq      gap      omega  full diag
   1    -42.6231536 -0.426232E+02  0.365E-01    0.37       0.0  T
   2    -42.6220255  0.112809E-02  0.354E-01    0.38       1.0  T
   3    -42.6239160 -0.189047E-02  0.201E-01    0.36       1.0  T
   4    -42.6242904 -0.374474E-03  0.639E-02    0.35       1.0  T
   5    -42.6243454 -0.550175E-04  0.332E-02    0.35       1.0  T
   6    -42.6243888 -0.433566E-04  0.932E-03    0.35       2.1  T
   7    -42.6243902 -0.143348E-05  0.459E-03    0.35       4.4  T
   8    -42.6243904 -0.141110E-06  0.114E-03    0.35      17.6  T
   9    -42.6243904 -0.225770E-07  0.519E-04    0.35      38.6  T
  10    -42.6243904 -0.201861E-08  0.250E-04    0.35      79.9  T
     SCC iter.                  ...        0 min,  0.014 sec
     gradient                   ...        0 min,  0.011 sec
 * total energy  :   -42.1232344 Eh     change       -0.1610199E-01 Eh
   gradient norm :     0.0523067 Eh/α   predicted    -0.1218298E-01 ( -24.34%)
   displ. norm   :     0.4143550 α      lambda       -0.1219603E-01
   maximum displ.:     0.2211911 α      in ANC's #20, #10, #7, ...

........................................................................
.............................. CYCLE   23 ..............................
........................................................................

 iter      E             dE          RMSdq      gap      omega  full diag
   1    -42.6414144 -0.426414E+02  0.415E-01    0.39       0.0  T
   2    -42.6391227  0.229170E-02  0.415E-01    0.35       1.0  T
   3    -42.6423430 -0.322032E-02  0.226E-01    0.37       1.0  T
   4    -42.6428997 -0.556670E-03  0.480E-02    0.34       1.0  T
   5    -42.6429390 -0.392611E-04  0.148E-02    0.34       1.3  T
   6    -42.6429435 -0.450188E-05  0.673E-03    0.34       3.0  T
   7    -42.6429439 -0.396811E-06  0.490E-03    0.34       4.1  T
   8    -42.6429445 -0.613525E-06  0.140E-03    0.34      14.3  T
   9    -42.6429445 -0.412625E-07  0.361E-04    0.34      55.3  T
  10    -42.6429445 -0.145954E-08  0.210E-04    0.34      95.4  T
     SCC iter.                  ...        0 min,  0.014 sec
     gradient                   ...        0 min,  0.011 sec
 * total energy  :   -42.1308678 Eh     change       -0.7633426E-02 Eh
   gradient norm :     0.0249443 Eh/α   predicted    -0.7144985E-02 (  -6.40%)
   displ. norm   :     0.2654190 α      lambda       -0.2525083E-02
   maximum displ.:     0.1342909 α      in ANC's #7, #10, #20, ...

........................................................................
.............................. CYCLE   24 ..............................
........................................................................

 iter      E             dE          RMSdq      gap      omega  full diag
   1    -42.6457123 -0.426457E+02  0.244E-01    0.35       0.0  T
   2    -42.6451875  0.524847E-03  0.192E-01    0.32       1.0  T
   3    -42.6455655 -0.377995E-03  0.167E-01    0.36       1.0  T
   4    -42.6459900 -0.424510E-03  0.211E-02    0.33       1.0  T
   5    -42.6459984 -0.844818E-05  0.112E-02    0.34       1.8  T
   6    -42.6460031 -0.461514E-05  0.255E-03    0.34       7.9  T
   7    -42.6460031 -0.693382E-07  0.130E-03    0.34      15.4  T
   8    -42.6460032 -0.194968E-07  0.446E-04    0.34      44.8  T
   9    -42.6460032 -0.416478E-08  0.126E-04    0.34     158.7  T
     SCC iter.                  ...        0 min,  0.013 sec
     gradient                   ...        0 min,  0.011 sec
 * total energy  :   -42.1327038 Eh     change       -0.1836005E-02 Eh
   gradient norm :     0.0245020 Eh/α   predicted    -0.1351556E-02 ( -26.39%)
   displ. norm   :     0.3034189 α      lambda       -0.2075119E-02
   maximum displ.:     0.1548058 α      in ANC's #10, #7, #6, ...

........................................................................
.............................. CYCLE   25 ..............................
........................................................................

 iter      E             dE          RMSdq      gap      omega  full diag
   1    -42.6487048 -0.426487E+02  0.235E-01    0.34       0.0  T
   2    -42.6484934  0.211410E-03  0.154E-01    0.32       1.0  T
   3    -42.6482028  0.290639E-03  0.181E-01    0.36       1.0  T
   4    -42.6488311 -0.628312E-03  0.195E-02    0.33       1.0  T
   5    -42.6488419 -0.108135E-04  0.109E-02    0.34       1.8  T
   6    -42.6488462 -0.426350E-05  0.206E-03    0.34       9.7  T
   7    -42.6488462 -0.180509E-07  0.960E-04    0.34      20.8  T
   8    -42.6488462 -0.610351E-08  0.215E-04    0.34      93.0  T
     SCC iter.                  ...        0 min,  0.011 sec
     gradient                   ...        0 min,  0.011 sec
 * total energy  :   -42.1340811 Eh     change       -0.1377237E-02 Eh
   gradient norm :     0.0149375 Eh/α   predicted    -0.1133126E-02 ( -17.72%)
   displ. norm   :     0.2768493 α      lambda       -0.1054800E-02
   maximum displ.:     0.1718962 α      in ANC's #7, #10, #6, ...

........................................................................
.............................. CYCLE   26 ..............................
........................................................................

 iter      E             dE          RMSdq      gap      omega  full diag
   1    -42.6471758 -0.426472E+02  0.249E-01    0.34       0.0  T
   2    -42.6469910  0.184797E-03  0.150E-01    0.31       1.0  T
   3    -42.6465364  0.454635E-03  0.203E-01    0.37       1.0  T
   4    -42.6472870 -0.750652E-03  0.174E-02    0.33       1.2  T
   5    -42.6472945 -0.745414E-05  0.996E-03    0.33       2.0  T
   6    -42.6472976 -0.311894E-05  0.360E-03    0.33       5.6  T
   7    -42.6472978 -0.183255E-06  0.182E-03    0.33      11.0  T
   8    -42.6472978 -0.342848E-07  0.423E-04    0.33      47.3  T
   9    -42.6472978 -0.296318E-08  0.140E-04    0.33     142.9  T
     SCC iter.                  ...        0 min,  0.013 sec
     gradient                   ...        0 min,  0.011 sec
 * total energy  :   -42.1345682 Eh     change       -0.4871374E-03 Eh
   gradient norm :     0.0197803 Eh/α   predicted    -0.5678797E-03 (  16.57%)
   displ. norm   :     0.1429320 α      lambda       -0.9428365E-03
   maximum displ.:     0.0707908 α      in ANC's #2, #6, #10, ...

........................................................................
.............................. CYCLE   27 ..............................
........................................................................

 iter      E             dE          RMSdq      gap      omega  full diag
   1    -42.6529323 -0.426529E+02  0.986E-02    0.32       0.0  T
   2    -42.6529405 -0.826001E-05  0.573E-02    0.33       1.0  T
   3    -42.6529033  0.371869E-04  0.441E-02    0.32       1.0  T
   4    -42.6529388 -0.354267E-04  0.159E-02    0.33       1.3  T
   5    -42.6529452 -0.641038E-05  0.452E-03    0.32       4.4  T
   6    -42.6529454 -0.260661E-06  0.222E-03    0.33       9.0  T
   7    -42.6529455 -0.469895E-07  0.568E-04    0.33      35.2  T
   8    -42.6529455 -0.516970E-08  0.237E-04    0.33      84.5  T
     SCC iter.                  ...        0 min,  0.012 sec
     gradient                   ...        0 min,  0.011 sec
 * total energy  :   -42.1350180 Eh     change       -0.4497836E-03 Eh
   gradient norm :     0.0109961 Eh/α   predicted    -0.4810506E-03 (   6.95%)
   displ. norm   :     0.0916053 α      lambda       -0.2940104E-03
   maximum displ.:     0.0401589 α      in ANC's #2, #7, #5, ...

........................................................................
.............................. CYCLE   28 ..............................
........................................................................

 iter      E             dE          RMSdq      gap      omega  full diag
   1    -42.6532125 -0.426532E+02  0.757E-02    0.33       0.0  T
   2    -42.6531935  0.190156E-04  0.496E-02    0.31       1.0  T
   3    -42.6531645  0.290730E-04  0.577E-02    0.34       1.0  T
   4    -42.6532238 -0.593464E-04  0.310E-03    0.32       6.5  T
   5    -42.6532240 -0.183210E-06  0.117E-03    0.32      17.1  T
   6    -42.6532240 -0.267323E-07  0.557E-04    0.32      35.9  T
   7    -42.6532240 -0.532263E-08  0.364E-04    0.32      54.9  T
     SCC iter.                  ...        0 min,  0.010 sec
     gradient                   ...        0 min,  0.011 sec
 * total energy  :   -42.1352442 Eh     change       -0.2261672E-03 Eh
   gradient norm :     0.0071843 Eh/α   predicted    -0.1482460E-03 ( -34.45%)
   displ. norm   :     0.1776022 α      lambda       -0.3678240E-03
   maximum displ.:     0.0840065 α      in ANC's #2, #10, #7, ...

........................................................................
.............................. CYCLE   29 ..............................
........................................................................

 iter      E             dE          RMSdq      gap      omega  full diag
   1    -42.6525828 -0.426526E+02  0.135E-01    0.32       0.0  T
   2    -42.6525516  0.312371E-04  0.838E-02    0.30       1.0  T
   3    -42.6523837  0.167904E-03  0.105E-01    0.35       1.0  T
   4    -42.6526040 -0.220257E-03  0.513E-03    0.31       3.9  T
   5    -42.6526046 -0.607653E-06  0.190E-03    0.31      10.5  T
   6    -42.6526046 -0.630488E-07  0.858E-04    0.31      23.3  T
   7    -42.6526046  0.511409E-08  0.763E-04    0.31      26.2  T
     SCC iter.                  ...        0 min,  0.010 sec
     gradient                   ...        0 min,  0.011 sec
 * total energy  :   -42.1354597 Eh     change       -0.2155778E-03 Eh
   gradient norm :     0.0092792 Eh/α   predicted    -0.1897148E-03 ( -12.00%)
   displ. norm   :     0.0685902 α      lambda       -0.1125255E-03
   maximum displ.:     0.0369818 α      in ANC's #2, #5, #1, ...

........................................................................
.............................. CYCLE   30 ..............................
........................................................................

 iter      E             dE          RMSdq      gap      omega  full diag
   1    -42.6530740 -0.426531E+02  0.339E-02    0.31       0.0  T
   2    -42.6530733  0.737874E-06  0.202E-02    0.31       1.0  T
   3    -42.6530596  0.137117E-04  0.217E-02    0.32       1.0  T
   4    -42.6530759 -0.162808E-04  0.176E-03    0.31      11.4  T
   5    -42.6530759 -0.693376E-07  0.883E-04    0.31      22.6  T
   6    -42.6530759 -0.359798E-08  0.468E-04    0.31      42.7  T
     SCC iter.                  ...        0 min,  0.009 sec
     gradient                   ...        0 min,  0.011 sec
 * total energy  :   -42.1355401 Eh     change       -0.8032069E-04 Eh
   gradient norm :     0.0066989 Eh/α   predicted    -0.5653438E-04 ( -29.61%)
   displ. norm   :     0.1285319 α      lambda       -0.1225016E-03
   maximum displ.:     0.0715054 α      in ANC's #2, #5, #1, ...

........................................................................
.............................. CYCLE   31 ..............................
........................................................................

 iter      E             dE          RMSdq      gap      omega  full diag
   1    -42.6527056 -0.426527E+02  0.742E-02    0.31       0.0  T
   2    -42.6527034  0.217008E-05  0.443E-02    0.31       1.0  T
   3    -42.6526463  0.571166E-04  0.465E-02    0.33       1.0  T
   4    -42.6527077 -0.614044E-04  0.361E-03    0.31       5.5  T
   5    -42.6527080 -0.273548E-06  0.174E-03    0.31      11.5  T
   6    -42.6527081 -0.897593E-07  0.524E-04    0.31      38.2  T
   7    -42.6527081 -0.286658E-08  0.286E-04    0.31      69.9  T
     SCC iter.                  ...        0 min,  0.010 sec
     gradient                   ...        0 min,  0.011 sec
 * total energy  :   -42.1356229 Eh     change       -0.8286343E-04 Eh
   gradient norm :     0.0042142 Eh/α   predicted    -0.6227031E-04 ( -24.85%)
   displ. norm   :     0.1042502 α      lambda       -0.8233279E-04
   maximum displ.:     0.0565362 α      in ANC's #5, #2, #1, ...

........................................................................
.............................. CYCLE   32 ..............................
........................................................................

 iter      E             dE          RMSdq      gap      omega  full diag
   1    -42.6529339 -0.426529E+02  0.474E-02    0.31       0.0  T
   2    -42.6529310  0.283327E-05  0.298E-02    0.30       1.0  T
   3    -42.6529046  0.264744E-04  0.310E-02    0.32       1.0  T
   4    -42.6529371 -0.325448E-04  0.336E-03    0.31       6.0  T
   5    -42.6529373 -0.187834E-06  0.183E-03    0.31      10.9  T
   6    -42.6529374 -0.732975E-07  0.765E-04    0.31      26.2  T
   7    -42.6529374 -0.786023E-08  0.328E-04    0.31      61.1  T
     SCC iter.                  ...        0 min,  0.010 sec
     gradient                   ...        0 min,  0.012 sec
 * total energy  :   -42.1356804 Eh     change       -0.5744934E-04 Eh
   gradient norm :     0.0027181 Eh/α   predicted    -0.4161790E-04 ( -27.56%)
   displ. norm   :     0.1218262 α      lambda       -0.6114147E-04
   maximum displ.:     0.0709639 α      in ANC's #5, #1, #2, ...

........................................................................
.............................. CYCLE   33 ..............................
........................................................................

 iter      E             dE          RMSdq      gap      omega  full diag
   1    -42.6526786 -0.426527E+02  0.563E-02    0.31       0.0  T
   2    -42.6526723  0.620614E-05  0.369E-02    0.30       1.0  T
   3    -42.6526393  0.330553E-04  0.404E-02    0.32       1.0  T
   4    -42.6526829 -0.436545E-04  0.514E-03    0.30       3.9  T
   5    -42.6526836 -0.665245E-06  0.206E-03    0.31       9.7  T
   6    -42.6526837 -0.109346E-06  0.656E-04    0.31      30.5  T
   7    -42.6526837 -0.370144E-08  0.364E-04    0.31      54.9  T
     SCC iter.                  ...        0 min,  0.010 sec
     gradient                   ...        0 min,  0.011 sec
 * total energy  :   -42.1357238 Eh     change       -0.4346398E-04 Eh
   gradient norm :     0.0033753 Eh/α   predicted    -0.3102873E-04 ( -28.61%)
   displ. norm   :     0.1203269 α      lambda       -0.5537151E-04
   maximum displ.:     0.0778214 α      in ANC's #5, #1, #9, ...

   *** GEOMETRY OPTIMIZATION CONVERGED AFTER 33 ITERATIONS ***

------------------------------------------------------------------------
 total energy gain   :        -6.7469357 Eh    -4233.7661 kcal/mol
 total RMSD          :         0.7873377 a0        0.4166 Å
 total power (kW/mol):      -536.7902176 (step)********** (real)
------------------------------------------------------------------------

 ANCopt (total)                0 d,  0 h,  0 min,  0.978 sec
 optimizer setup                ...        0 min,  0.001 sec (  0.055%)
 model hessian                  ...        0 min,  0.013 sec (  1.293%)
 ANC generation                 ...        0 min,  0.002 sec (  0.195%)
 coordinate transformation      ...        0 min,  0.000 sec (  0.028%)
 single point calculation       ...        0 min,  0.955 sec ( 97.673%)
 optimization log               ...        0 min,  0.003 sec (  0.279%)
 hessian update                 ...        0 min,  0.000 sec (  0.038%)
 rational function              ...        0 min,  0.003 sec (  0.295%)

================
 final structure:
================
25
 xtb: 6.6.1 (8d0f1dd)
C            3.23536467705227        1.18559516772363       -0.00794746065896
N            2.27600412541849        0.11536995500096        0.02070566531408
C            2.54279429063107       -1.19364849199195        0.05891528442300
N            1.38769787210809       -1.89887551939004        0.11049287773793
C            0.34847533231318       -1.00497840381867        0.10220427934085
C            0.90835795029676        0.26938788501577        0.04571835133984
C            0.10603906763858        1.46474547869671        0.01248499075425
O            0.52135172293813        2.60559673472283       -0.03035495612506
N           -1.26419538193319        1.16251638399117        0.03192224179584
C           -2.19666894126701        2.28119901953940       -0.01475802693435
C           -1.85731073057329       -0.07318370848380        0.07952138089411
O           -3.04710298914360       -0.23540561241586        0.07512193795751
N           -0.99021967653020       -1.23168703309825        0.14248711488938
C           -1.56556531962172       -2.44149414130866        0.24891771083895
H            3.77377680385171        1.23790939899823        0.94018125656633
H            3.95541038952467        1.02915272440695       -0.81103376134931
H            2.70689612096703        2.12536466570618       -0.16541400216835
H            3.52193969716478       -1.62822419935764        0.05122803929225
H           -1.61873495496728        3.20264973196168       -0.01318260792534
H           -2.80763249059457        2.21754091355037       -0.91539580505578
H           -2.85841616761702        2.24543046622106        0.85094791766472
H           -0.97219808399911       -3.33310628763262        0.28324620696087
H           -1.62605723467827       -4.90336207216823       -1.47019325524546
H           -2.63845704073384       -2.47418869199898        0.27364386195190
H            1.31888247585439       -2.90606582227103        0.13171237564074

 Bond Distances (Angstroems)
 ---------------------------
C1-N2=1.4376         C1-H15=1.0916        C1-H16=1.0899        C1-H17=1.0896        N2-C1=1.4376         N2-C3=1.3365         
N2-C6=1.3765         C3-N2=1.3365         C3-N4=1.3543         C3-H18=1.0713        N4-C3=1.3543         N4-C5=1.3708         
N4-H25=1.0098        C5-N4=1.3708         C5-C6=1.3931         C5-N13=1.3584        C6-N2=1.3765         C6-C5=1.3931         
C6-C7=1.4400         C7-C6=1.4400         C7-O8=1.2149         C7-N9=1.4033         O8-C7=1.2149         N9-C7=1.4033         
N9-C10=1.4571        N9-C11=1.3715        C10-N9=1.4571        C10-H19=1.0877       C10-H20=1.0902       C10-H21=1.0902       
C11-N9=1.3715        C11-O12=1.2008       C11-N13=1.4484       O12-C11=1.2008       N13-C5=1.3584        N13-C11=1.4484       
N13-C14=1.3439       C14-N13=1.3439       C14-H22=1.0716       C14-H24=1.0737       H15-C1=1.0916        H16-C1=1.0899        
H17-C1=1.0896        H18-C3=1.0713        H19-C10=1.0877       H20-C10=1.0902       H21-C10=1.0902       H22-C14=1.0716       
H24-C14=1.0737       H25-N4=1.0098        
 C  H  Rav=1.0840 sigma=0.0084  Rmin=1.0713  Rmax=1.0916     9
 C  C  Rav=1.4166 sigma=0.0235  Rmin=1.3931  Rmax=1.4400     2
 N  H  Rav=1.0098 sigma=0.0000  Rmin=1.0098  Rmax=1.0098     1
 N  C  Rav=1.3871 sigma=0.0409  Rmin=1.3365  Rmax=1.4571    11
 O  C  Rav=1.2078 sigma=0.0070  Rmin=1.2008  Rmax=1.2149     2

 selected bond angles (degree)
 --------------------
H15-C1-N2=110.34               H16-C1-N2=110.41               H16-C1-H15=108.72              H17-C1-N2=108.74               
H17-C1-H15=108.87              H17-C1-H16=109.74              C3-N2-C1=126.62                C6-N2-C1=125.46                
C6-N2-C3=107.90                N4-C3-N2=109.93                H18-C3-N2=125.42               H18-C3-N4=124.65               
C5-N4-C3=107.87                H25-N4-C3=125.33               H25-N4-C5=126.79               C6-C5-N4=106.98                
N13-C5-N4=129.65               N13-C5-C6=123.36               C5-C6-N2=107.32                C7-C6-N2=130.24                
C7-C6-C5=122.44                O8-C7-C6=126.15                N9-C7-C6=111.40                N9-C7-O8=122.45                
C10-N9-C7=117.33               C11-N9-C7=128.08               C11-N9-C10=114.59              H19-C10-N9=108.08              
H20-C10-N9=109.89              H20-C10-H19=110.39             H21-C10-N9=109.74              H21-C10-H19=110.44             
H21-C10-H20=108.30             

 selected dihedral angles (degree)
 ---------------------------------
C3-N2-C1-H15=292.14           C3-N2-C1-H16= 52.36           C3-N2-C1-H17=172.80           C6-N2-C1-H15=110.49           
C6-N2-C1-H16=230.70           C6-N2-C1-H17=351.15           N4-C3-N2-C1=178.48            N4-C3-N2-C6=359.90            
H18-C3-N2-C1=358.54           H18-C3-N2-C6=179.95           C5-N4-C3-N2=  0.12            C5-N4-C3-H18=180.06           
H25-N4-C3-N2=178.98           H25-N4-C3-H18=358.92          C6-C5-N4-C3=359.92            C6-C5-N4-H25=181.08           
N13-C5-N4-C3=180.09           N13-C5-N4-H25=  1.25          C5-C6-N2-C1=181.45            C5-C6-N2-C3=  0.05            
C7-C6-N2-C1=  1.95            C7-C6-N2-C3=180.56            N2-C6-C5-N4=  0.00            N2-C6-C5-N13=179.86           
C7-C6-C5-N4=179.56            C7-C6-C5-N13=359.40           O8-C7-C6-N2=359.05            O8-C7-C6-C5=179.62            
N9-C7-C6-N2=178.89            N9-C7-C6-C5=359.46            C10-N9-C7-C6=180.75           C10-N9-C7-O8=  0.59           
C11-N9-C7-C6=  0.17           C11-N9-C7-O8=180.01           H19-C10-N9-C7=357.47          H19-C10-N9-C11=177.97         
H20-C10-N9-C7=118.00          H20-C10-N9-C11=298.49         H21-C10-N9-C7=236.98          H21-C10-N9-C11= 57.48         
           -------------------------------------------------
          |                Final Singlepoint                |
           -------------------------------------------------

          ...................................................
          :                      SETUP                      :
          :.................................................:
          :  # basis functions                  67          :
          :  # atomic orbitals                  67          :
          :  # shells                           39          :
          :  # electrons                        74          :
          :  max. iterations                   250          :
          :  Hamiltonian                  GFN2-xTB          :
          :  restarted?                      false          :
          :  GBSA solvation                  false          :
          :  PC potential                    false          :
          :  electronic temp.         7500.0000000     K    :
          :  accuracy                    1.0000000          :
          :  -> integral cutoff          0.2500000E+02      :
          :  -> integral neglect         0.1000000E-07      :
          :  -> SCF convergence          0.1000000E-05 Eh   :
          :  -> wf. convergence          0.1000000E-03 e    :
          :  Broyden damping             0.4000000          :
          ...................................................

 iter      E             dE          RMSdq      gap      omega  full diag
   1    -42.6526837 -0.426527E+02  0.107E-04    0.31       0.0  T
   2    -42.6526837  0.164846E-11  0.894E-05    0.31     223.8  T
   3    -42.6526837 -0.195456E-09  0.415E-05    0.31     482.0  T

   *** convergence criteria satisfied after 3 iterations ***

         #    Occupation            Energy/Eh            Energy/eV
      -------------------------------------------------------------
         1        2.0000           -0.9141152             -24.8743
       ...           ...                  ...                  ...
        31        1.9920           -0.6197634             -16.8646
        32        1.9869           -0.6078180             -16.5396
        33        1.9736           -0.5911005             -16.0847
        34        1.9722           -0.5898201             -16.0498
        35        1.9384           -0.5705188             -15.5246
        36        1.9372           -0.5700811             -15.5127
        37        1.0892           -0.4928686             -13.4116 (HOMO)
        38        0.8542           -0.4816473             -13.1063 (LUMO)
        39        0.2001           -0.4364476             -11.8763
        40        0.0548           -0.4038291             -10.9887
        41        0.0184           -0.3774456             -10.2708
        42        0.0005           -0.2929893              -7.9726
       ...           ...                  ...                  ...
        67                          0.5385052              14.6535
      -------------------------------------------------------------
                  HL-Gap            0.0112214 Eh            0.3053 eV
             Fermi-level           -0.4886219 Eh          -13.2961 eV

 SCC (total)                   0 d,  0 h,  0 min,  0.021 sec
 SCC setup                      ...        0 min,  0.000 sec (  0.838%)
 Dispersion                     ...        0 min,  0.000 sec (  0.888%)
 classical contributions        ...        0 min,  0.000 sec (  0.317%)
 integral evaluation            ...        0 min,  0.004 sec ( 20.845%)
 iterations                     ...        0 min,  0.005 sec ( 22.588%)
 molecular gradient             ...        0 min,  0.011 sec ( 53.935%)
 printout                       ...        0 min,  0.000 sec (  0.532%)

         :::::::::::::::::::::::::::::::::::::::::::::::::::::
         ::                     SUMMARY                     ::
         :::::::::::::::::::::::::::::::::::::::::::::::::::::
         :: total energy             -42.135723844606 Eh    ::
         :: gradient norm              0.003377069426 Eh/a0 ::
         :: HOMO-LUMO gap              0.305349149357 eV    ::
         ::.................................................::
         :: SCC energy               -42.652683726697 Eh    ::
         :: -> isotropic ES            0.137765280119 Eh    ::
         :: -> anisotropic ES         -0.005710896836 Eh    ::
         :: -> anisotropic XC          0.012630267541 Eh    ::
         :: -> dispersion             -0.022695015249 Eh    ::
         :: repulsion energy           0.516866095044 Eh    ::
         :: add. restraining           0.000000187017 Eh    ::
         :: total charge               0.999999999977 e     ::
         :::::::::::::::::::::::::::::::::::::::::::::::::::::

           -------------------------------------------------
          |                Property Printout                |
           -------------------------------------------------

    * Orbital Energies and Occupations

         #    Occupation            Energy/Eh            Energy/eV
      -------------------------------------------------------------
         1        2.0000           -0.9141152             -24.8743
       ...           ...                  ...                  ...
        25        1.9992           -0.6752768             -18.3752
        26        1.9990           -0.6699081             -18.2291
        27        1.9989           -0.6658292             -18.1181
        28        1.9962           -0.6372134             -17.3395
        29        1.9959           -0.6353278             -17.2881
        30        1.9957           -0.6342788             -17.2596
        31        1.9920           -0.6197634             -16.8646
        32        1.9869           -0.6078180             -16.5396
        33        1.9736           -0.5911005             -16.0847
        34        1.9722           -0.5898201             -16.0498
        35        1.9384           -0.5705188             -15.5246
        36        1.9372           -0.5700811             -15.5127
        37        1.0892           -0.4928686             -13.4116 (HOMO)
        38        0.8542           -0.4816473             -13.1063 (LUMO)
        39        0.2001           -0.4364476             -11.8763
        40        0.0548           -0.4038291             -10.9887
        41        0.0184           -0.3774456             -10.2708
        42        0.0005           -0.2929893              -7.9726
        43        0.0000           -0.2139702              -5.8224
        44        0.0000           -0.2023627              -5.5066
        45        0.0000           -0.1514228              -4.1204
        46        0.0000           -0.1387469              -3.7755
        47                         -0.0691615              -1.8820
        48                         -0.0402570              -1.0954
       ...                                ...                  ...
        67                          0.5385052              14.6535
      -------------------------------------------------------------
                  HL-Gap            0.0112214 Eh            0.3053 eV
             Fermi-level           -0.4886219 Eh          -13.2961 eV

     #   Z          covCN         q      C6AA      α(0)
     1   6 C        3.691    -0.094    22.484     6.786
     2   7 N        2.824     0.076    19.917     6.628
     3   6 C        3.040     0.047    26.910     8.508
     4   7 N        2.782    -0.058    22.358     7.023
     5   6 C        3.034     0.091    25.939     8.354
     6   6 C        3.102    -0.013    28.212     8.704
     7   6 C        2.763     0.262    22.589     7.783
     8   8 O        0.858    -0.357    20.832     6.119
     9   7 N        2.744    -0.072    22.647     7.068
    10   6 C        3.711    -0.063    21.853     6.680
    11   6 C        2.735     0.307    21.781     7.641
    12   8 O        0.859    -0.332    20.376     6.052
    13   7 N        2.736     0.013    21.037     6.812
    14   6 C        2.798    -0.055    29.355     8.876
    15   1 H        0.924     0.110     1.693     2.035
    16   1 H        0.925     0.108     1.715     2.048
    17   1 H        0.925     0.138     1.478     1.901
    18   1 H        0.926     0.126     1.569     1.958
    19   1 H        0.925     0.123     1.588     1.971
    20   1 H        0.925     0.108     1.716     2.048
    21   1 H        0.924     0.108     1.713     2.047
    22   1 H        0.926     0.096     1.826     2.113
    23   1 H        0.000    -0.032     9.181     5.540
    24   1 H        0.926     0.136     1.490     1.909
    25   1 H        0.860     0.229     0.970     1.543

 Mol. C6AA /au·bohr⁶  :       6850.262666
 Mol. C8AA /au·bohr⁸  :     156147.154238
 Mol. α(0) /au        :        128.147841


Wiberg/Mayer (AO) data.
largest (>0.10) Wiberg bond orders for each atom

 ---------------------------------------------------------------------------
     #   Z sym  total        # sym  WBO       # sym  WBO       # sym  WBO
 ---------------------------------------------------------------------------
     1   6 C    3.904 --     2 N    0.988    16 H    0.959    17 H    0.956
                            15 H    0.953
     2   7 N    3.617 --     3 C    1.345     6 C    1.157     1 C    0.988
     3   6 C    3.754 --     2 N    1.345     4 N    1.267    18 H    0.953
     4   7 N    3.527 --     3 C    1.267     5 C    1.172    25 H    0.918
     5   6 C    3.852 --     6 C    1.324     4 N    1.172    13 N    1.152
     6   6 C    3.830 --     5 C    1.324     2 N    1.157     7 C    1.090
     7   6 C    3.882 --     8 O    1.642     6 C    1.090     9 N    1.070
     8   8 O    1.919 --     7 C    1.642     9 N    0.122
     9   7 N    3.517 --    11 C    1.157     7 C    1.070    10 C    0.970
                            12 O    0.138     8 O    0.122
    10   6 C    3.881 --     9 N    0.970    19 H    0.958    21 H    0.954
                            20 H    0.953
    11   6 C    3.899 --    12 O    1.701     9 N    1.157    13 N    0.951
    12   8 O    2.001 --    11 C    1.701     9 N    0.138
    13   7 N    3.603 --    14 C    1.291     5 C    1.152    11 C    0.951
    14   6 C    3.320 --    13 N    1.291    22 H    0.963    24 H    0.956
    15   1 H    0.978 --     1 C    0.953
    16   1 H    0.981 --     1 C    0.959
    17   1 H    0.978 --     1 C    0.956
    18   1 H    0.983 --     3 C    0.953
    19   1 H    0.977 --    10 C    0.958
    20   1 H    0.971 --    10 C    0.953
    21   1 H    0.972 --    10 C    0.954
    22   1 H    0.989 --    14 C    0.963
    23   1 H    0.016
    24   1 H    0.979 --    14 C    0.956
    25   1 H    0.947 --     4 N    0.918
 ---------------------------------------------------------------------------

Topologies differ in total number of bonds
Writing topology from bond orders to xtbtopo.mol

molecular dipole:
                 x           y           z       tot (Debye)
 q only:        2.396      -1.309       0.267
   full:        2.629      -1.865       0.275       8.222
molecular quadrupole (traceless):
                xx          xy          yy          xz          yz          zz
 q only:       14.683      -9.058       2.148      -0.399      -2.530     -16.831
  q+dip:       12.454     -11.872       2.273      -0.202      -2.352     -14.728
   full:       11.375     -11.716       1.295      -0.174      -2.248     -12.670

           -------------------------------------------------
          |                Geometry Summary                 |
           -------------------------------------------------

      molecular mass/u    :      195.1988581
   center of mass at/Å    :        0.0019488       0.0748789       0.0535462
  moments of inertia/u·Å² :        0.4930426E+03   0.7197486E+03   0.1200357E+04
rotational constants/cm⁻¹ :        0.3419102E-01   0.2342156E-01   0.1404385E-01

 * 24 selected distances

     #   Z          #   Z                                           value/Å
     1   6 C        2   7 N                                       1.4375591
     2   7 N        3   6 C                                       1.3364754
     3   6 C        4   7 N                                       1.3543461
     4   7 N        5   6 C                                       1.3708044
     2   7 N        6   6 C                                       1.3765186
     5   6 C        6   6 C                                       1.3930790
     6   6 C        7   6 C                                       1.4400348
     7   6 C        8   8 O                                       1.2148505
     7   6 C        9   7 N                                       1.4033043
     9   7 N       10   6 C                                       1.4570989 (max)
     9   7 N       11   6 C                                       1.3714979
    11   6 C       12   8 O                                       1.2008086
     5   6 C       13   7 N                                       1.3583535
    13   7 N       14   6 C                                       1.3438689
     1   6 C       15   1 H                                       1.0915918
     1   6 C       16   1 H                                       1.0899027
     1   6 C       17   1 H                                       1.0896062
     3   6 C       18   1 H                                       1.0712801
    10   6 C       19   1 H                                       1.0876956
    10   6 C       20   1 H                                       1.0901731
    10   6 C       21   1 H                                       1.0902457
    14   6 C       22   1 H                                       1.0715575
    14   6 C       24   1 H                                       1.0736746
     4   7 N       25   1 H                                       1.0097615 (min)

 * 5 distinct bonds (by element types)

   Z      Z             #   av. dist./Å        max./Å        min./Å
   1 H    6 C           9     1.0839697     1.0915918     1.0712801
   6 C    6 C           2     1.4165569     1.4400348     1.3930790
   1 H    7 N           1     1.0097615     1.0097615     1.0097615
   6 C    7 N          10     1.3809827     1.4570989     1.3364754
   6 C    8 O           2     1.2078295     1.2148505     1.2008086


optimized geometry written to: xtbopt.xyz


           -------------------------------------------------
          | TOTAL ENERGY              -42.135723844606 Eh   |
          | GRADIENT NORM               0.003377069426 Eh/α |
          | HOMO-LUMO GAP               0.305349149357 eV   |
           -------------------------------------------------

------------------------------------------------------------------------
 * finished run on 2024/06/05 at 19:58:54.759     
------------------------------------------------------------------------
 total:
 * wall-time:     0 d,  0 h,  0 min,  1.068 sec
 *  cpu-time:     0 d,  0 h,  0 min,  1.047 sec
 * ratio c/w:     0.981 speedup
 SCF:
 * wall-time:     0 d,  0 h,  0 min,  0.035 sec
 *  cpu-time:     0 d,  0 h,  0 min,  0.035 sec
 * ratio c/w:     1.000 speedup
 ANC optimizer:
 * wall-time:     0 d,  0 h,  0 min,  1.003 sec
 *  cpu-time:     0 d,  0 h,  0 min,  0.999 sec
 * ratio c/w:     0.996 speedup

