      -----------------------------------------------------------      
     |                   =====================                   |     
     |                           x T B                           |     
     |                   =====================                   |     
     |                         S. Grimme                         |     
     |          Mulliken Center for Theoretical Chemistry        |     
     |                    University of Bonn                     |     
      -----------------------------------------------------------      

   * xtb version 6.6.1 (8d0f1dd) compiled by 'conda@1efc2f54142f' on 2023-08-01

   xtb is free software: you can redistribute it and/or modify it under
   the terms of the GNU Lesser General Public License as published by
   the Free Software Foundation, either version 3 of the License, or
   (at your option) any later version.
   
   xtb is distributed in the hope that it will be useful,
   but WITHOUT ANY WARRANTY; without even the implied warranty of
   MERCHANTABILITY or FITNESS FOR A PARTICULAR PURPOSE.  See the
   GNU Lesser General Public License for more details.
   
   Cite this work as:
   * C. Bannwarth, E. Caldeweyher, S. Ehlert, A. Hansen, P. Pracht,
     J. Seibert, S. Spicher, S. Grimme, WIREs Comput. Mol. Sci., 2020, 11,
     e01493. DOI: 10.1002/wcms.1493
   
   for GFN2-xTB:
   * C. Bannwarth, S. Ehlert and S. Grimme., J. Chem. Theory Comput., 2019,
     15, 1652-1671. DOI: 10.1021/acs.jctc.8b01176
   for GFN1-xTB:
   * S. Grimme, C. Bannwarth, P. Shushkov, J. Chem. Theory Comput., 2017,
     13, 1989-2009. DOI: 10.1021/acs.jctc.7b00118
   for GFN0-xTB:
   * P. Pracht, E. Caldeweyher, S. Ehlert, S. Grimme, ChemRxiv, 2019, preprint.
     DOI: 10.26434/chemrxiv.8326202.v1
   for GFN-FF:
   * S. Spicher and S. Grimme, Angew. Chem. Int. Ed., 2020, 59, 15665-15673.
     DOI: 10.1002/anie.202004239
   
   for ALPB and GBSA implicit solvation:
   * S. Ehlert, M. Stahn, S. Spicher, S. Grimme, J. Chem. Theory Comput.,
     2021, 17, 4250-4261. DOI: 10.1021/acs.jctc.1c00471
   
   for DFT-D4:
   * E. Caldeweyher, C. Bannwarth and S. Grimme, J. Chem. Phys., 2017,
     147, 034112. DOI: 10.1063/1.4993215
   * E. Caldeweyher, S. Ehlert, A. Hansen, H. Neugebauer, S. Spicher,
     C. Bannwarth and S. Grimme, J. Chem. Phys., 2019, 150, 154122.
     DOI: 10.1063/1.5090222
   * E. Caldeweyher, J.-M. Mewes, S. Ehlert and S. Grimme, Phys. Chem. Chem. Phys.
     2020, 22, 8499-8512. DOI: 10.1039/D0CP00502A
   
   for sTDA-xTB:
   * S. Grimme and C. Bannwarth, J. Chem. Phys., 2016, 145, 054103.
     DOI: 10.1063/1.4959605
   
   in the mass-spec context:
   * V. Asgeirsson, C. Bauer and S. Grimme, Chem. Sci., 2017, 8, 4879.
     DOI: 10.1039/c7sc00601b
   * J. Koopman and S. Grimme, ACS Omega 2019, 4, 12, 15120-15133.
     DOI: 10.1021/acsomega.9b02011
   
   for metadynamics refer to:
   * S. Grimme, J. Chem. Theory Comput., 2019, 155, 2847-2862
     DOI: 10.1021/acs.jctc.9b00143
   
   for SPH calculations refer to:
   * S. Spicher and S. Grimme, J. Chem. Theory Comput., 2021, 17, 1701-1714
     DOI: 10.1021/acs.jctc.0c01306
   
   with help from (in alphabetical order)
   P. Atkinson, C. Bannwarth, F. Bohle, G. Brandenburg, E. Caldeweyher
   M. Checinski, S. Dohm, S. Ehlert, S. Ehrlich, I. Gerasimov, C. Hölzer
   A. Katbashev, J. Koopman, C. Lavigne, S. Lehtola, F. März, M. Müller,
   F. Musil, H. Neugebauer, J. Pisarek, C. Plett, P. Pracht, F. Pultar,
   J. Seibert, P. Shushkov, S. Spicher, M. Stahn, M. Steiner, T. Strunk,
   J. Stückrath, T. Rose, and J. Unsleber
   
 * started run on 2024/04/06 at 11:14:35.255     

           -------------------------------------------------
          |                Calculation Setup                |
           -------------------------------------------------

          program call               : xtb xtbopt.xyz --opt crude --input .xc2 --gfn2
          hostname                   : n-62-30-23
          coordinate file            : xtbopt.xyz
          omp threads                :                     1

   ID    Z sym.   atoms
    1    7 N      1, 17
    2    6 C      2-6, 8, 9, 11-16, 18-23, 25, 26, 28-33
    3    8 O      7, 10, 24, 27
    4    1 H      34-72
########################################################################
[WARNING] Please study the warnings concerning your input carefully
-1- readin_getIntValue: could not parse ''
########################################################################

           -------------------------------------------------
          |                 G F N 2 - x T B                 |
           -------------------------------------------------

        Reference                      10.1021/acs.jctc.8b01176
      * Hamiltonian:
        H0-scaling (s, p, d)           1.850000    2.230000    2.230000
        zeta-weighting                 0.500000
      * Dispersion:
        s8                             2.700000
        a1                             0.520000
        a2                             5.000000
        s9                             5.000000
      * Repulsion:
        kExp                           1.500000    1.000000
        rExp                           1.000000
      * Coulomb:
        alpha                          2.000000
        third order                    shell-resolved
        anisotropic                    true
        a3                             3.000000
        a5                             4.000000
        cn-shift                       1.200000
        cn-exp                         4.000000
        max-rad                        5.000000

q/qsh data taken from xtbrestart
CAMM data taken from xtbrestart

          ...................................................
          :                      SETUP                      :
          :.................................................:
          :  # basis functions                 171          :
          :  # atomic orbitals                 171          :
          :  # shells                          105          :
          :  # electrons                       180          :
          :  max. iterations                   250          :
          :  Hamiltonian                  GFN2-xTB          :
          :  restarted?                       true          :
          :  GBSA solvation                  false          :
          :  PC potential                    false          :
          :  electronic temp.         5000.0000000     K    :
          :  accuracy                    1.0000000          :
          :  -> integral cutoff          0.2500000E+02      :
          :  -> integral neglect         0.1000000E-07      :
          :  -> SCF convergence          0.1000000E-05 Eh   :
          :  -> wf. convergence          0.1000000E-03 e    :
          :  Broyden damping             0.4000000          :
          ...................................................

 iter      E             dE          RMSdq      gap      omega  full diag
   1   -100.7371671 -0.100737E+03  0.764E-05    1.48       0.0  T
   2   -100.7371671  0.737998E-09  0.108E-04    1.48     109.6  T
   3   -100.7371671 -0.117718E-08  0.234E-05    1.48     503.3  T

   *** convergence criteria satisfied after 3 iterations ***

         #    Occupation            Energy/Eh            Energy/eV
      -------------------------------------------------------------
         1        2.0000           -0.8208871             -22.3375
       ...           ...                  ...                  ...
        84        1.9948           -0.5055083             -13.7556
        85        1.9941           -0.5033275             -13.6962
        86        1.9893           -0.4939188             -13.4402
        87        1.9827           -0.4863485             -13.2342
        88        1.9415           -0.4667104             -12.6998
        89        1.8843           -0.4554332             -12.3930
        90        1.7755           -0.4439875             -12.0815 (HOMO)
        91        0.4080           -0.3896895             -10.6040 (LUMO)
        92        0.0288           -0.3443217              -9.3695
        93        0.0152           -0.3341151              -9.0917
        94        0.0039           -0.3123877              -8.5005
        95        0.0032           -0.3092721              -8.4157
       ...           ...                  ...                  ...
       171                          1.2802548              34.8375
      -------------------------------------------------------------
                  HL-Gap            0.0542981 Eh            1.4775 eV
             Fermi-level           -0.4112458 Eh          -11.1906 eV

 SCC (total)                   0 d,  0 h,  0 min,  0.125 sec
 SCC setup                      ...        0 min,  0.001 sec (  0.779%)
 Dispersion                     ...        0 min,  0.002 sec (  1.387%)
 classical contributions        ...        0 min,  0.000 sec (  0.351%)
 integral evaluation            ...        0 min,  0.018 sec ( 14.629%)
 iterations                     ...        0 min,  0.028 sec ( 22.180%)
 molecular gradient             ...        0 min,  0.075 sec ( 60.152%)
 printout                       ...        0 min,  0.001 sec (  0.508%)

         :::::::::::::::::::::::::::::::::::::::::::::::::::::
         ::                     SUMMARY                     ::
         :::::::::::::::::::::::::::::::::::::::::::::::::::::
         :: total energy             -99.309544558405 Eh    ::
         :: gradient norm              0.007239245609 Eh/a0 ::
         :: HOMO-LUMO gap              1.477525739635 eV    ::
         ::.................................................::
         :: SCC energy              -100.737167145239 Eh    ::
         :: -> isotropic ES            0.102813091366 Eh    ::
         :: -> anisotropic ES          0.005559603703 Eh    ::
         :: -> anisotropic XC          0.047216505280 Eh    ::
         :: -> dispersion             -0.073311008896 Eh    ::
         :: repulsion energy           1.426281567968 Eh    ::
         :: add. restraining           0.000000000000 Eh    ::
         :: total charge               1.000000000017 e     ::
         :::::::::::::::::::::::::::::::::::::::::::::::::::::

      ----------------------------------------------------------- 
     |                   =====================                   |
     |                        A N C O P T                        |
     |                   =====================                   |
     |               Approximate Normal Coordinate               |
     |                Rational Function Optimizer                |
      ----------------------------------------------------------- 

          ...................................................
          :                      SETUP                      :
          :.................................................:
          :   optimization level             crude          :
          :   max. optcycles                   200          :
          :   ANC micro-cycles                  20          :
          :   degrees of freedom               210          :
          :.................................................:
          :   RF solver                   davidson          :
          :   write xtbopt.log                true          :
          :   linear?                        false          :
          :   energy convergence         0.5000000E-03 Eh   :
          :   grad. convergence          0.1000000E-01 Eh/α :
          :   maxmium RF displ.          1.0000000          :
          :   Hlow (freq-cutoff)         0.1000000E-01      :
          :   Hmax (freq-cutoff)         5.0000000          :
          :   S6 in model hess.         20.0000000          :
          ...................................................

generating ANC from model Hessian ...
Using Lindh-Hessian (1995)
 Shifting diagonal of input Hessian by    9.9831995044869868E-003
 Lowest  eigenvalues of input Hessian
    0.000000    0.000000    0.000000    0.000000    0.000000    0.000000
    0.010000    0.010020    0.010034    0.010200    0.010293    0.010520
    0.010583    0.010649    0.010752    0.010907    0.011044    0.011349
 Highest eigenvalues
    1.992042    2.041321    2.106612    2.160053    2.180117    2.774686


........................................................................
.............................. CYCLE    1 ..............................
........................................................................

 iter      E             dE          RMSdq      gap      omega  full diag
   1   -100.7371671 -0.100737E+03  0.157E-05    1.48       0.0  T
   2   -100.7371671  0.298428E-12  0.123E-05    1.48     961.0  T
   3   -100.7371671 -0.551381E-11  0.777E-06    1.48    1516.3  T
     SCC iter.                  ...        0 min,  0.026 sec
     gradient                   ...        0 min,  0.069 sec
 * total energy  :   -99.3095446 Eh     change       -0.1497824E-10 Eh
   gradient norm :     0.0072392 Eh/α   predicted     0.0000000E+00 (-100.00%)
   displ. norm   :     0.1517150 α      lambda       -0.4554106E-03
   maximum displ.:     0.0684489 α      in ANC's #12, #34, #9, ...

   *** GEOMETRY OPTIMIZATION CONVERGED AFTER 1 ITERATIONS ***

------------------------------------------------------------------------
 total energy gain   :        -0.0000000 Eh       -0.0000 kcal/mol
 total RMSD          :         0.0000000 a0        0.0000 Å
 total power (kW/mol):        -0.0000000 (step)   -0.0000 (real)
------------------------------------------------------------------------

 ANCopt (total)                0 d,  0 h,  0 min,  0.180 sec
 optimizer setup                ...        0 min,  0.000 sec (  0.114%)
 model hessian                  ...        0 min,  0.054 sec ( 30.060%)
 ANC generation                 ...        0 min,  0.006 sec (  3.589%)
 coordinate transformation      ...        0 min,  0.000 sec (  0.032%)
 single point calculation       ...        0 min,  0.116 sec ( 64.779%)
 optimization log               ...        0 min,  0.002 sec (  0.970%)
 hessian update                 ...        0 min,  0.000 sec (  0.001%)
 rational function              ...        0 min,  0.000 sec (  0.100%)

================
 final structure:
================
72
 xtb: 6.6.1 (8d0f1dd)
N           -2.05468719772000        2.86961461091488        2.37492194260816
C           -1.95114683040915        2.21265470633193        1.31745129898343
C           -3.07736046000310        1.96217050344545        0.35233054748589
C           -3.43053110014358        0.48336924881985        0.35484511007525
C           -4.26202495360016       -0.03458850456155       -0.64051093502320
C           -4.62499511331967       -1.37069693818464       -0.65697637402652
O           -5.42160424657588       -1.95113422374933       -1.57968846030154
C           -6.01180349697453       -1.15470899813987       -2.57944663440267
C           -4.14214009548692       -2.23992998325845        0.35782043959043
O           -4.53860051042391       -3.52536110595452        0.25817797675336
C           -4.17117713743687       -4.43388923255500        1.26970172789707
C           -3.32561437208655       -1.71784186741525        1.34784961603367
C           -2.97526203217293       -0.37311449939981        1.34497642376378
C           -2.54082963257564        2.38836276753739       -1.03917237188626
C           -1.54350728705573        1.40234198589017       -1.67771636301928
C           -0.20800426986342        1.39696884106620       -1.03976211594857
N            0.47300261107423        0.31245244125271       -0.68795290105854
C            1.85811115959184        0.40082980230911       -0.29056058540225
C            2.79252339117219       -0.14702285627356       -1.38334488864222
C            4.23041124505610       -0.14166398026049       -0.91510516158599
C            5.13272432419101        0.67184352131938       -1.52583521538285
C            6.53307148890067        0.86703381627700       -1.31437727532730
C            7.26491594941868        0.41897127155604       -0.27109281703801
O            8.57206981606465        0.56317762063998       -0.05661555952645
C            9.36674570094699        1.19624623058463       -1.04100213900735
C            4.30429465017968       -1.94314920696348        0.94006592124482
O            4.27903141588394       -2.85295824449156        1.85350721023353
C            5.51916038090127       -3.21936606061383        2.44696794541781
C            4.46325999629034       -1.05230973915183        0.12863321690451
C           -0.11046085382354       -1.00703752779177       -0.72386821528410
C           -4.37060271293493        2.76418040220678        0.68778903370555
C           -4.97978742043826        2.31590290567181        2.01429199757170
C           -4.15301085139814        4.27453913025709        0.70611821310940
H           -4.64223170078286        0.62185077798277       -1.40548276072020
H           -6.63876086388091       -0.36813421881917       -2.14882289944978
H           -6.63399617383976       -1.83159465162906       -3.16161345240755
H           -5.25780924080438       -0.70569997418000       -3.23450816179730
H           -4.54054484354749       -4.11458456880368        2.24871228638087
H           -4.63896263881565       -5.37812894049060        0.99809746543332
H           -3.08541172256606       -4.56769821457884        1.31438592121331
H           -2.96028232760720       -2.34894636368133        2.14149870251743
H           -2.35973352575270        0.00350579637127        2.14722046649400
H           -3.38373833308352        2.50049264607804       -1.72036125289007
H           -2.06305791877812        3.36439267738076       -0.94530474932184
H           -1.97926853013237        0.40545334363907       -1.70297216708399
H           -1.40383479253246        1.73409980887613       -2.71471541861696
H           -0.99983235660927        1.77976760759888        0.95296589903264
H            0.32018666148823        2.33732179867953       -0.98344518426558
H            2.00775814688906       -0.17680079179338        0.62652580467817
H            2.11251719801236        1.44313277181484       -0.08796394305307
H            2.68805577408083        0.46009669301300       -2.28353333581130
H            2.50017766135740       -1.17215805441325       -1.62092630497261
H            4.74128276111643        1.26001462423075       -2.34629712645988
H            7.01725476507462        1.45776044403945       -2.08012351311682
H           10.39077102299851        1.14493802234900       -0.67398560342785
H            9.07913119204497        2.24402903846183       -1.17089231283004
H            9.29294849990109        0.67491399146517       -2.00058640693753
H            5.27849045928872       -3.95299125822653        3.21339550835930
H            6.18952448470406       -3.66178193757302        1.70532075875171
H            6.00477350581242       -2.35277668017854        2.90272533484057
H            6.80080696711478       -0.13392995475810        0.53976507700716
H           -0.25418710193037       -1.35042941518080       -1.75078088878152
H           -1.07672453702460       -1.01066951106010       -0.21417178650983
H            0.55155150089150       -1.70331688823553       -0.21483214531685
H           -5.09000721318054        2.53377941317038       -0.10677017516124
H           -4.29606017280436        2.53081265288572        2.82905713947700
H           -5.19891464374676        1.25102222038897        2.00715171736186
H           -5.90745266984034        2.85444475327067        2.18880874142777
H           -3.42215436853215        4.54042102510049        1.46350411577843
H           -3.82342148346959        4.65001300978896       -0.25897351656940
H           -5.09068405900153        4.76618711811124        0.95173552225318
H           -1.21781534083366        2.99944387418851        2.93503687856529

 Bond Distances (Angstroems)
 ---------------------------
N1-C2=1.2492         N1-H72=1.0154        C2-N1=1.2492         C2-C3=1.5042         C2-H47=1.1069        C3-C2=1.5042         
C3-C4=1.5204         C3-C14=1.5511        C3-C31=1.5583        C4-C3=1.5204         C4-C5=1.3966         C4-C13=1.3861        
C5-C4=1.3966         C5-C6=1.3846         C5-H34=1.0773        C6-C5=1.3846         C6-O7=1.3501         C6-C9=1.4207         
O7-C6=1.3501         O7-C8=1.4079         C8-O7=1.4079         C8-H35=1.0942        C8-H36=1.0882        C8-H37=1.0951        
C9-C6=1.4207         C9-O10=1.3489        C9-C12=1.3854        O10-C9=1.3489        O10-C11=1.4084       C11-O10=1.4084       
C11-H38=1.0940       C11-H39=1.0882       C11-H40=1.0949       C12-C9=1.3854        C12-C13=1.3896       C12-H41=1.0778       
C13-C4=1.3861        C13-C12=1.3896       C13-H42=1.0790       C14-C3=1.5511        C14-C15=1.5410       C14-H43=1.0895       
C14-H44=1.0907       C15-C14=1.5410       C15-C16=1.4801       C15-H45=1.0883       C15-H46=1.0977       C16-C15=1.4801       
C16-N17=1.3280       C16-H48=1.0800       N17-C16=1.3280       N17-C18=1.4437       N17-C30=1.4432       C18-N17=1.4437       
C18-C19=1.5387       C18-H49=1.0941       C18-H50=1.0919       C19-C18=1.5387       C19-C20=1.5122       C19-H51=1.0908       
C19-H52=1.0922       C20-C19=1.5122       C20-C21=1.3598       C20-C29=1.4046       C21-C20=1.3598       C21-C22=1.4296       
C21-H53=1.0827       C22-C21=1.4296       C22-C23=1.3509       C22-H54=1.0816       C23-C22=1.3509       C23-O24=1.3325       
C23-H61=1.0856       O24-C23=1.3325       O24-C25=1.4147       C25-O24=1.4147       C25-H55=1.0890       C25-H56=1.0943       
C25-H57=1.0945       C26-O27=1.2895       C26-C29=1.2154       O27-C26=1.2895       O27-C28=1.4228       C28-O27=1.4228       
C28-H58=1.0879       C28-H59=1.0932       C28-H60=1.0929       C29-C20=1.4046       C29-C26=1.2154       C30-N17=1.4432       
C30-H62=1.0923       C30-H63=1.0925       C30-H64=1.0873       C31-C3=1.5583        C31-C32=1.5270       C31-C33=1.5261       
C31-H65=1.0963       C32-C31=1.5270       C32-H66=1.0851       C32-H67=1.0872       C32-H68=1.0868       C33-C31=1.5261       
C33-H69=1.0856       C33-H70=1.0867       C33-H71=1.0869       H34-C5=1.0773        H35-C8=1.0942        H36-C8=1.0882        
H37-C8=1.0951        H38-C11=1.0940       H39-C11=1.0882       H40-C11=1.0949       H41-C12=1.0778       H42-C13=1.0790       
H43-C14=1.0895       H44-C14=1.0907       H45-C15=1.0883       H46-C15=1.0977       H47-C2=1.1069        H48-C16=1.0800       
H49-C18=1.0941       H50-C18=1.0919       H51-C19=1.0908       H52-C19=1.0922       H53-C21=1.0827       H54-C22=1.0816       
H55-C25=1.0890       H56-C25=1.0943       H57-C25=1.0945       H58-C28=1.0879       H59-C28=1.0932       H60-C28=1.0929       
H61-C23=1.0856       H62-C30=1.0923       H63-C30=1.0925       H64-C30=1.0873       H65-C31=1.0963       H66-C32=1.0851       
H67-C32=1.0872       H68-C32=1.0868       H69-C33=1.0856       H70-C33=1.0867       H71-C33=1.0869       H72-N1=1.0154        
 C  H  Rav=1.0895 sigma=0.0059  Rmin=1.0773  Rmax=1.1069    38
 C  C  Rav=1.4468 sigma=0.0866  Rmin=1.2154  Rmax=1.5583    21
 N  H  Rav=1.0154 sigma=0.0000  Rmin=1.0154  Rmax=1.0154     1
 N  C  Rav=1.3660 sigma=0.0823  Rmin=1.2492  Rmax=1.4437     4
 O  C  Rav=1.3718 sigma=0.0453  Rmin=1.2895  Rmax=1.4228     8

 selected bond angles (degree)
 --------------------
H72-N1-C2=117.77               C3-C2-N1=124.66                H47-C2-N1=123.75               H47-C2-C3=111.54               
C4-C3-C2=109.56                C14-C3-C2=105.72               C14-C3-C4=110.43               C31-C3-C2=113.42               
C31-C3-C4=107.91               C31-C3-C14=109.80              C5-C4-C3=119.86                C13-C4-C3=121.73               
C13-C4-C5=118.39               C6-C5-C4=121.50                H34-C5-C4=119.35               H34-C5-C6=119.14               
O7-C6-C5=125.28                C9-C6-C5=119.52                C9-C6-O7=115.19                C8-O7-C6=119.30                
H35-C8-O7=111.55               H36-C8-O7=105.53               H36-C8-H35=109.27              H37-C8-O7=111.60               
H37-C8-H35=109.58              H37-C8-H36=109.19              O10-C9-C6=115.49               C12-C9-C6=118.70               
C12-C9-O10=125.81              C11-O10-C9=119.01              

 selected dihedral angles (degree)
 ---------------------------------
C3-C2-N1-H72=181.96           H47-C2-N1-H72=359.08          C4-C3-C2-N1=247.19            C4-C3-C2-H47= 69.77           
C14-C3-C2-N1=128.19           C14-C3-C2-H47=310.77          C31-C3-C2-N1=  7.83           C31-C3-C2-H47=190.40          
C5-C4-C3-C2=192.40            C5-C4-C3-C14=308.45           C5-C4-C3-C31= 68.47           C13-C4-C3-C2= 14.06           
C13-C4-C3-C14=130.10          C13-C4-C3-C31=250.13          C6-C5-C4-C3=181.19            C6-C5-C4-C13=359.58           
H34-C5-C4-C3=  0.28           H34-C5-C4-C13=178.68          O7-C6-C5-C4=180.02            O7-C6-C5-H34=  0.93           
C9-C6-C5-C4=359.90            C9-C6-C5-H34=180.81           C8-O7-C6-C5=356.18            C8-O7-C6-C9=176.30            
H35-C8-O7-C6=301.17           H36-C8-O7-C6=182.61           H37-C8-O7-C6= 64.12           O10-C9-C6-C5=180.43           
O10-C9-C6-O7=  0.32           C12-C9-C6-C5=  0.56           C12-C9-C6-O7=180.45           C11-O10-C9-C6=183.86          
C11-O10-C9-C12=  3.72         
           -------------------------------------------------
          |                Final Singlepoint                |
           -------------------------------------------------

          ...................................................
          :                      SETUP                      :
          :.................................................:
          :  # basis functions                 171          :
          :  # atomic orbitals                 171          :
          :  # shells                          105          :
          :  # electrons                       180          :
          :  max. iterations                   250          :
          :  Hamiltonian                  GFN2-xTB          :
          :  restarted?                      false          :
          :  GBSA solvation                  false          :
          :  PC potential                    false          :
          :  electronic temp.         5000.0000000     K    :
          :  accuracy                    1.0000000          :
          :  -> integral cutoff          0.2500000E+02      :
          :  -> integral neglect         0.1000000E-07      :
          :  -> SCF convergence          0.1000000E-05 Eh   :
          :  -> wf. convergence          0.1000000E-03 e    :
          :  Broyden damping             0.4000000          :
          ...................................................

 iter      E             dE          RMSdq      gap      omega  full diag
   1   -100.7371671 -0.100737E+03  0.670E-06    1.48       0.0  T
   2   -100.7371671  0.613909E-11  0.963E-06    1.48    1223.9  T
   3   -100.7371671 -0.899547E-11  0.201E-06    1.48    5873.4  T

   *** convergence criteria satisfied after 3 iterations ***

         #    Occupation            Energy/Eh            Energy/eV
      -------------------------------------------------------------
         1        2.0000           -0.8208871             -22.3375
       ...           ...                  ...                  ...
        84        1.9948           -0.5055083             -13.7556
        85        1.9941           -0.5033276             -13.6962
        86        1.9893           -0.4939189             -13.4402
        87        1.9827           -0.4863485             -13.2342
        88        1.9415           -0.4667103             -12.6998
        89        1.8843           -0.4554332             -12.3930
        90        1.7755           -0.4439876             -12.0815 (HOMO)
        91        0.4080           -0.3896891             -10.6040 (LUMO)
        92        0.0288           -0.3443218              -9.3695
        93        0.0152           -0.3341151              -9.0917
        94        0.0039           -0.3123877              -8.5005
        95        0.0032           -0.3092721              -8.4157
       ...           ...                  ...                  ...
       171                          1.2802548              34.8375
      -------------------------------------------------------------
                  HL-Gap            0.0542985 Eh            1.4775 eV
             Fermi-level           -0.4112456 Eh          -11.1906 eV

 SCC (total)                   0 d,  0 h,  0 min,  0.117 sec
 SCC setup                      ...        0 min,  0.001 sec (  0.758%)
 Dispersion                     ...        0 min,  0.002 sec (  1.410%)
 classical contributions        ...        0 min,  0.000 sec (  0.382%)
 integral evaluation            ...        0 min,  0.018 sec ( 15.201%)
 iterations                     ...        0 min,  0.026 sec ( 22.159%)
 molecular gradient             ...        0 min,  0.070 sec ( 59.600%)
 printout                       ...        0 min,  0.001 sec (  0.478%)

         :::::::::::::::::::::::::::::::::::::::::::::::::::::
         ::                     SUMMARY                     ::
         :::::::::::::::::::::::::::::::::::::::::::::::::::::
         :: total energy             -99.309544558422 Eh    ::
         :: gradient norm              0.007239125466 Eh/a0 ::
         :: HOMO-LUMO gap              1.477537194516 eV    ::
         ::.................................................::
         :: SCC energy              -100.737167145256 Eh    ::
         :: -> isotropic ES            0.102813512977 Eh    ::
         :: -> anisotropic ES          0.005559587724 Eh    ::
         :: -> anisotropic XC          0.047216513138 Eh    ::
         :: -> dispersion             -0.073311007827 Eh    ::
         :: repulsion energy           1.426281567968 Eh    ::
         :: add. restraining           0.000000000000 Eh    ::
         :: total charge               1.000000000017 e     ::
         :::::::::::::::::::::::::::::::::::::::::::::::::::::

           -------------------------------------------------
          |                Property Printout                |
           -------------------------------------------------

    * Orbital Energies and Occupations

         #    Occupation            Energy/Eh            Energy/eV
      -------------------------------------------------------------
         1        2.0000           -0.8208871             -22.3375
       ...           ...                  ...                  ...
        78        1.9985           -0.5251956             -14.2913
        79        1.9984           -0.5246348             -14.2760
        80        1.9984           -0.5240377             -14.2598
        81        1.9977           -0.5182272             -14.1017
        82        1.9963           -0.5108447             -13.9008
        83        1.9956           -0.5082301             -13.8296
        84        1.9948           -0.5055083             -13.7556
        85        1.9941           -0.5033276             -13.6962
        86        1.9893           -0.4939189             -13.4402
        87        1.9827           -0.4863485             -13.2342
        88        1.9415           -0.4667103             -12.6998
        89        1.8843           -0.4554332             -12.3930
        90        1.7755           -0.4439876             -12.0815 (HOMO)
        91        0.4080           -0.3896891             -10.6040 (LUMO)
        92        0.0288           -0.3443218              -9.3695
        93        0.0152           -0.3341151              -9.0917
        94        0.0039           -0.3123877              -8.5005
        95        0.0032           -0.3092721              -8.4157
        96        0.0003           -0.2727095              -7.4208
        97        0.0001           -0.2500577              -6.8044
        98        0.0000           -0.1865994              -5.0776
        99        0.0000           -0.1833548              -4.9893
       100                         -0.1319973              -3.5918
       101                         -0.0735888              -2.0025
       ...                                ...                  ...
       171                          1.2802548              34.8375
      -------------------------------------------------------------
                  HL-Gap            0.0542985 Eh            1.4775 eV
             Fermi-level           -0.4112456 Eh          -11.1906 eV

     #   Z          covCN         q      C6AA      α(0)
     1   7 N        1.774    -0.271    27.855     7.815
     2   6 C        2.827     0.101    25.746     8.314
     3   6 C        3.907     0.006    20.415     6.422
     4   6 C        2.974     0.001    27.992     8.678
     5   6 C        2.920    -0.081    30.023     8.985
     6   6 C        2.862     0.128    25.187     8.226
     7   8 O        1.706    -0.232    17.851     5.704
     8   6 C        3.644     0.028    20.435     6.498
     9   6 C        2.864     0.128    25.202     8.229
    10   8 O        1.706    -0.231    17.827     5.701
    11   6 C        3.645     0.027    20.447     6.499
    12   6 C        2.914    -0.075    29.869     8.962
    13   6 C        2.921    -0.053    29.328     8.881
    14   6 C        3.812    -0.064    21.720     6.634
    15   6 C        3.802    -0.069    21.823     6.651
    16   6 C        2.842     0.005    27.895     8.656
    17   7 N        2.729     0.011    21.057     6.815
    18   6 C        3.754    -0.018    20.944     6.526
    19   6 C        3.817    -0.070    21.827     6.649
    20   6 C        2.943     0.024    27.470     8.596
    21   6 C        2.901    -0.040    28.986     8.828
    22   6 C        2.888    -0.074    29.838     8.956
    23   6 C        2.789     0.106    25.647     8.296
    24   8 O        1.704    -0.216    17.582     5.661
    25   6 C        3.647     0.021    20.543     6.513
    26   6 C        1.881     0.106    28.504     8.623
    27   8 O        1.704    -0.188    17.148     5.591
    28   6 C        3.667     0.024    20.419     6.480
    29   6 C        1.978    -0.088    33.474     9.343
    30   6 C        3.700    -0.072    22.040     6.714
    31   6 C        3.853    -0.007    20.667     6.466
    32   6 C        3.756    -0.118    22.824     6.812
    33   6 C        3.755    -0.118    22.824     6.812
    34   1 H        0.926     0.051     2.306     2.375
    35   1 H        0.924     0.053     2.283     2.363
    36   1 H        0.925     0.080     1.978     2.199
    37   1 H        0.924     0.046     2.375     2.410
    38   1 H        0.924     0.054     2.267     2.355
    39   1 H        0.925     0.080     1.979     2.200
    40   1 H        0.924     0.047     2.352     2.399
    41   1 H        0.926     0.052     2.297     2.370
    42   1 H        0.926     0.039     2.456     2.451
    43   1 H        0.925     0.060     2.204     2.322
    44   1 H        0.924     0.053     2.283     2.363
    45   1 H        0.925     0.066     2.134     2.284
    46   1 H        0.924     0.078     2.000     2.212
    47   1 H        0.922     0.004     2.993     2.706
    48   1 H        0.926     0.067     2.115     2.274
    49   1 H        0.924     0.070     2.085     2.258
    50   1 H        0.924     0.067     2.123     2.278
    51   1 H        0.924     0.055     2.262     2.352
    52   1 H        0.924     0.059     2.217     2.328
    53   1 H        0.925     0.045     2.387     2.416
    54   1 H        0.925     0.053     2.289     2.366
    55   1 H        0.925     0.081     1.968     2.194
    56   1 H        0.924     0.059     2.210     2.325
    57   1 H        0.924     0.059     2.214     2.327
    58   1 H        0.925     0.081     1.966     2.193
    59   1 H        0.924     0.060     2.197     2.318
    60   1 H        0.924     0.057     2.236     2.338
    61   1 H        0.925     0.062     2.171     2.304
    62   1 H        0.924     0.075     2.033     2.230
    63   1 H        0.924     0.081     1.971     2.196
    64   1 H        0.925     0.081     1.972     2.196
    65   1 H        0.924     0.036     2.502     2.473
    66   1 H        0.925     0.068     2.105     2.269
    67   1 H        0.925     0.035     2.515     2.480
    68   1 H        0.925     0.050     2.315     2.379
    69   1 H        0.925     0.061     2.189     2.313
    70   1 H        0.925     0.034     2.530     2.488
    71   1 H        0.925     0.054     2.276     2.359
    72   1 H        0.860     0.155     1.365     1.830

 Mol. C6AA /au·bohr⁶  :      47689.818157
 Mol. C8AA /au·bohr⁸  :    1088227.738763
 Mol. α(0) /au        :        335.027217


Wiberg/Mayer (AO) data.
largest (>0.10) Wiberg bond orders for each atom

 ---------------------------------------------------------------------------
     #   Z sym  total        # sym  WBO       # sym  WBO       # sym  WBO
 ---------------------------------------------------------------------------
     1   7 N    3.036 --     2 C    1.955    72 H    0.942
     2   6 C    3.930 --     1 N    1.955     3 C    0.994    47 H    0.905
     3   6 C    3.977 --     2 C    0.994     4 C    0.971    14 C    0.958
                            31 C    0.942
     4   6 C    3.952 --    13 C    1.415     5 C    1.367     3 C    0.971
     5   6 C    3.964 --     6 C    1.403     4 C    1.367    34 H    0.958
     6   6 C    3.908 --     5 C    1.403     9 C    1.224     7 O    1.096
     7   8 O    2.253 --     6 C    1.096     8 C    0.979
     8   6 C    3.933 --     7 O    0.979    36 H    0.977    37 H    0.974
                            35 H    0.974
     9   6 C    3.905 --    12 C    1.394     6 C    1.224    10 O    1.099
    10   8 O    2.252 --     9 C    1.099    11 C    0.978
    11   6 C    3.932 --    10 O    0.978    39 H    0.977    40 H    0.974
                            38 H    0.974
    12   6 C    3.964 --    13 C    1.401     9 C    1.394    41 H    0.964
    13   6 C    3.957 --     4 C    1.415    12 C    1.401    42 H    0.963
    14   6 C    3.971 --    15 C    0.979    44 H    0.973    43 H    0.968
                             3 C    0.958
    15   6 C    3.987 --    16 C    1.059    14 C    0.979    45 H    0.962
                            46 H    0.930
    16   6 C    3.582 --    17 N    1.400    15 C    1.059    48 H    0.958
    17   7 N    3.475 --    16 C    1.400    30 C    0.998    18 C    0.989
    18   6 C    3.952 --    17 N    0.989    19 C    0.971    50 H    0.969
                            49 H    0.960
    19   6 C    3.974 --    20 C    0.983    51 H    0.972    18 C    0.971
                            52 H    0.964
    20   6 C    3.900 --    21 C    1.592    29 C    1.174    19 C    0.983
    21   6 C    3.919 --    20 C    1.592    22 C    1.202    53 H    0.964
    22   6 C    3.918 --    23 C    1.614    21 C    1.202    54 H    0.959
    23   6 C    3.853 --    22 C    1.614    24 O    1.154    61 H    0.947
    24   8 O    2.290 --    23 C    1.154    25 C    0.969
    25   6 C    3.929 --    55 H    0.978    57 H    0.974    56 H    0.972
                            24 O    0.969
    26   6 C    3.864 --    29 C    2.504    27 O    1.193
    27   8 O    2.328 --    26 C    1.193    28 C    0.937    29 C    0.135
    28   6 C    3.920 --    60 H    0.979    58 H    0.978    59 H    0.978
                            27 O    0.937
    29   6 C    3.916 --    26 C    2.504    20 C    1.174    27 O    0.135
    30   6 C    3.957 --    17 N    0.998    64 H    0.977    62 H    0.966
                            63 H    0.959
    31   6 C    3.973 --    33 C    1.009    32 C    1.008    65 H    0.961
                             3 C    0.942
    32   6 C    3.980 --    31 C    1.008    67 H    0.982    68 H    0.982
                            66 H    0.975
    33   6 C    3.984 --    31 C    1.009    70 H    0.983    71 H    0.980
                            69 H    0.977
    34   1 H    0.996 --     5 C    0.958
    35   1 H    0.994 --     8 C    0.974
    36   1 H    0.993 --     8 C    0.977
    37   1 H    0.994 --     8 C    0.974
    38   1 H    0.993 --    11 C    0.974
    39   1 H    0.993 --    11 C    0.977
    40   1 H    0.994 --    11 C    0.974
    41   1 H    0.996 --    12 C    0.964
    42   1 H    0.998 --    13 C    0.963
    43   1 H    0.995 --    14 C    0.968
    44   1 H    0.996 --    14 C    0.973
    45   1 H    0.995 --    15 C    0.962
    46   1 H    0.971 --    15 C    0.930
    47   1 H    0.988 --     2 C    0.905
    48   1 H    0.995 --    16 C    0.958
    49   1 H    0.989 --    18 C    0.960
    50   1 H    0.995 --    18 C    0.969
    51   1 H    0.996 --    19 C    0.972
    52   1 H    0.993 --    19 C    0.964
    53   1 H    0.997 --    21 C    0.964
    54   1 H    0.995 --    22 C    0.959
    55   1 H    0.993 --    25 C    0.978
    56   1 H    0.991 --    25 C    0.972
    57   1 H    0.992 --    25 C    0.974
    58   1 H    0.993 --    28 C    0.978
    59   1 H    0.993 --    28 C    0.978
    60   1 H    0.994 --    28 C    0.979
    61   1 H    0.996 --    23 C    0.947
    62   1 H    0.985 --    30 C    0.966
    63   1 H    0.987 --    30 C    0.959
    64   1 H    0.993 --    30 C    0.977
    65   1 H    0.993 --    31 C    0.961
    66   1 H    0.991 --    32 C    0.975
    67   1 H    0.997 --    32 C    0.982
    68   1 H    0.994 --    32 C    0.982
    69   1 H    0.993 --    33 C    0.977
    70   1 H    0.997 --    33 C    0.983
    71   1 H    0.994 --    33 C    0.980
    72   1 H    0.971 --     1 N    0.942
 ---------------------------------------------------------------------------

Topologies differ in total number of bonds
Writing topology from bond orders to xtbtopo.mol

molecular dipole:
                 x           y           z       tot (Debye)
 q only:        1.904       0.067      -0.860
   full:        2.378       0.027      -1.024       6.580
molecular quadrupole (traceless):
                xx          xy          yy          xz          yz          zz
 q only:       66.427      -2.453     -29.045       2.945     -16.275     -37.382
  q+dip:       62.024       1.048     -28.751       5.861     -22.266     -33.272
   full:       63.541      -0.010     -29.529       4.287     -20.835     -34.012

           -------------------------------------------------
          |                Geometry Summary                 |
           -------------------------------------------------

      molecular mass/u    :      455.6105846
   center of mass at/Å    :       -0.0877555      -0.0433988       0.0166404
  moments of inertia/u·Å² :        0.2771900E+04   0.1043428E+05   0.1162933E+05
rotational constants/cm⁻¹ :        0.6081616E-02   0.1615600E-02   0.1449579E-02

 * 63 selected distances

     #   Z          #   Z                                           value/Å
     1   7 N        2   6 C                                       1.2492243
     4   6 C        5   6 C                                       1.3965659
     5   6 C        6   6 C                                       1.3846316
     6   6 C        7   8 O                                       1.3501450
     7   8 O        8   6 C                                       1.4078867
     6   6 C        9   6 C                                       1.4207491
     9   6 C       10   8 O                                       1.3488673
    10   8 O       11   6 C                                       1.4084048
     9   6 C       12   6 C                                       1.3854416
     4   6 C       13   6 C                                       1.3860717
    12   6 C       13   6 C                                       1.3896212
    15   6 C       16   6 C                                       1.4800619
    16   6 C       17   7 N                                       1.3280498
    17   7 N       18   6 C                                       1.4436957
    18   6 C       19   6 C                                       1.5386509 (max)
    20   6 C       21   6 C                                       1.3597628
    21   6 C       22   6 C                                       1.4296105
    22   6 C       23   6 C                                       1.3508513
    23   6 C       24   8 O                                       1.3324592
    24   8 O       25   6 C                                       1.4146741
    26   6 C       27   8 O                                       1.2894828
    27   8 O       28   6 C                                       1.4228038
    26   6 C       29   6 C                                       1.2154375
    17   7 N       30   6 C                                       1.4431818
    31   6 C       32   6 C                                       1.5269804
    31   6 C       33   6 C                                       1.5260623
     5   6 C       34   1 H                                       1.0773355 (min)
     8   6 C       35   1 H                                       1.0941720
     8   6 C       36   1 H                                       1.0882170
     8   6 C       37   1 H                                       1.0950901
    11   6 C       38   1 H                                       1.0940063
    11   6 C       39   1 H                                       1.0882008
    11   6 C       40   1 H                                       1.0948919
    12   6 C       41   1 H                                       1.0777938
    13   6 C       42   1 H                                       1.0790338
    14   6 C       43   1 H                                       1.0895351
    14   6 C       44   1 H                                       1.0907390
    15   6 C       45   1 H                                       1.0882614
    15   6 C       46   1 H                                       1.0976971
    16   6 C       48   1 H                                       1.0800098
    18   6 C       49   1 H                                       1.0941202
    18   6 C       50   1 H                                       1.0918624
    19   6 C       51   1 H                                       1.0908011
    19   6 C       52   1 H                                       1.0921599
    21   6 C       53   1 H                                       1.0827418
    22   6 C       54   1 H                                       1.0815539
    25   6 C       55   1 H                                       1.0890187
    25   6 C       56   1 H                                       1.0942772
    25   6 C       57   1 H                                       1.0945481
    28   6 C       58   1 H                                       1.0879060
    28   6 C       59   1 H                                       1.0932340
    28   6 C       60   1 H                                       1.0929375
    23   6 C       61   1 H                                       1.0856278
    30   6 C       62   1 H                                       1.0923027
    30   6 C       63   1 H                                       1.0924602
    30   6 C       64   1 H                                       1.0872825
    31   6 C       65   1 H                                       1.0963357
    32   6 C       66   1 H                                       1.0851321
    32   6 C       67   1 H                                       1.0872161
    32   6 C       68   1 H                                       1.0867596
    33   6 C       69   1 H                                       1.0855773
    33   6 C       70   1 H                                       1.0867438
    33   6 C       71   1 H                                       1.0868656

 * 4 distinct bonds (by element types)

   Z      Z             #   av. dist./Å        max./Å        min./Å
   1 H    6 C          37     1.0889851     1.0976971     1.0773355
   6 C    6 C          14     1.4136070     1.5386509     1.2154375
   6 C    7 N           4     1.3660379     1.4436957     1.2492243
   6 C    8 O           8     1.3718405     1.4228038     1.2894828


optimized geometry written to: xtbopt.xyz


           -------------------------------------------------
          | TOTAL ENERGY              -99.309544558422 Eh   |
          | GRADIENT NORM               0.007239125466 Eh/α |
          | HOMO-LUMO GAP               1.477537194516 eV   |
           -------------------------------------------------

------------------------------------------------------------------------
 * finished run on 2024/04/06 at 11:14:35.732     
------------------------------------------------------------------------
 total:
 * wall-time:     0 d,  0 h,  0 min,  0.477 sec
 *  cpu-time:     0 d,  0 h,  0 min,  0.447 sec
 * ratio c/w:     0.937 speedup
 SCF:
 * wall-time:     0 d,  0 h,  0 min,  0.125 sec
 *  cpu-time:     0 d,  0 h,  0 min,  0.125 sec
 * ratio c/w:     1.000 speedup
 ANC optimizer:
 * wall-time:     0 d,  0 h,  0 min,  0.305 sec
 *  cpu-time:     0 d,  0 h,  0 min,  0.297 sec
 * ratio c/w:     0.973 speedup

