25
 energy: -42.088013071671 gnorm: 0.017254379940 xtb: 6.6.1 (8d0f1dd)
C            3.11948452861695        1.56955818347595        0.01835443556682
N            2.37024795967240        0.38799733426550       -0.01732553557000
C            2.51230832584735       -2.60091400175345       -0.01265792218044
N            1.26384556724538       -2.30960775661574       -0.01206631737254
C            0.52444951862070       -1.11765068926585       -0.01085181921071
C            1.09743681999342        0.18636956200011       -0.00595961876745
C            0.13990053233543        1.35947722453273        0.00341115321777
O            0.53622740586495        2.50044101057029        0.01543199049889
N           -1.19121640154631        1.05283241673430       -0.00760542147454
C           -2.16107665131692        2.14279409917258       -0.00913298404208
C           -1.73694397953671       -0.21171984033017       -0.00642071042498
O           -2.92359793252593       -0.39501677363475       -0.00469137299656
N           -0.83047504543444       -1.28301851684175       -0.00522318237398
C           -1.44649551032862       -2.60121260540922        0.00470835594481
H            3.67347766884059        1.58324602300812        0.96430754991777
H            3.86355250802293        1.51630008370364       -0.78285956676340
H            2.56251354482986        2.53203702213724       -0.06782228938326
H            3.26781991606935       -1.82209773633218       -0.01580436439377
H           -1.62376442028945        3.08731984774490       -0.00232599610307
H           -2.78852861495534        2.06931990146006       -0.89715479265296
H           -2.79959168954621        2.06296891696440        0.87042242628558
H           -1.18514561969342       -3.15723169139797        0.90745604032020
H           -1.19973440870116       -3.16527062499008       -0.89709406695752
H           -2.52703215588400       -2.44454388631115        0.01250158927113
H            0.64276964789921       -3.12413896128750       -0.01042596245568
25
 energy: -42.091270789415 gnorm: 0.011297629739 xtb: 6.6.1 (8d0f1dd)
C            3.13092330579527        1.51891846631248        0.01904723497474
N            2.36491695507405        0.35467900183094       -0.01305669087398
C            2.53881177354960       -2.51045135123301       -0.01399911887513
N            1.27731280083603       -2.28060514356912       -0.01155248834750
C            0.50980699502024       -1.11272668529527       -0.00897353920882
C            1.08814082240310        0.18197988343436       -0.00340880000599
C            0.13682077956272        1.35864516509245        0.00440111744834
O            0.53587254994156        2.49850769816282        0.01676548398246
N           -1.19540538727032        1.05341755507863       -0.00747054793575
C           -2.16267510249019        2.14538617563564       -0.00922211757602
C           -1.74571928928280       -0.21040610668912       -0.00658214292554
O           -2.93262274418222       -0.39046292882317       -0.00605295029913
N           -0.84221135945217       -1.28390922369029       -0.00461275859187
C           -1.45364650609437       -2.60382538334559        0.00440204163959
H            3.68174635803390        1.54497887345399        0.96651613930415
H            3.86914409303936        1.47091142114563       -0.78775777954071
H            2.55217296735390        2.45486071838546       -0.07246572786345
H            3.26447846226499       -1.70617811609320       -0.01477425309470
H           -1.62298472762449        3.08859902241631       -0.00234249773082
H           -2.78989486700824        2.07286246841069       -0.89741984236505
H           -2.80121576926577        2.06657072514125        0.87033946087290
H           -1.19050202199914       -3.15916548077733        0.90695536497472
H           -1.20399444739630       -3.16644329967798       -0.89744411073584
H           -2.53438296513619       -2.44947282375645        0.01153108738899
H            0.68553883842750       -3.11843208995012       -0.01165094671555
25
 energy: -42.093961906428 gnorm: 0.013381747920 xtb: 6.6.1 (8d0f1dd)
C            3.14512519942246        1.44353351487764        0.01935133445799
N            2.35451920831924        0.29761713904416       -0.00738120679084
C            2.57262671047282       -2.36379694066994       -0.01520849064763
N            1.29076398669749       -2.24193911546495       -0.01066680328757
C            0.48126904818326       -1.10933244242700       -0.00628084377556
C            1.07059402062753        0.17234039988223        0.00005403746282
C            0.13505108394902        1.35657388933481        0.00610617058816
O            0.54295072892605        2.49408352808706        0.01683916469080
N           -1.19924725824124        1.05394410422230       -0.00698239914708
C           -2.16227593181399        2.14987780419764       -0.00936189193074
C           -1.76020160342025       -0.20817614176291       -0.00673737461349
O           -2.94780275466548       -0.38059276149958       -0.00806009826573
N           -0.86450908322801       -1.28769833828157       -0.00373620489463
C           -1.46370861354036       -2.61127060685800        0.00380567224280
H            3.69903870234174        1.48191131700174        0.96388603322314
H            3.87876181928593        1.39836252663796       -0.79105713063583
H            2.54495774247596        2.35609304037065       -0.07571426275189
H            3.24136867894137       -1.50863262933467       -0.01228965337061
H           -1.61954520695390        3.09132910832962       -0.00253302489312
H           -2.78983684799021        2.07949254361101       -0.89748667122689
H           -2.80159448224659        2.07368158482216        0.86987166605196
H           -1.19017911049989       -3.16397178161587        0.90432498195696
H           -1.20229641602212       -3.16984061260928       -0.89675196638838
H           -2.54578023460298       -2.46712847300152        0.01011770888186
H            0.75038212768216       -3.11822211529371       -0.01293712903648
25
 energy: -42.094381520392 gnorm: 0.009504392615 xtb: 6.6.1 (8d0f1dd)
C            3.15225386341680        1.41586734735294        0.01903868842677
N            2.34792897287945        0.27680181070127       -0.00503549065440
C            2.58015352348936       -2.30253216265533       -0.01437240125165
N            1.29651009105085       -2.22787803806592       -0.01006630234356
C            0.46950761434480       -1.10917216870871       -0.00472194216600
C            1.06120727753960        0.17005800575847        0.00213457672084
C            0.13370589632354        1.35619204456043        0.00656523711083
O            0.54517812236970        2.49252200317586        0.01563784653496
N           -1.20092870561519        1.05311046581995       -0.00635899276887
C           -2.16183629396031        2.15111036835687       -0.00919764719383
C           -1.76661963581050       -0.20839277118211       -0.00655678275988
O           -2.95448027914659       -0.37773656355676       -0.00884895119971
N           -0.87430776242564       -1.29067047859196       -0.00329357191288
C           -1.46784277975982       -2.61600585716987        0.00298916553850
H            3.71066330402167        1.44963838597925        0.96069100849533
H            3.88275325628357        1.36247071729115       -0.79353904142225
H            2.55495075462766        2.33076816594610       -0.07521241536605
H            3.21631167950924       -1.42053115135763       -0.00919385198719
H           -1.61683768861581        3.09130271304513       -0.00265169397174
H           -2.78961317538796        2.08231850506011       -0.89734578051281
H           -2.80159532977687        2.07713538874761        0.86996782619421
H           -1.18868355521556       -3.16772038722681        0.90233021469174
H           -1.19986495988309       -3.17227500050085       -0.89704215923964
H           -2.55074703878239       -2.47996776465238        0.00884796398739
H            0.78266436262354       -3.11817503652681       -0.01359388505007
