      -----------------------------------------------------------      
     |                   =====================                   |     
     |                           x T B                           |     
     |                   =====================                   |     
     |                         S. Grimme                         |     
     |          Mulliken Center for Theoretical Chemistry        |     
     |                    University of Bonn                     |     
      -----------------------------------------------------------      

   * xtb version 6.6.1 (8d0f1dd) compiled by 'conda@1efc2f54142f' on 2023-08-01

   xtb is free software: you can redistribute it and/or modify it under
   the terms of the GNU Lesser General Public License as published by
   the Free Software Foundation, either version 3 of the License, or
   (at your option) any later version.
   
   xtb is distributed in the hope that it will be useful,
   but WITHOUT ANY WARRANTY; without even the implied warranty of
   MERCHANTABILITY or FITNESS FOR A PARTICULAR PURPOSE.  See the
   GNU Lesser General Public License for more details.
   
   Cite this work as:
   * C. Bannwarth, E. Caldeweyher, S. Ehlert, A. Hansen, P. Pracht,
     J. Seibert, S. Spicher, S. Grimme, WIREs Comput. Mol. Sci., 2020, 11,
     e01493. DOI: 10.1002/wcms.1493
   
   for GFN2-xTB:
   * C. Bannwarth, S. Ehlert and S. Grimme., J. Chem. Theory Comput., 2019,
     15, 1652-1671. DOI: 10.1021/acs.jctc.8b01176
   for GFN1-xTB:
   * S. Grimme, C. Bannwarth, P. Shushkov, J. Chem. Theory Comput., 2017,
     13, 1989-2009. DOI: 10.1021/acs.jctc.7b00118
   for GFN0-xTB:
   * P. Pracht, E. Caldeweyher, S. Ehlert, S. Grimme, ChemRxiv, 2019, preprint.
     DOI: 10.26434/chemrxiv.8326202.v1
   for GFN-FF:
   * S. Spicher and S. Grimme, Angew. Chem. Int. Ed., 2020, 59, 15665-15673.
     DOI: 10.1002/anie.202004239
   
   for ALPB and GBSA implicit solvation:
   * S. Ehlert, M. Stahn, S. Spicher, S. Grimme, J. Chem. Theory Comput.,
     2021, 17, 4250-4261. DOI: 10.1021/acs.jctc.1c00471
   
   for DFT-D4:
   * E. Caldeweyher, C. Bannwarth and S. Grimme, J. Chem. Phys., 2017,
     147, 034112. DOI: 10.1063/1.4993215
   * E. Caldeweyher, S. Ehlert, A. Hansen, H. Neugebauer, S. Spicher,
     C. Bannwarth and S. Grimme, J. Chem. Phys., 2019, 150, 154122.
     DOI: 10.1063/1.5090222
   * E. Caldeweyher, J.-M. Mewes, S. Ehlert and S. Grimme, Phys. Chem. Chem. Phys.
     2020, 22, 8499-8512. DOI: 10.1039/D0CP00502A
   
   for sTDA-xTB:
   * S. Grimme and C. Bannwarth, J. Chem. Phys., 2016, 145, 054103.
     DOI: 10.1063/1.4959605
   
   in the mass-spec context:
   * V. Asgeirsson, C. Bauer and S. Grimme, Chem. Sci., 2017, 8, 4879.
     DOI: 10.1039/c7sc00601b
   * J. Koopman and S. Grimme, ACS Omega 2019, 4, 12, 15120-15133.
     DOI: 10.1021/acsomega.9b02011
   
   for metadynamics refer to:
   * S. Grimme, J. Chem. Theory Comput., 2019, 155, 2847-2862
     DOI: 10.1021/acs.jctc.9b00143
   
   for SPH calculations refer to:
   * S. Spicher and S. Grimme, J. Chem. Theory Comput., 2021, 17, 1701-1714
     DOI: 10.1021/acs.jctc.0c01306
   
   with help from (in alphabetical order)
   P. Atkinson, C. Bannwarth, F. Bohle, G. Brandenburg, E. Caldeweyher
   M. Checinski, S. Dohm, S. Ehlert, S. Ehrlich, I. Gerasimov, C. Hölzer
   A. Katbashev, J. Koopman, C. Lavigne, S. Lehtola, F. März, M. Müller,
   F. Musil, H. Neugebauer, J. Pisarek, C. Plett, P. Pracht, F. Pultar,
   J. Seibert, P. Shushkov, S. Spicher, M. Stahn, M. Steiner, T. Strunk,
   J. Stückrath, T. Rose, and J. Unsleber
   
 * started run on 2024/04/06 at 11:13:21.720     

           -------------------------------------------------
          |                Calculation Setup                |
           -------------------------------------------------

          program call               : xtb xtbopt.xyz --opt crude --input .xc2 --gfn2
          hostname                   : n-62-30-23
          coordinate file            : xtbopt.xyz
          omp threads                :                     1

   ID    Z sym.   atoms
    1    7 N      1, 17
    2    6 C      2-6, 8, 9, 11-16, 18-23, 25, 26, 28-33
    3    8 O      7, 10, 24, 27
    4    1 H      34-72
########################################################################
[WARNING] Please study the warnings concerning your input carefully
-1- readin_getIntValue: could not parse ''
########################################################################

           -------------------------------------------------
          |                 G F N 2 - x T B                 |
           -------------------------------------------------

        Reference                      10.1021/acs.jctc.8b01176
      * Hamiltonian:
        H0-scaling (s, p, d)           1.850000    2.230000    2.230000
        zeta-weighting                 0.500000
      * Dispersion:
        s8                             2.700000
        a1                             0.520000
        a2                             5.000000
        s9                             5.000000
      * Repulsion:
        kExp                           1.500000    1.000000
        rExp                           1.000000
      * Coulomb:
        alpha                          2.000000
        third order                    shell-resolved
        anisotropic                    true
        a3                             3.000000
        a5                             4.000000
        cn-shift                       1.200000
        cn-exp                         4.000000
        max-rad                        5.000000

q/qsh data taken from xtbrestart
CAMM data taken from xtbrestart

          ...................................................
          :                      SETUP                      :
          :.................................................:
          :  # basis functions                 171          :
          :  # atomic orbitals                 171          :
          :  # shells                          105          :
          :  # electrons                       180          :
          :  max. iterations                   250          :
          :  Hamiltonian                  GFN2-xTB          :
          :  restarted?                       true          :
          :  GBSA solvation                  false          :
          :  PC potential                    false          :
          :  electronic temp.         5000.0000000     K    :
          :  accuracy                    1.0000000          :
          :  -> integral cutoff          0.2500000E+02      :
          :  -> integral neglect         0.1000000E-07      :
          :  -> SCF convergence          0.1000000E-05 Eh   :
          :  -> wf. convergence          0.1000000E-03 e    :
          :  Broyden damping             0.4000000          :
          ...................................................

 iter      E             dE          RMSdq      gap      omega  full diag
   1   -100.6656072 -0.100666E+03  0.984E-05    1.17       0.0  T
   2   -100.6656072  0.580467E-08  0.236E-04    1.17      49.9  T
   3   -100.6656072 -0.671335E-08  0.273E-05    1.17     431.0  T

   *** convergence criteria satisfied after 3 iterations ***

         #    Occupation            Energy/Eh            Energy/eV
      -------------------------------------------------------------
         1        2.0000           -0.9029644             -24.5709
       ...           ...                  ...                  ...
        84        1.9978           -0.5009465             -13.6314
        85        1.9948           -0.4870159             -13.2524
        86        1.9865           -0.4718254             -12.8390
        87        1.9861           -0.4713469             -12.8260
        88        1.9615           -0.4550485             -12.3825
        89        1.9031           -0.4399525             -11.9717
        90        1.6513           -0.4174319             -11.3589 (HOMO)
        91        0.4795           -0.3745377             -10.1917 (LUMO)
        92        0.0213           -0.3210694              -8.7367
        93        0.0159           -0.3164173              -8.6102
        94        0.0058           -0.3003411              -8.1727
        95        0.0043           -0.2956145              -8.0441
       ...           ...                  ...                  ...
       171                          0.7082397              19.2722
      -------------------------------------------------------------
                  HL-Gap            0.0428942 Eh            1.1672 eV
             Fermi-level           -0.3928105 Eh          -10.6889 eV

 SCC (total)                   0 d,  0 h,  0 min,  0.119 sec
 SCC setup                      ...        0 min,  0.001 sec (  0.808%)
 Dispersion                     ...        0 min,  0.002 sec (  1.464%)
 classical contributions        ...        0 min,  0.000 sec (  0.363%)
 integral evaluation            ...        0 min,  0.018 sec ( 15.332%)
 iterations                     ...        0 min,  0.028 sec ( 23.374%)
 molecular gradient             ...        0 min,  0.069 sec ( 58.094%)
 printout                       ...        0 min,  0.001 sec (  0.553%)

         :::::::::::::::::::::::::::::::::::::::::::::::::::::
         ::                     SUMMARY                     ::
         :::::::::::::::::::::::::::::::::::::::::::::::::::::
         :: total energy             -99.183752715561 Eh    ::
         :: gradient norm              0.775903962358 Eh/a0 ::
         :: HOMO-LUMO gap              1.167210352880 eV    ::
         ::.................................................::
         :: SCC energy              -100.665607231495 Eh    ::
         :: -> isotropic ES            0.116349576932 Eh    ::
         :: -> anisotropic ES          0.007830985910 Eh    ::
         :: -> anisotropic XC          0.044486691148 Eh    ::
         :: -> dispersion             -0.076122140633 Eh    ::
         :: repulsion energy           1.480616194029 Eh    ::
         :: add. restraining           0.000000000000 Eh    ::
         :: total charge               1.000000000000 e     ::
         :::::::::::::::::::::::::::::::::::::::::::::::::::::

      ----------------------------------------------------------- 
     |                   =====================                   |
     |                        A N C O P T                        |
     |                   =====================                   |
     |               Approximate Normal Coordinate               |
     |                Rational Function Optimizer                |
      ----------------------------------------------------------- 

          ...................................................
          :                      SETUP                      :
          :.................................................:
          :   optimization level             crude          :
          :   max. optcycles                   200          :
          :   ANC micro-cycles                  20          :
          :   degrees of freedom               210          :
          :.................................................:
          :   RF solver                   davidson          :
          :   write xtbopt.log                true          :
          :   linear?                        false          :
          :   energy convergence         0.5000000E-03 Eh   :
          :   grad. convergence          0.1000000E-01 Eh/α :
          :   maxmium RF displ.          1.0000000          :
          :   Hlow (freq-cutoff)         0.1000000E-01      :
          :   Hmax (freq-cutoff)         5.0000000          :
          :   S6 in model hess.         20.0000000          :
          ...................................................

generating ANC from model Hessian ...
Using Lindh-Hessian (1995)
 Shifting diagonal of input Hessian by    9.9673745820840522E-003
 Lowest  eigenvalues of input Hessian
    0.000000    0.000000    0.000000    0.000000    0.000000    0.000000
    0.010000    0.010027    0.010119    0.010225    0.010307    0.010534
    0.010651    0.010834    0.010895    0.011397    0.011758    0.012175
 Highest eigenvalues
    1.966441    2.048098    2.093997    2.103247    2.180489    2.356749


........................................................................
.............................. CYCLE    1 ..............................
........................................................................

 iter      E             dE          RMSdq      gap      omega  full diag
   1   -100.6656072 -0.100666E+03  0.191E-05    1.17       0.0  T
   2   -100.6656072  0.330829E-10  0.213E-05    1.17     552.4  T
   3   -100.6656072 -0.344613E-10  0.142E-05    1.17     832.0  T
     SCC iter.                  ...        0 min,  0.026 sec
     gradient                   ...        0 min,  0.069 sec
 * total energy  :   -99.1837527 Eh     change       -0.2316369E-10 Eh
   gradient norm :     0.7759038 Eh/α   predicted     0.0000000E+00 (-100.00%)
   displ. norm   :     0.3283109 α      lambda       -0.2426402E+00
   maximum displ.:     0.2888215 α      in ANC's #210, #137, #204, ...

........................................................................
.............................. CYCLE    2 ..............................
........................................................................

 iter      E             dE          RMSdq      gap      omega  full diag
   1   -100.6435922 -0.100644E+03  0.224E-01    1.19       0.0  T
   2   -100.6436699 -0.777257E-04  0.134E-01    1.13       1.0  T
   3   -100.6397509  0.391899E-02  0.190E-01    1.41       1.0  T
   4   -100.6437294 -0.397842E-02  0.538E-02    1.13       1.0  T
   5   -100.6439732 -0.243815E-03  0.194E-02    1.18       1.0  T
   6   -100.6439913 -0.181674E-04  0.845E-03    1.18       1.4  T
   7   -100.6439950 -0.368632E-05  0.457E-03    1.18       2.6  T
   8   -100.6439957 -0.687570E-06  0.122E-03    1.18       9.7  T
   9   -100.6439958 -0.111440E-06  0.398E-04    1.18      29.6  T
  10   -100.6439958 -0.474000E-08  0.172E-04    1.18      68.7  T
     SCC iter.                  ...        0 min,  0.080 sec
     gradient                   ...        0 min,  0.069 sec
 * total energy  :   -99.2714898 Eh     change       -0.8773705E-01 Eh
   gradient norm :     0.0152275 Eh/α   predicted    -0.1343970E+00 (  53.18%)
   displ. norm   :     0.1071605 α      lambda       -0.1879816E-02
   maximum displ.:     0.0470789 α      in ANC's #93, #12, #23, ...

........................................................................
.............................. CYCLE    3 ..............................
........................................................................

 iter      E             dE          RMSdq      gap      omega  full diag
   1   -100.6420692 -0.100642E+03  0.482E-02    1.19       0.0  T
   2   -100.6419806  0.886129E-04  0.385E-02    1.15       1.0  T
   3   -100.6418018  0.178808E-03  0.518E-02    1.24       1.0  T
   4   -100.6420791 -0.277258E-03  0.804E-03    1.18       1.5  T
   5   -100.6420860 -0.689516E-05  0.111E-03    1.18      10.6  T
   6   -100.6420860 -0.687152E-07  0.559E-04    1.18      21.1  T
   7   -100.6420861 -0.141282E-07  0.266E-04    1.18      44.2  T
     SCC iter.                  ...        0 min,  0.057 sec
     gradient                   ...        0 min,  0.069 sec
 * total energy  :   -99.2722120 Eh     change       -0.7222727E-03 Eh
   gradient norm :     0.0092212 Eh/α   predicted    -0.5443789E-03 ( -24.63%)
   displ. norm   :     0.1073326 α      lambda       -0.1028707E-02
   maximum displ.:     0.0340538 α      in ANC's #23, #45, #49, ...

........................................................................
.............................. CYCLE    4 ..............................
........................................................................

 iter      E             dE          RMSdq      gap      omega  full diag
   1   -100.6405093 -0.100641E+03  0.263E-02    1.20       0.0  T
   2   -100.6404000  0.109364E-03  0.331E-02    1.14       1.0  T
   3   -100.6404989 -0.989429E-04  0.195E-02    1.20       1.0  T
   4   -100.6405232 -0.242286E-04  0.669E-03    1.18       1.8  T
   5   -100.6405280 -0.489613E-05  0.692E-04    1.18      17.0  T
   6   -100.6405281 -0.198282E-07  0.372E-04    1.18      31.7  T
   7   -100.6405281 -0.418007E-08  0.187E-04    1.18      63.0  T
     SCC iter.                  ...        0 min,  0.058 sec
     gradient                   ...        0 min,  0.069 sec
 * total energy  :   -99.2724586 Eh     change       -0.2465118E-03 Eh
   gradient norm :     0.0074026 Eh/α   predicted    -0.1903351E-03 ( -22.79%)
   displ. norm   :     0.0884565 α      lambda       -0.5921079E-03
   maximum displ.:     0.0276494 α      in ANC's #23, #45, #48, ...

   *** GEOMETRY OPTIMIZATION CONVERGED AFTER 4 ITERATIONS ***

------------------------------------------------------------------------
 total energy gain   :        -0.0887058 Eh      -55.6638 kcal/mol
 total RMSD          :         0.0497898 a0        0.0263 Å
 total power (kW/mol):       -58.2242866 (step) -354.6678 (real)
------------------------------------------------------------------------

 ANCopt (total)                0 d,  0 h,  0 min,  0.657 sec
 optimizer setup                ...        0 min,  0.000 sec (  0.039%)
 model hessian                  ...        0 min,  0.055 sec (  8.362%)
 ANC generation                 ...        0 min,  0.006 sec (  0.966%)
 coordinate transformation      ...        0 min,  0.000 sec (  0.042%)
 single point calculation       ...        0 min,  0.587 sec ( 89.446%)
 optimization log               ...        0 min,  0.003 sec (  0.424%)
 hessian update                 ...        0 min,  0.000 sec (  0.034%)
 rational function              ...        0 min,  0.003 sec (  0.460%)

================
 final structure:
================
72
 xtb: 6.6.1 (8d0f1dd)
N           -1.90929047016377        3.07196393650810        2.16024287511180
C           -1.81677585494414        2.29161449020989        1.18664348110613
C           -2.96148725682382        1.91444084870740        0.28604559768158
C           -3.27329289130416        0.43221841939507        0.43962025506159
C           -4.16872456508968       -0.16839444410487       -0.45072029330755
C           -4.51170796616552       -1.50682040718766       -0.32540347074995
O           -5.37703836362535       -2.20030991412830       -1.11806445884243
C           -5.98858365975016       -1.52762616927826       -2.19681594959786
C           -3.89721299054820       -2.19814040174427        0.72314656319903
O           -4.20784694157692       -3.64743301171457        0.88043069492721
C           -5.55799556333110       -3.92379593240966        1.32087291681382
C           -3.00766256976582       -1.67899175946136        1.61938222589147
C           -2.70371881386854       -0.32914277585747        1.45592914708748
C           -2.47716777446683        2.21355501374601       -1.15738330911768
C           -1.47834763805735        1.19192985529076       -1.73337693418502
C           -0.13461403428889        1.24841520826813       -1.11366922410615
N            0.56288320503617        0.19143835873996       -0.69254847059248
C            1.94709135516342        0.32930473577364       -0.31052187670637
C            2.89978515968819       -0.12985789288916       -1.43142948297402
C            4.32614286704741        0.00267378332918       -0.97746775647059
C            5.02029286047813        1.18597295103557       -1.15666245468249
C            6.32678353723212        1.31659642231832       -0.70923486540081
C            6.96239598667190        0.26429773363517       -0.06876110274916
O            8.22672791969386        0.27933739611087        0.40399979716345
C            9.00311526325323        1.44230888656596        0.23677411691011
C            6.25707301203494       -0.95286406455784        0.12268823185371
O            6.95123091523044       -1.92823792005347        0.75161957027104
C            6.34105180403152       -3.17881570013459        0.95499706330618
C            4.95303086424535       -1.06033349962675       -0.32997392703736
C            0.00483509833733       -1.13850249046562       -0.68365869311439
C           -4.26687824877317        2.71111265551594        0.57968131519057
C           -4.81251127113116        2.39714109799848        1.97118086297663
C           -4.09953518819112        4.22009001626640        0.42174655315454
H           -4.61111953753044        0.41856187236977       -1.23817809779403
H           -6.61534431924796       -0.70302190104663       -1.84638730003824
H           -6.61070053970440       -2.27184063773985       -2.69017300603362
H           -5.24449176436437       -1.15158954895069       -2.90407854553320
H           -5.80514697229566       -3.35522016141124        2.21838116874739
H           -6.22677809962010       -3.64309989185192        0.50733952067870
H           -5.63944564300161       -4.99208158266829        1.51084632873067
H           -3.57824060317030       -3.94561154678519        1.56766120648184
H           -2.02872257743268        0.14092081204530        2.15702271582619
H           -3.34335205682019        2.24357126670866       -1.81867999644236
H           -2.01855817720996        3.20310052340844       -1.17253727561125
H           -1.90256818551046        0.19167169203913       -1.66805335634688
H           -1.36311350012352        1.43876402889309       -2.79734545478701
H           -0.86700688828907        1.83651943307270        0.84956556144190
H            0.38565207479808        2.19371067244332       -1.12802988374241
H            2.13097717900421       -0.26705194381574        0.58761346533560
H            2.15636400162652        1.37423840896280       -0.07386106854698
H            2.72705356808279        0.48775235935673       -2.31434801757443
H            2.68392723952874       -1.16777660213083       -1.68882977590817
H            4.55076161763161        2.01783060531567       -1.65951538589978
H            6.84402198401713        2.24812304824427       -0.87026159642364
H            8.55894173945055        2.29927283651006        0.75275936194917
H            9.14050367506615        1.68406432423466       -0.82165123078999
H            9.96937721920868        1.21465610853600        0.68283751895517
H            7.09111973498326       -3.79310334145058        1.44950069162522
H            5.45994134460566       -3.09665961726718        1.60027753559434
H            6.05805553765532       -3.64769818128715        0.00698852597390
H            4.41000705467510       -1.98298489382658       -0.19545040854865
H           -0.20161472922887       -1.48963754785129       -1.69740397527113
H           -0.92269579833945       -1.15794377696209       -0.10452574896934
H            0.71339927278098       -1.81908964770397       -0.21902332726672
H           -5.00808726783695        2.37619138934836       -0.15589726599400
H           -4.12072821888333        2.75143039523999        2.72801048899324
H           -4.96112661985836        1.32778420757854        2.10322110062374
H           -5.76797886956633        2.89648305223841        2.11024674966163
H           -3.34252063699852        4.58816787638515        1.10671628926663
H           -3.82880807283820        4.49402055544269       -0.59456670922227
H           -5.04084222809554        4.70922352040496        0.65910313720414
H           -1.05664412645280        3.27734593065701        2.67266190416605

 Bond Distances (Angstroems)
 ---------------------------
N1-C2=1.2512         N1-H72=1.0158        C2-N1=1.2512         C2-C3=1.5046         C2-H47=1.1058        C3-C2=1.5046         
C3-C4=1.5224         C3-C14=1.5516        C3-C31=1.5572        C4-C3=1.5224         C4-C5=1.3983         C4-C13=1.3918        
C5-C4=1.3983         C5-C6=1.3873         C5-H34=1.0772        C6-C5=1.3873         C6-O7=1.3631         C6-C9=1.3982         
O7-C6=1.3631         O7-C8=1.4107         C8-O7=1.4107         C8-H35=1.0934        C8-H36=1.0882        C8-H37=1.0933        
C9-C6=1.3982         C9-O10=1.4905        C9-C12=1.3653        O10-C9=1.4905        O10-C11=1.4468       O10-H41=0.9786       
C11-O10=1.4468       C11-H38=1.0908       C11-H39=1.0899       C11-H40=1.0881       C12-C9=1.3653        C12-C13=1.3933       
C13-C4=1.3918        C13-C12=1.3933       C13-H42=1.0808       C14-C3=1.5516        C14-C15=1.5405       C14-H43=1.0902       
C14-H44=1.0908       C15-C14=1.5405       C15-C16=1.4808       C15-H45=1.0885       C15-H46=1.0983       C16-C15=1.4808       
C16-N17=1.3346       C16-H48=1.0791       N17-C16=1.3346       N17-C18=1.4426       N17-C30=1.4423       C18-N17=1.4426       
C18-C19=1.5411       C18-H49=1.0937       C18-H50=1.0916       C19-C18=1.5411       C19-C20=1.5027       C19-H51=1.0912       
C19-H52=1.0909       C20-C19=1.5027       C20-C21=1.3835       C20-C29=1.3936       C21-C20=1.3835       C21-C22=1.3871       
C21-H53=1.0795       C22-C21=1.3871       C22-C23=1.3862       C22-H54=1.0776       C23-C22=1.3862       C23-O24=1.3499       
C23-C26=1.4197       O24-C23=1.3499       O24-C25=1.4083       C25-O24=1.4083       C25-H55=1.0945       C25-H56=1.0943       
C25-H57=1.0883       C26-C23=1.4197       C26-O27=1.3523       C26-C29=1.3846       O27-C26=1.3523       O27-C28=1.4063       
C28-O27=1.4063       C28-H58=1.0883       C28-H59=1.0952       C28-H60=1.0948       C29-C20=1.3936       C29-C26=1.3846       
C29-H61=1.0790       C30-N17=1.4423       C30-H62=1.0925       C30-H63=1.0937       C30-H64=1.0868       C31-C3=1.5572        
C31-C32=1.5273       C31-C33=1.5264       C31-H65=1.0966       C32-C31=1.5273       C32-H66=1.0848       C32-H67=1.0877       
C32-H68=1.0870       C33-C31=1.5264       C33-H69=1.0852       C33-H70=1.0868       C33-H71=1.0870       H34-C5=1.0772        
H35-C8=1.0934        H36-C8=1.0882        H37-C8=1.0933        H38-C11=1.0908       H39-C11=1.0899       H40-C11=1.0881       
H41-O10=0.9786       H42-C13=1.0808       H43-C14=1.0902       H44-C14=1.0908       H45-C15=1.0885       H46-C15=1.0983       
H47-C2=1.1058        H48-C16=1.0791       H49-C18=1.0937       H50-C18=1.0916       H51-C19=1.0912       H52-C19=1.0909       
H53-C21=1.0795       H54-C22=1.0776       H55-C25=1.0945       H56-C25=1.0943       H57-C25=1.0883       H58-C28=1.0883       
H59-C28=1.0952       H60-C28=1.0948       H61-C29=1.0790       H62-C30=1.0925       H63-C30=1.0937       H64-C30=1.0868       
H65-C31=1.0966       H66-C32=1.0848       H67-C32=1.0877       H68-C32=1.0870       H69-C33=1.0852       H70-C33=1.0868       
H71-C33=1.0870       H72-N1=1.0158        
 C  H  Rav=1.0892 sigma=0.0060  Rmin=1.0772  Rmax=1.1058    37
 C  C  Rav=1.4520 sigma=0.0694  Rmin=1.3653  Rmax=1.5572    22
 N  H  Rav=1.0158 sigma=0.0000  Rmin=1.0158  Rmax=1.0158     1
 N  C  Rav=1.3676 sigma=0.0804  Rmin=1.2512  Rmax=1.4426     4
 O  H  Rav=0.9786 sigma=0.0000  Rmin=0.9786  Rmax=0.9786     1
 O  C  Rav=1.4035 sigma=0.0456  Rmin=1.3499  Rmax=1.4905     8

 selected bond angles (degree)
 --------------------
H72-N1-C2=117.17               C3-C2-N1=124.46                H47-C2-N1=123.88               H47-C2-C3=111.58               
C4-C3-C2=109.85                C14-C3-C2=105.73               C14-C3-C4=110.21               C31-C3-C2=113.37               
C31-C3-C4=107.90               C31-C3-C14=109.78              C5-C4-C3=119.02                C13-C4-C3=121.50               
C13-C4-C5=119.48               C6-C5-C4=121.01                H34-C5-C4=119.63               H34-C5-C6=119.35               
O7-C6-C5=126.53                C9-C6-C5=115.85                C9-C6-O7=117.62                C8-O7-C6=118.51                
H35-C8-O7=111.29               H36-C8-O7=105.57               H36-C8-H35=109.47              H37-C8-O7=111.32               
H37-C8-H35=109.76              H37-C8-H36=109.33              O10-C9-C6=117.92               C12-C9-C6=126.20               
C12-C9-O10=115.86              C11-O10-C9=114.35              H41-O10-C9=103.67              H41-O10-C11=109.17             

 selected dihedral angles (degree)
 ---------------------------------
C3-C2-N1-H72=182.31           H47-C2-N1-H72=358.83          C4-C3-C2-N1=245.51            C4-C3-C2-H47= 68.62           
C14-C3-C2-N1=126.62           C14-C3-C2-H47=309.72          C31-C3-C2-N1=  6.31           C31-C3-C2-H47=189.41          
C5-C4-C3-C2=189.46            C5-C4-C3-C14=305.56           C5-C4-C3-C31= 65.42           C13-C4-C3-C2= 10.45           
C13-C4-C3-C14=126.55          C13-C4-C3-C31=246.41          C6-C5-C4-C3=181.85            C6-C5-C4-C13=  0.88           
H34-C5-C4-C3=  0.97           H34-C5-C4-C13=179.99          O7-C6-C5-C4=179.37            O7-C6-C5-H34=  0.25           
C9-C6-C5-C4=359.27            C9-C6-C5-H34=180.16           C8-O7-C6-C5=  1.07            C8-O7-C6-C9=181.16            
H35-C8-O7-C6=297.60           H36-C8-O7-C6=178.92           H37-C8-O7-C6= 60.39           O10-C9-C6-C5=181.42           
O10-C9-C6-O7=  1.34           C12-C9-C6-C5=  0.15           C12-C9-C6-O7=180.06           C11-O10-C9-C6=290.39          
C11-O10-C9-C12=111.54         H41-O10-C9-C6=171.64          H41-O10-C9-C12=352.78         
           -------------------------------------------------
          |                Final Singlepoint                |
           -------------------------------------------------

          ...................................................
          :                      SETUP                      :
          :.................................................:
          :  # basis functions                 171          :
          :  # atomic orbitals                 171          :
          :  # shells                          105          :
          :  # electrons                       180          :
          :  max. iterations                   250          :
          :  Hamiltonian                  GFN2-xTB          :
          :  restarted?                      false          :
          :  GBSA solvation                  false          :
          :  PC potential                    false          :
          :  electronic temp.         5000.0000000     K    :
          :  accuracy                    1.0000000          :
          :  -> integral cutoff          0.2500000E+02      :
          :  -> integral neglect         0.1000000E-07      :
          :  -> SCF convergence          0.1000000E-05 Eh   :
          :  -> wf. convergence          0.1000000E-03 e    :
          :  Broyden damping             0.4000000          :
          ...................................................

 iter      E             dE          RMSdq      gap      omega  full diag
   1   -100.6405281 -0.100641E+03  0.616E-05    1.18       0.0  T
   2   -100.6405281 -0.400320E-10  0.430E-05    1.18     274.1  T
   3   -100.6405281  0.226521E-10  0.383E-05    1.18     307.6  T

   *** convergence criteria satisfied after 3 iterations ***

         #    Occupation            Energy/Eh            Energy/eV
      -------------------------------------------------------------
         1        2.0000           -0.8896635             -24.2090
       ...           ...                  ...                  ...
        84        1.9978           -0.5006877             -13.6244
        85        1.9942           -0.4855576             -13.2127
        86        1.9865           -0.4720066             -12.8440
        87        1.9846           -0.4699507             -12.7880
        88        1.9609           -0.4550062             -12.3813
        89        1.9029           -0.4401302             -11.9766
        90        1.6592           -0.4180851             -11.3767 (HOMO)
        91        0.4773           -0.3746526             -10.1948 (LUMO)
        92        0.0210           -0.3210709              -8.7368
        93        0.0142           -0.3147822              -8.5657
        94        0.0054           -0.2993656              -8.1462
        95        0.0043           -0.2957889              -8.0488
       ...           ...                  ...                  ...
       171                          0.5944540              16.1759
      -------------------------------------------------------------
                  HL-Gap            0.0434326 Eh            1.1819 eV
             Fermi-level           -0.3930224 Eh          -10.6947 eV

 SCC (total)                   0 d,  0 h,  0 min,  0.117 sec
 SCC setup                      ...        0 min,  0.001 sec (  0.747%)
 Dispersion                     ...        0 min,  0.002 sec (  1.372%)
 classical contributions        ...        0 min,  0.000 sec (  0.371%)
 integral evaluation            ...        0 min,  0.018 sec ( 15.489%)
 iterations                     ...        0 min,  0.026 sec ( 22.428%)
 molecular gradient             ...        0 min,  0.069 sec ( 59.106%)
 printout                       ...        0 min,  0.001 sec (  0.474%)

         :::::::::::::::::::::::::::::::::::::::::::::::::::::
         ::                     SUMMARY                     ::
         :::::::::::::::::::::::::::::::::::::::::::::::::::::
         :: total energy             -99.272458554409 Eh    ::
         :: gradient norm              0.007403692979 Eh/a0 ::
         :: HOMO-LUMO gap              1.181860303067 eV    ::
         ::.................................................::
         :: SCC energy              -100.640528071558 Eh    ::
         :: -> isotropic ES            0.119044938611 Eh    ::
         :: -> anisotropic ES          0.006001274419 Eh    ::
         :: -> anisotropic XC          0.045068566979 Eh    ::
         :: -> dispersion             -0.076122121886 Eh    ::
         :: repulsion energy           1.366830995466 Eh    ::
         :: add. restraining           0.000000000000 Eh    ::
         :: total charge               1.000000000000 e     ::
         :::::::::::::::::::::::::::::::::::::::::::::::::::::

           -------------------------------------------------
          |                Property Printout                |
           -------------------------------------------------

    * Orbital Energies and Occupations

         #    Occupation            Energy/Eh            Energy/eV
      -------------------------------------------------------------
         1        2.0000           -0.8896635             -24.2090
       ...           ...                  ...                  ...
        78        1.9992           -0.5173897             -14.0789
        79        1.9992           -0.5165478             -14.0560
        80        1.9990           -0.5133036             -13.9677
        81        1.9985           -0.5074031             -13.8071
        82        1.9982           -0.5043672             -13.7245
        83        1.9979           -0.5019471             -13.6587
        84        1.9978           -0.5006877             -13.6244
        85        1.9942           -0.4855576             -13.2127
        86        1.9865           -0.4720066             -12.8440
        87        1.9846           -0.4699507             -12.7880
        88        1.9609           -0.4550062             -12.3813
        89        1.9029           -0.4401302             -11.9766
        90        1.6592           -0.4180851             -11.3767 (HOMO)
        91        0.4773           -0.3746526             -10.1948 (LUMO)
        92        0.0210           -0.3210709              -8.7368
        93        0.0142           -0.3147822              -8.5657
        94        0.0054           -0.2993656              -8.1462
        95        0.0043           -0.2957889              -8.0488
        96        0.0036           -0.2929764              -7.9723
        97        0.0000           -0.2066894              -5.6243
        98        0.0000           -0.1777044              -4.8356
        99        0.0000           -0.1703015              -4.6341
       100                         -0.1170926              -3.1863
       101                         -0.0941994              -2.5633
       ...                                ...                  ...
       171                          0.5944540              16.1759
      -------------------------------------------------------------
                  HL-Gap            0.0434326 Eh            1.1819 eV
             Fermi-level           -0.3930224 Eh          -10.6947 eV

     #   Z          covCN         q      C6AA      α(0)
     1   7 N        1.774    -0.282    28.123     7.853
     2   6 C        2.827     0.101    25.763     8.317
     3   6 C        3.907     0.006    20.415     6.422
     4   6 C        2.971     0.005    27.919     8.667
     5   6 C        2.932    -0.084    30.095     8.997
     6   6 C        2.853     0.125    25.250     8.236
     7   8 O        1.704    -0.279    18.639     5.829
     8   6 C        3.643     0.034    20.343     6.484
     9   6 C        2.869     0.050    26.879     8.499
    10   8 O        2.486    -0.129    16.216     5.439
    11   6 C        3.626    -0.016    21.294     6.648
    12   6 C        1.978    -0.223    37.637     9.907
    13   6 C        2.939    -0.042    29.031     8.837
    14   6 C        3.812    -0.061    21.667     6.626
    15   6 C        3.802    -0.065    21.748     6.639
    16   6 C        2.841    -0.003    28.098     8.687
    17   7 N        2.729     0.001    21.250     6.846
    18   6 C        3.755    -0.014    20.880     6.515
    19   6 C        3.808    -0.070    21.825     6.650
    20   6 C        2.969    -0.003    28.106     8.696
    21   6 C        2.922    -0.051    29.265     8.871
    22   6 C        2.915    -0.069    29.725     8.940
    23   6 C        2.865     0.130    25.149     8.220
    24   8 O        1.706    -0.232    17.842     5.703
    25   6 C        3.645     0.028    20.436     6.497
    26   6 C        2.863     0.130    25.161     8.222
    27   8 O        1.706    -0.234    17.882     5.709
    28   6 C        3.645     0.031    20.394     6.491
    29   6 C        2.920    -0.081    30.027     8.986
    30   6 C        3.699    -0.068    21.966     6.703
    31   6 C        3.853    -0.006    20.646     6.463
    32   6 C        3.756    -0.116    22.770     6.804
    33   6 C        3.755    -0.117    22.801     6.809
    34   1 H        0.926     0.042     2.419     2.432
    35   1 H        0.924     0.048     2.340     2.392
    36   1 H        0.925     0.068     2.106     2.270
    37   1 H        0.924     0.045     2.383     2.414
    38   1 H        0.924     0.093     1.852     2.128
    39   1 H        0.925     0.125     1.573     1.961
    40   1 H        0.925     0.097     1.813     2.106
    41   1 H        0.803     0.365     0.554     1.170
    42   1 H        0.926     0.029     2.599     2.521
    43   1 H        0.925     0.053     2.287     2.365
    44   1 H        0.924     0.050     2.322     2.383
    45   1 H        0.925     0.058     2.219     2.330
    46   1 H        0.923     0.069     2.098     2.265
    47   1 H        0.922     0.003     3.005     2.711
    48   1 H        0.926     0.061     2.182     2.310
    49   1 H        0.924     0.064     2.155     2.296
    50   1 H        0.924     0.065     2.145     2.290
    51   1 H        0.924     0.052     2.296     2.370
    52   1 H        0.924     0.051     2.309     2.376
    53   1 H        0.926     0.041     2.432     2.439
    54   1 H        0.926     0.054     2.272     2.357
    55   1 H        0.924     0.050     2.321     2.382
    56   1 H        0.924     0.051     2.303     2.373
    57   1 H        0.925     0.078     2.004     2.214
    58   1 H        0.925     0.077     2.012     2.218
    59   1 H        0.924     0.044     2.398     2.422
    60   1 H        0.924     0.047     2.353     2.399
    61   1 H        0.926     0.042     2.429     2.437
    62   1 H        0.924     0.066     2.126     2.280
    63   1 H        0.924     0.079     1.993     2.208
    64   1 H        0.925     0.074     2.038     2.232
    65   1 H        0.924     0.029     2.598     2.521
    66   1 H        0.925     0.068     2.104     2.268
    67   1 H        0.925     0.029     2.596     2.520
    68   1 H        0.925     0.044     2.393     2.419
    69   1 H        0.925     0.060     2.196     2.317
    70   1 H        0.925     0.032     2.558     2.501
    71   1 H        0.925     0.049     2.329     2.386
    72   1 H        0.860     0.151     1.396     1.851

 Mol. C6AA /au·bohr⁶  :      47646.045774
 Mol. C8AA /au·bohr⁸  :    1088690.920139
 Mol. α(0) /au        :        335.047627


Wiberg/Mayer (AO) data.
largest (>0.10) Wiberg bond orders for each atom

 ---------------------------------------------------------------------------
     #   Z sym  total        # sym  WBO       # sym  WBO       # sym  WBO
 ---------------------------------------------------------------------------
     1   7 N    3.028 --     2 C    1.946    72 H    0.945
     2   6 C    3.925 --     1 N    1.946     3 C    0.995    47 H    0.908
     3   6 C    3.975 --     2 C    0.995     4 C    0.967    14 C    0.956
                            31 C    0.945
     4   6 C    3.942 --    13 C    1.418     5 C    1.376     3 C    0.967
     5   6 C    3.967 --     6 C    1.387     4 C    1.376    34 H    0.957
                            12 C    0.102
     6   6 C    3.905 --     5 C    1.387     9 C    1.296     7 O    1.055
     7   8 O    2.217 --     6 C    1.055     8 C    0.976
     8   6 C    3.938 --    36 H    0.979    37 H    0.977    35 H    0.977
                             7 O    0.976
     9   6 C    3.731 --    12 C    1.451     6 C    1.296    10 O    0.766
    10   8 O    2.582 --    11 C    0.907    41 H    0.834     9 C    0.766
    11   6 C    3.865 --    38 H    0.979    40 H    0.976    39 H    0.968
                            10 O    0.907
    12   6 C    3.024 --     9 C    1.451    13 C    1.363     5 C    0.102
    13   6 C    3.951 --     4 C    1.418    12 C    1.363    42 H    0.957
    14   6 C    3.971 --    15 C    0.981    44 H    0.973    43 H    0.969
                             3 C    0.956
    15   6 C    3.989 --    16 C    1.057    14 C    0.981    45 H    0.964
                            46 H    0.934
    16   6 C    3.535 --    17 N    1.366    15 C    1.057    48 H    0.959
    17   7 N    3.440 --    16 C    1.366    30 C    1.000    18 C    0.991
    18   6 C    3.958 --    17 N    0.991    50 H    0.968    19 C    0.967
                            49 H    0.964
    19   6 C    3.976 --    20 C    1.008    51 H    0.973    52 H    0.972
                            18 C    0.967
    20   6 C    3.956 --    21 C    1.420    29 C    1.375    19 C    1.008
    21   6 C    3.962 --    20 C    1.420    22 C    1.411    53 H    0.969
    22   6 C    3.967 --    21 C    1.411    23 C    1.392    54 H    0.964
    23   6 C    3.908 --    22 C    1.392    26 C    1.231    24 O    1.097
    24   8 O    2.253 --    23 C    1.097    25 C    0.979
    25   6 C    3.934 --    24 O    0.979    57 H    0.978    55 H    0.974
                            56 H    0.974
    26   6 C    3.911 --    29 C    1.403    23 C    1.231    27 O    1.090
    27   8 O    2.252 --    26 C    1.090    28 C    0.982
    28   6 C    3.938 --    27 O    0.982    58 H    0.978    59 H    0.975
                            60 H    0.974
    29   6 C    3.965 --    26 C    1.403    20 C    1.375    61 H    0.963
    30   6 C    3.961 --    17 N    1.000    64 H    0.978    62 H    0.969
                            63 H    0.958
    31   6 C    3.981 --    33 C    1.009    32 C    1.009    65 H    0.963
                             3 C    0.945
    32   6 C    3.987 --    31 C    1.009    68 H    0.984    67 H    0.983
                            66 H    0.977
    33   6 C    3.987 --    31 C    1.009    70 H    0.984    71 H    0.982
                            69 H    0.978
    34   1 H    0.995 --     5 C    0.957
    35   1 H    0.997 --     8 C    0.977
    36   1 H    0.995 --     8 C    0.979
    37   1 H    0.997 --     8 C    0.977
    38   1 H    0.991 --    11 C    0.979
    39   1 H    0.984 --    11 C    0.968
    40   1 H    0.990 --    11 C    0.976
    41   1 H    0.864 --    10 O    0.834
    42   1 H    0.992 --    13 C    0.957
    43   1 H    0.996 --    14 C    0.969
    44   1 H    0.996 --    14 C    0.973
    45   1 H    0.996 --    15 C    0.964
    46   1 H    0.970 --    15 C    0.934
    47   1 H    0.991 --     2 C    0.908
    48   1 H    0.996 --    16 C    0.959
    49   1 H    0.991 --    18 C    0.964
    50   1 H    0.995 --    18 C    0.968
    51   1 H    0.996 --    19 C    0.973
    52   1 H    0.996 --    19 C    0.972
    53   1 H    0.998 --    21 C    0.969
    54   1 H    0.996 --    22 C    0.964
    55   1 H    0.994 --    25 C    0.974
    56   1 H    0.994 --    25 C    0.974
    57   1 H    0.993 --    25 C    0.978
    58   1 H    0.994 --    28 C    0.978
    59   1 H    0.995 --    28 C    0.975
    60   1 H    0.995 --    28 C    0.974
    61   1 H    0.997 --    29 C    0.963
    62   1 H    0.986 --    30 C    0.969
    63   1 H    0.986 --    30 C    0.958
    64   1 H    0.994 --    30 C    0.978
    65   1 H    0.996 --    31 C    0.963
    66   1 H    0.993 --    32 C    0.977
    67   1 H    0.998 --    32 C    0.983
    68   1 H    0.996 --    32 C    0.984
    69   1 H    0.995 --    33 C    0.978
    70   1 H    0.998 --    33 C    0.984
    71   1 H    0.995 --    33 C    0.982
    72   1 H    0.973 --     1 N    0.945
 ---------------------------------------------------------------------------

Topologies differ in total number of bonds
Writing topology from bond orders to xtbtopo.mol

molecular dipole:
                 x           y           z       tot (Debye)
 q only:       -2.319      -2.747      -0.194
   full:       -2.260      -2.660      -0.747       9.073
molecular quadrupole (traceless):
                xx          xy          yy          xz          yz          zz
 q only:       57.058      47.611      -4.288      -5.870     -18.384     -52.770
  q+dip:       53.489      52.304      -2.248       0.963     -20.346     -51.240
   full:       53.887      52.322      -3.236      -1.889     -19.999     -50.651

           -------------------------------------------------
          |                Geometry Summary                 |
           -------------------------------------------------

      molecular mass/u    :      455.6105846
   center of mass at/Å    :        0.0875252       0.0027693       0.0371086
  moments of inertia/u·Å² :        0.2460746E+04   0.1082269E+05   0.1213472E+05
rotational constants/cm⁻¹ :        0.6850619E-02   0.1557619E-02   0.1389206E-02

 * 65 selected distances

     #   Z          #   Z                                           value/Å
     1   7 N        2   6 C                                       1.2511596
     4   6 C        5   6 C                                       1.3982991
     5   6 C        6   6 C                                       1.3873451
     6   6 C        7   8 O                                       1.3630980
     7   8 O        8   6 C                                       1.4107431
     6   6 C        9   6 C                                       1.3982078
     9   6 C       10   8 O                                       1.4905305
    10   8 O       11   6 C                                       1.4468129
     9   6 C       12   6 C                                       1.3653036
     4   6 C       13   6 C                                       1.3917506
    14   6 C       15   6 C                                       1.5404963
    15   6 C       16   6 C                                       1.4808270
    16   6 C       17   7 N                                       1.3345582
    17   7 N       18   6 C                                       1.4425616
    18   6 C       19   6 C                                       1.5410678 (max)
    20   6 C       21   6 C                                       1.3835289
    21   6 C       22   6 C                                       1.3871453
    22   6 C       23   6 C                                       1.3861972
    23   6 C       24   8 O                                       1.3499128
    24   8 O       25   6 C                                       1.4082772
    23   6 C       26   6 C                                       1.4197241
    26   6 C       27   8 O                                       1.3523181
    27   8 O       28   6 C                                       1.4062809
    20   6 C       29   6 C                                       1.3936361
    26   6 C       29   6 C                                       1.3845501
    17   7 N       30   6 C                                       1.4423036
    31   6 C       32   6 C                                       1.5272737
    31   6 C       33   6 C                                       1.5264207
     5   6 C       34   1 H                                       1.0771820
     8   6 C       35   1 H                                       1.0934357
     8   6 C       36   1 H                                       1.0882490
     8   6 C       37   1 H                                       1.0932963
    11   6 C       38   1 H                                       1.0908178
    11   6 C       39   1 H                                       1.0899069
    11   6 C       40   1 H                                       1.0880986
    10   8 O       41   1 H                                       0.9785707 (min)
    13   6 C       42   1 H                                       1.0807924
    14   6 C       43   1 H                                       1.0901788
    14   6 C       44   1 H                                       1.0907580
    15   6 C       45   1 H                                       1.0884608
    15   6 C       46   1 H                                       1.0982874
    16   6 C       48   1 H                                       1.0791046
    18   6 C       49   1 H                                       1.0936648
    18   6 C       50   1 H                                       1.0916455
    19   6 C       51   1 H                                       1.0912488
    19   6 C       52   1 H                                       1.0909285
    21   6 C       53   1 H                                       1.0794943
    22   6 C       54   1 H                                       1.0775933
    25   6 C       55   1 H                                       1.0944946
    25   6 C       56   1 H                                       1.0943426
    25   6 C       57   1 H                                       1.0883293
    28   6 C       58   1 H                                       1.0883406
    28   6 C       59   1 H                                       1.0952134
    28   6 C       60   1 H                                       1.0948324
    29   6 C       61   1 H                                       1.0790075
    30   6 C       62   1 H                                       1.0925187
    30   6 C       63   1 H                                       1.0936575
    30   6 C       64   1 H                                       1.0868065
    31   6 C       65   1 H                                       1.0966490
    32   6 C       66   1 H                                       1.0848392
    32   6 C       67   1 H                                       1.0876790
    32   6 C       68   1 H                                       1.0870144
    33   6 C       69   1 H                                       1.0852355
    33   6 C       70   1 H                                       1.0868413
    33   6 C       71   1 H                                       1.0870367

 * 5 distinct bonds (by element types)

   Z      Z             #   av. dist./Å        max./Å        min./Å
   1 H    6 C          36     1.0887773     1.0982874     1.0771820
   6 C    6 C          16     1.4319858     1.5410678     1.3653036
   6 C    7 N           4     1.3676457     1.4425616     1.2511596
   1 H    8 O           1     0.9785707     0.9785707     0.9785707
   6 C    8 O           8     1.4034967     1.4905305     1.3499128


optimized geometry written to: xtbopt.xyz


           -------------------------------------------------
          | TOTAL ENERGY              -99.272458554409 Eh   |
          | GRADIENT NORM               0.007403692979 Eh/α |
          | HOMO-LUMO GAP               1.181860303067 eV   |
           -------------------------------------------------

------------------------------------------------------------------------
 * finished run on 2024/04/06 at 11:13:22.667     
------------------------------------------------------------------------
 total:
 * wall-time:     0 d,  0 h,  0 min,  0.947 sec
 *  cpu-time:     0 d,  0 h,  0 min,  0.916 sec
 * ratio c/w:     0.967 speedup
 SCF:
 * wall-time:     0 d,  0 h,  0 min,  0.119 sec
 *  cpu-time:     0 d,  0 h,  0 min,  0.119 sec
 * ratio c/w:     1.000 speedup
 ANC optimizer:
 * wall-time:     0 d,  0 h,  0 min,  0.781 sec
 *  cpu-time:     0 d,  0 h,  0 min,  0.773 sec
 * ratio c/w:     0.990 speedup

