      -----------------------------------------------------------      
     |                   =====================                   |     
     |                           x T B                           |     
     |                   =====================                   |     
     |                         S. Grimme                         |     
     |          Mulliken Center for Theoretical Chemistry        |     
     |                    University of Bonn                     |     
      -----------------------------------------------------------      

   * xtb version 6.6.1 (8d0f1dd) compiled by 'conda@1efc2f54142f' on 2023-08-01

   xtb is free software: you can redistribute it and/or modify it under
   the terms of the GNU Lesser General Public License as published by
   the Free Software Foundation, either version 3 of the License, or
   (at your option) any later version.
   
   xtb is distributed in the hope that it will be useful,
   but WITHOUT ANY WARRANTY; without even the implied warranty of
   MERCHANTABILITY or FITNESS FOR A PARTICULAR PURPOSE.  See the
   GNU Lesser General Public License for more details.
   
   Cite this work as:
   * C. Bannwarth, E. Caldeweyher, S. Ehlert, A. Hansen, P. Pracht,
     J. Seibert, S. Spicher, S. Grimme, WIREs Comput. Mol. Sci., 2020, 11,
     e01493. DOI: 10.1002/wcms.1493
   
   for GFN2-xTB:
   * C. Bannwarth, S. Ehlert and S. Grimme., J. Chem. Theory Comput., 2019,
     15, 1652-1671. DOI: 10.1021/acs.jctc.8b01176
   for GFN1-xTB:
   * S. Grimme, C. Bannwarth, P. Shushkov, J. Chem. Theory Comput., 2017,
     13, 1989-2009. DOI: 10.1021/acs.jctc.7b00118
   for GFN0-xTB:
   * P. Pracht, E. Caldeweyher, S. Ehlert, S. Grimme, ChemRxiv, 2019, preprint.
     DOI: 10.26434/chemrxiv.8326202.v1
   for GFN-FF:
   * S. Spicher and S. Grimme, Angew. Chem. Int. Ed., 2020, 59, 15665-15673.
     DOI: 10.1002/anie.202004239
   
   for ALPB and GBSA implicit solvation:
   * S. Ehlert, M. Stahn, S. Spicher, S. Grimme, J. Chem. Theory Comput.,
     2021, 17, 4250-4261. DOI: 10.1021/acs.jctc.1c00471
   
   for DFT-D4:
   * E. Caldeweyher, C. Bannwarth and S. Grimme, J. Chem. Phys., 2017,
     147, 034112. DOI: 10.1063/1.4993215
   * E. Caldeweyher, S. Ehlert, A. Hansen, H. Neugebauer, S. Spicher,
     C. Bannwarth and S. Grimme, J. Chem. Phys., 2019, 150, 154122.
     DOI: 10.1063/1.5090222
   * E. Caldeweyher, J.-M. Mewes, S. Ehlert and S. Grimme, Phys. Chem. Chem. Phys.
     2020, 22, 8499-8512. DOI: 10.1039/D0CP00502A
   
   for sTDA-xTB:
   * S. Grimme and C. Bannwarth, J. Chem. Phys., 2016, 145, 054103.
     DOI: 10.1063/1.4959605
   
   in the mass-spec context:
   * V. Asgeirsson, C. Bauer and S. Grimme, Chem. Sci., 2017, 8, 4879.
     DOI: 10.1039/c7sc00601b
   * J. Koopman and S. Grimme, ACS Omega 2019, 4, 12, 15120-15133.
     DOI: 10.1021/acsomega.9b02011
   
   for metadynamics refer to:
   * S. Grimme, J. Chem. Theory Comput., 2019, 155, 2847-2862
     DOI: 10.1021/acs.jctc.9b00143
   
   for SPH calculations refer to:
   * S. Spicher and S. Grimme, J. Chem. Theory Comput., 2021, 17, 1701-1714
     DOI: 10.1021/acs.jctc.0c01306
   
   with help from (in alphabetical order)
   P. Atkinson, C. Bannwarth, F. Bohle, G. Brandenburg, E. Caldeweyher
   M. Checinski, S. Dohm, S. Ehlert, S. Ehrlich, I. Gerasimov, C. Hölzer
   A. Katbashev, J. Koopman, C. Lavigne, S. Lehtola, F. März, M. Müller,
   F. Musil, H. Neugebauer, J. Pisarek, C. Plett, P. Pracht, F. Pultar,
   J. Seibert, P. Shushkov, S. Spicher, M. Stahn, M. Steiner, T. Strunk,
   J. Stückrath, T. Rose, and J. Unsleber
   
 * started run on 2024/06/05 at 19:58:55.705     

           -------------------------------------------------
          |                Calculation Setup                |
           -------------------------------------------------

          program call               : xtb struc.xyz --opt loose --input .xc1 --gfn2
          hostname                   : n-62-29-9
          coordinate file            : struc.xyz
          omp threads                :                     1

   ID    Z sym.   atoms
    1    6 C      1, 3, 5-7, 10, 11, 14
    2    7 N      2, 4, 9, 13
    3    8 O      8, 12
    4    1 H      15-25
constraining bond 3 16 to    3.7133300 Å, actual value:    2.7548643 Å

           -------------------------------------------------
          |                 G F N 2 - x T B                 |
           -------------------------------------------------

        Reference                      10.1021/acs.jctc.8b01176
      * Hamiltonian:
        H0-scaling (s, p, d)           1.850000    2.230000    2.230000
        zeta-weighting                 0.500000
      * Dispersion:
        s8                             2.700000
        a1                             0.520000
        a2                             5.000000
        s9                             5.000000
      * Repulsion:
        kExp                           1.500000    1.000000
        rExp                           1.000000
      * Coulomb:
        alpha                          2.000000
        third order                    shell-resolved
        anisotropic                    true
        a3                             3.000000
        a5                             4.000000
        cn-shift                       1.200000
        cn-exp                         4.000000
        max-rad                        5.000000


          ...................................................
          :                      SETUP                      :
          :.................................................:
          :  # basis functions                  67          :
          :  # atomic orbitals                  67          :
          :  # shells                           39          :
          :  # electrons                        74          :
          :  max. iterations                   250          :
          :  Hamiltonian                  GFN2-xTB          :
          :  restarted?                      false          :
          :  GBSA solvation                  false          :
          :  PC potential                    false          :
          :  electronic temp.         7500.0000000     K    :
          :  accuracy                    1.0000000          :
          :  -> integral cutoff          0.2500000E+02      :
          :  -> integral neglect         0.1000000E-07      :
          :  -> SCF convergence          0.1000000E-05 Eh   :
          :  -> wf. convergence          0.1000000E-03 e    :
          :  Broyden damping             0.4000000          :
          ...................................................

 iter      E             dE          RMSdq      gap      omega  full diag
   1    -42.5960780 -0.425961E+02  0.440E+00    3.52       0.0  T
   2    -42.7780033 -0.181925E+00  0.248E+00    3.37       1.0  T
   3    -42.7871777 -0.917437E-02  0.149E+00    3.50       1.0  T
   4    -42.7817164  0.546128E-02  0.642E-01    3.42       1.0  T
   5    -42.7911189 -0.940247E-02  0.115E-01    3.49       1.0  T
   6    -42.7912109 -0.920486E-04  0.685E-02    3.46       1.0  T
   7    -42.7912647 -0.537856E-04  0.265E-02    3.48       1.0  T
   8    -42.7912686 -0.385526E-05  0.113E-02    3.47       1.8  T
   9    -42.7912697 -0.111307E-05  0.441E-03    3.47       4.5  T
  10    -42.7912698 -0.733569E-07  0.139E-03    3.47      14.4  T
  11    -42.7912698 -0.243437E-08  0.602E-04    3.47      33.2  T
  12    -42.7912698 -0.222032E-08  0.181E-04    3.47     110.6  T

   *** convergence criteria satisfied after 12 iterations ***

         #    Occupation            Energy/Eh            Energy/eV
      -------------------------------------------------------------
         1        2.0000           -0.9116047             -24.8060
       ...           ...                  ...                  ...
        31        1.9942           -0.6212459             -16.9050
        32        1.9930           -0.6166804             -16.7807
        33        1.9876           -0.6031136             -16.4116
        34        1.9710           -0.5827317             -15.8569
        35        1.9403           -0.5651917             -15.3796
        36        1.9387           -0.5645672             -15.3627
        37        1.9155           -0.5566412             -15.1470 (HOMO)
        38        0.1907           -0.4290919             -11.6762 (LUMO)
        39        0.0640           -0.4015676             -10.9272
        40        0.0206           -0.3740689             -10.1789
        41        0.0006           -0.2879107              -7.8344
        42        0.0000           -0.2065811              -5.6214
       ...           ...                  ...                  ...
        67                          0.5613577              15.2753
      -------------------------------------------------------------
                  HL-Gap            0.1275493 Eh            3.4708 eV
             Fermi-level           -0.4825284 Eh          -13.1303 eV

 SCC (total)                   0 d,  0 h,  0 min,  0.055 sec
 SCC setup                      ...        0 min,  0.000 sec (  0.473%)
 Dispersion                     ...        0 min,  0.000 sec (  0.601%)
 classical contributions        ...        0 min,  0.000 sec (  0.160%)
 integral evaluation            ...        0 min,  0.005 sec (  9.025%)
 iterations                     ...        0 min,  0.032 sec ( 58.522%)
 molecular gradient             ...        0 min,  0.017 sec ( 30.870%)
 printout                       ...        0 min,  0.000 sec (  0.324%)

         :::::::::::::::::::::::::::::::::::::::::::::::::::::
         ::                     SUMMARY                     ::
         :::::::::::::::::::::::::::::::::::::::::::::::::::::
         :: total energy             -43.900340910457 Eh    ::
         :: gradient norm              2.559140046220 Eh/a0 ::
         :: HOMO-LUMO gap              3.470793873671 eV    ::
         ::.................................................::
         :: SCC energy               -42.791269777655 Eh    ::
         :: -> isotropic ES            0.136760385929 Eh    ::
         :: -> anisotropic ES         -0.005341405309 Eh    ::
         :: -> anisotropic XC          0.011501049227 Eh    ::
         :: -> dispersion             -0.022650340738 Eh    ::
         :: repulsion energy           0.531105277918 Eh    ::
         :: add. restraining          -1.640290569729 Eh    ::
         :: total charge               1.000000000010 e     ::
         :::::::::::::::::::::::::::::::::::::::::::::::::::::

      ----------------------------------------------------------- 
     |                   =====================                   |
     |                        A N C O P T                        |
     |                   =====================                   |
     |               Approximate Normal Coordinate               |
     |                Rational Function Optimizer                |
      ----------------------------------------------------------- 

          ...................................................
          :                      SETUP                      :
          :.................................................:
          :   optimization level             loose          :
          :   max. optcycles                   200          :
          :   ANC micro-cycles                  20          :
          :   degrees of freedom                69          :
          :.................................................:
          :   RF solver                   davidson          :
          :   write xtbopt.log                true          :
          :   linear?                        false          :
          :   energy convergence         0.5000000E-04 Eh   :
          :   grad. convergence          0.4000000E-02 Eh/α :
          :   maxmium RF displ.          1.0000000          :
          :   Hlow (freq-cutoff)         0.1000000E-01      :
          :   Hmax (freq-cutoff)         5.0000000          :
          :   S6 in model hess.         20.0000000          :
          ...................................................

generating ANC from model Hessian ...
Using Lindh-Hessian (1995)
 Shifting diagonal of input Hessian by    1.5707592689403038     
 Lowest  eigenvalues of input Hessian
    0.010000    0.000000    0.000000    0.000000    0.000000    0.000000
    0.000000    1.575081    1.576340    1.578679    1.580777    1.582040
    1.583697    1.586025    1.589964    1.595192    1.605221    1.611927
 Highest eigenvalues
    3.618912    3.700637    3.827701    3.931380    3.982595    4.112717


........................................................................
.............................. CYCLE    1 ..............................
........................................................................

 iter      E             dE          RMSdq      gap      omega  full diag
   1    -42.7912698 -0.427913E+02  0.838E-05    3.47       0.0  T
   2    -42.7912698 -0.247127E-10  0.452E-05    3.47     442.9  T
   3    -42.7912698 -0.149214E-11  0.279E-05    3.47     715.8  T
     SCC iter.                  ...        0 min,  0.005 sec
     gradient                   ...        0 min,  0.013 sec
 * total energy  :   -43.9003409 Eh     change       -0.2401990E-09 Eh
   gradient norm :     2.5591397 Eh/α   predicted     0.0000000E+00 (-100.00%)
   displ. norm   :     0.9888898 α      lambda       -0.2503531E+01
   maximum displ.:     0.9810807 α      in ANC's #1, #64, #62, ...

........................................................................
.............................. CYCLE    2 ..............................
........................................................................

 iter      E             dE          RMSdq      gap      omega  full diag
   1    -42.7306563 -0.427307E+02  0.129E+00    3.96       0.0  T
   2    -42.7444615 -0.138052E-01  0.728E-01    3.69       1.0  T
   3    -42.7464628 -0.200132E-02  0.414E-01    3.88       1.0  T
   4    -42.7467681 -0.305296E-03  0.215E-01    3.72       1.0  T
   5    -42.7475872 -0.819080E-03  0.326E-02    3.80       1.0  T
   6    -42.7476003 -0.131685E-04  0.143E-02    3.79       1.4  T
   7    -42.7476012 -0.816662E-06  0.644E-03    3.79       3.1  T
   8    -42.7476016 -0.408818E-06  0.141E-03    3.79      14.2  T
   9    -42.7476016 -0.108636E-07  0.666E-04    3.79      30.0  T
  10    -42.7476016 -0.176646E-08  0.238E-04    3.79      84.0  T
     SCC iter.                  ...        0 min,  0.015 sec
     gradient                   ...        0 min,  0.012 sec
 * total energy  :   -47.2586036 Eh     change       -0.3358263E+01 Eh
   gradient norm :     4.3000012 Eh/α   predicted    -0.2475871E+01 ( -26.28%)
   displ. norm   :     0.9928091 α      lambda       -0.4250552E+01
   maximum displ.:     0.9842349 α      in ANC's #1, #64, #62, ...

........................................................................
.............................. CYCLE    3 ..............................
........................................................................

 iter      E             dE          RMSdq      gap      omega  full diag
   1    -42.5552595 -0.425553E+02  0.116E+00    3.26       0.0  T
   2    -42.5678093 -0.125498E-01  0.991E-01    3.18       1.0  T
   3    -42.5809448 -0.131356E-01  0.423E-01    3.31       1.0  T
   4    -42.5791911  0.175371E-02  0.285E-01    3.18       1.0  T
   5    -42.5812059 -0.201473E-02  0.806E-02    3.29       1.0  T
   6    -42.5813746 -0.168711E-03  0.227E-02    3.27       1.0  T
   7    -42.5813782 -0.365008E-05  0.929E-03    3.27       2.2  T
   8    -42.5813796 -0.135069E-05  0.269E-03    3.27       7.4  T
   9    -42.5813796 -0.230076E-07  0.127E-03    3.27      15.8  T
  10    -42.5813796 -0.151492E-07  0.503E-04    3.27      39.8  T
  11    -42.5813796 -0.293716E-08  0.165E-04    3.27     121.5  T
     SCC iter.                  ...        0 min,  0.015 sec
     gradient                   ...        0 min,  0.011 sec
 * total energy  :   -52.4359457 Eh     change       -0.5177342E+01 Eh
   gradient norm :     6.2355386 Eh/α   predicted    -0.4220156E+01 ( -18.49%)
   displ. norm   :     0.9919776 α      lambda       -0.6162945E+01
   maximum displ.:     0.9775268 α      in ANC's #1, #64, #62, ...

........................................................................
.............................. CYCLE    4 ..............................
........................................................................

 iter      E             dE          RMSdq      gap      omega  full diag
   1    -42.4456666 -0.424457E+02  0.213E+00    1.67       0.0  T
   2    -42.4181187  0.275479E-01  0.173E+00    1.45       1.0  T
   3    -42.5056783 -0.875597E-01  0.795E-01    1.81       1.0  T
   4    -42.5131278 -0.744949E-02  0.440E-01    1.62       1.0  T
   5    -42.5158507 -0.272290E-02  0.836E-02    1.76       1.0  T
   6    -42.5159558 -0.105066E-03  0.635E-02    1.71       1.0  T
   7    -42.5160763 -0.120555E-03  0.169E-02    1.73       1.2  T
   8    -42.5160771 -0.807543E-06  0.628E-03    1.73       3.2  T
   9    -42.5160776 -0.405822E-06  0.253E-03    1.73       7.9  T
  10    -42.5160776 -0.952592E-07  0.969E-04    1.73      20.6  T
  11    -42.5160777 -0.150319E-07  0.473E-04    1.73      42.3  T
     SCC iter.                  ...        0 min,  0.015 sec
     gradient                   ...        0 min,  0.012 sec
 * total energy  :   -58.9832268 Eh     change       -0.6547281E+01 Eh
   gradient norm :     4.7552968 Eh/α   predicted    -0.6113755E+01 (  -6.62%)
   displ. norm   :     0.8599558 α      lambda       -0.4085485E+01
   maximum displ.:     0.8161534 α      in ANC's #1, #64, #62, ...

........................................................................
.............................. CYCLE    5 ..............................
........................................................................

 iter      E             dE          RMSdq      gap      omega  full diag
   1    -42.4901212 -0.424901E+02  0.139E+00    1.55       0.0  T
   2    -42.4898903  0.230881E-03  0.879E-01    1.53       1.0  T
   3    -42.5001673 -0.102769E-01  0.624E-01    1.59       1.0  T
   4    -42.5076067 -0.743945E-02  0.215E-01    1.54       1.0  T
   5    -42.5084088 -0.802105E-03  0.578E-02    1.56       1.0  T
   6    -42.5084858 -0.769516E-04  0.205E-02    1.55       1.0  T
   7    -42.5084901 -0.432366E-05  0.126E-02    1.55       1.6  T
   8    -42.5084926 -0.255202E-05  0.277E-03    1.55       7.2  T
   9    -42.5084929 -0.246098E-06  0.888E-04    1.55      22.5  T
  10    -42.5084929 -0.212020E-08  0.311E-04    1.55      64.2  T
     SCC iter.                  ...        0 min,  0.014 sec
     gradient                   ...        0 min,  0.011 sec
 * total energy  :   -38.1203648 Eh     change        0.2086286E+02 Eh
   gradient norm :   279.1495496 Eh/α   predicted    -0.3553405E+01 (-117.03%)
   displ. norm   :     0.9971553 α      lambda       -0.2767576E+03
   maximum displ.:     0.9256623 α      in ANC's #1, #64, #62, ...

........................................................................
.............................. CYCLE    6 ..............................
........................................................................

 iter      E             dE          RMSdq      gap      omega  full diag
   1    -42.3596426 -0.423596E+02  0.212E+00    0.70       0.0  T
   2    -42.2435325  0.116110E+00  0.215E+00    1.25       1.0  T
   3    -42.3940840 -0.150551E+00  0.121E+00    0.81       1.0  T
   4    -42.4320470 -0.379630E-01  0.399E-01    0.73       1.0  T
   5    -42.4310526  0.994358E-03  0.283E-01    0.74       1.0  T
   6    -42.4338561 -0.280350E-02  0.383E-02    0.75       1.0  T
   7    -42.4338540  0.219928E-05  0.230E-02    0.75       1.0  T
   8    -42.4338632 -0.927347E-05  0.119E-02    0.74       1.7  T
   9    -42.4338655 -0.226686E-05  0.236E-03    0.74       8.5  T
  10    -42.4338655 -0.401480E-07  0.100E-03    0.74      20.0  T
  11    -42.4338655 -0.752355E-08  0.325E-04    0.74      61.6  T
     SCC iter.                  ...        0 min,  0.015 sec
     gradient                   ...        0 min,  0.011 sec
 * total energy  :   -56.6482496 Eh     change       -0.1852788E+02 Eh
   gradient norm :     7.1893659 Eh/α   predicted    -0.2775644E+03 (1398.09%)
   displ. norm   :     0.1342560 α      lambda       -0.2171551E+00
   maximum displ.:     0.0501275 α      in ANC's #50, #51, #36, ...

........................................................................
.............................. CYCLE    7 ..............................
........................................................................

 iter      E             dE          RMSdq      gap      omega  full diag
   1    -42.4372997 -0.424373E+02  0.322E-01    0.90       0.0  T
   2    -42.4288244  0.847534E-02  0.557E-01    0.78       1.0  T
   3    -42.4402953 -0.114709E-01  0.102E-01    0.83       1.0  T
   4    -42.4402105  0.847807E-04  0.728E-02    0.82       1.0  T
   5    -42.4403124 -0.101864E-03  0.366E-02    0.83       1.0  T
   6    -42.4403396 -0.272206E-04  0.134E-02    0.82       1.5  T
   7    -42.4403436 -0.401868E-05  0.567E-03    0.83       3.5  T
   8    -42.4403443 -0.665805E-06  0.120E-03    0.83      16.7  T
   9    -42.4403443 -0.750696E-08  0.679E-04    0.83      29.5  T
  10    -42.4403443 -0.938780E-08  0.167E-04    0.83     119.5  T
     SCC iter.                  ...        0 min,  0.014 sec
     gradient                   ...        0 min,  0.011 sec
 * total energy  :   -56.8556857 Eh     change       -0.2074360E+00 Eh
   gradient norm :     7.1415444 Eh/α   predicted    -0.1105216E+00 ( -46.72%)
   displ. norm   :     0.5994424 α      lambda       -0.1890738E+01
   maximum displ.:     0.2118480 α      in ANC's #50, #1, #51, ...

........................................................................
.............................. CYCLE    8 ..............................
........................................................................

 iter      E             dE          RMSdq      gap      omega  full diag
   1    -42.4407569 -0.424408E+02  0.120E+00    1.42       0.0  T
   2    -42.3695476  0.712094E-01  0.163E+00    0.96       1.0  T
   3    -42.4698074 -0.100260E+00  0.517E-01    1.36       1.0  T
   4    -42.4705720 -0.764612E-03  0.293E-01    1.20       1.0  T
   5    -42.4733815 -0.280951E-02  0.738E-02    1.23       1.0  T
   6    -42.4734408 -0.592591E-04  0.370E-02    1.23       1.0  T
   7    -42.4734734 -0.325846E-04  0.157E-02    1.24       1.3  T
   8    -42.4734788 -0.544417E-05  0.482E-03    1.24       4.2  T
   9    -42.4734794 -0.578804E-06  0.171E-03    1.24      11.7  T
  10    -42.4734794 -0.368807E-07  0.758E-04    1.24      26.4  T
  11    -42.4734794 -0.626636E-08  0.288E-04    1.24      69.4  T
     SCC iter.                  ...        0 min,  0.015 sec
     gradient                   ...        0 min,  0.011 sec
 * total energy  :   -58.5527244 Eh     change       -0.1697039E+01 Eh
   gradient norm :     5.9571137 Eh/α   predicted    -0.1285080E+01 ( -24.28%)
   displ. norm   :     0.6061924 α      lambda       -0.2925479E+01
   maximum displ.:     0.3886804 α      in ANC's #1, #50, #43, ...

........................................................................
.............................. CYCLE    9 ..............................
........................................................................

 iter      E             dE          RMSdq      gap      omega  full diag
   1    -42.4832698 -0.424833E+02  0.109E+00    1.46       0.0  T
   2    -42.4481333  0.351365E-01  0.116E+00    1.06       1.0  T
   3    -42.4941571 -0.460238E-01  0.630E-01    1.63       1.0  T
   4    -42.5003316 -0.617448E-02  0.298E-01    1.52       1.0  T
   5    -42.5027165 -0.238489E-02  0.615E-02    1.49       1.0  T
   6    -42.5028242 -0.107748E-03  0.194E-02    1.51       1.0  T
   7    -42.5028321 -0.783264E-05  0.102E-02    1.50       2.0  T
   8    -42.5028328 -0.762392E-06  0.378E-03    1.50       5.3  T
   9    -42.5028334 -0.526908E-06  0.120E-03    1.50      16.6  T
  10    -42.5028334 -0.292761E-07  0.444E-04    1.50      45.1  T
  11    -42.5028334 -0.761403E-09  0.220E-04    1.50      91.0  T
     SCC iter.                  ...        0 min,  0.015 sec
     gradient                   ...        0 min,  0.012 sec
 * total energy  :   -58.0462508 Eh     change        0.5064736E+00 Eh
   gradient norm :    18.1380747 Eh/α   predicted    -0.2000251E+01 (-494.94%)
   displ. norm   :     0.3273106 α      lambda       -0.5651944E+01
   maximum displ.:     0.2966401 α      in ANC's #1, #57, #48, ...

........................................................................
.............................. CYCLE   10 ..............................
........................................................................

 iter      E             dE          RMSdq      gap      omega  full diag
   1    -42.4695722 -0.424696E+02  0.623E-01    1.12       0.0  T
   2    -42.4607171  0.885518E-02  0.580E-01    1.48       1.0  T
   3    -42.4692027 -0.848560E-02  0.448E-01    1.16       1.0  T
   4    -42.4735221 -0.431942E-02  0.158E-01    1.25       1.0  T
   5    -42.4740120 -0.489957E-03  0.563E-02    1.27       1.0  T
   6    -42.4740832 -0.712055E-04  0.227E-02    1.28       1.0  T
   7    -42.4740938 -0.105892E-04  0.787E-03    1.28       2.5  T
   8    -42.4740938  0.204184E-07  0.379E-03    1.28       5.3  T
   9    -42.4740944 -0.586488E-06  0.806E-04    1.28      24.8  T
  10    -42.4740944  0.970232E-09  0.473E-04    1.28      42.3  T
     SCC iter.                  ...        0 min,  0.014 sec
     gradient                   ...        0 min,  0.011 sec
 * total energy  :   -59.3235750 Eh     change       -0.1277324E+01 Eh
   gradient norm :     3.4194523 Eh/α   predicted    -0.3128745E+01 ( 144.95%)
   displ. norm   :     0.1562464 α      lambda       -0.2265297E+00
   maximum displ.:     0.0718887 α      in ANC's #50, #47, #1, ...

........................................................................
.............................. CYCLE   11 ..............................
........................................................................

 iter      E             dE          RMSdq      gap      omega  full diag
   1    -42.4789735 -0.424790E+02  0.267E-01    1.39       0.0  T
   2    -42.4785319  0.441536E-03  0.207E-01    1.30       1.0  T
   3    -42.4788552 -0.323286E-03  0.182E-01    1.40       1.0  T
   4    -42.4795102 -0.655008E-03  0.625E-02    1.34       1.0  T
   5    -42.4795829 -0.726240E-04  0.402E-02    1.36       1.0  T
   6    -42.4796315 -0.486516E-04  0.126E-02    1.36       1.6  T
   7    -42.4796348 -0.327709E-05  0.400E-03    1.35       5.0  T
   8    -42.4796349 -0.139257E-06  0.136E-03    1.35      14.7  T
   9    -42.4796350 -0.428334E-07  0.371E-04    1.35      53.9  T
  10    -42.4796350 -0.110180E-08  0.200E-04    1.35     100.0  T
     SCC iter.                  ...        0 min,  0.014 sec
     gradient                   ...        0 min,  0.011 sec
 * total energy  :   -59.4772810 Eh     change       -0.1537059E+00 Eh
   gradient norm :     2.0831400 Eh/α   predicted    -0.1160321E+00 ( -24.51%)
   displ. norm   :     0.2729615 α      lambda       -0.2050686E+00
   maximum displ.:     0.1509157 α      in ANC's #64, #62, #67, ...

........................................................................
.............................. CYCLE   12 ..............................
........................................................................

 iter      E             dE          RMSdq      gap      omega  full diag
   1    -42.4908401 -0.424908E+02  0.506E-01    1.58       0.0  T
   2    -42.4901561  0.684037E-03  0.369E-01    1.44       1.0  T
   3    -42.4923986 -0.224249E-02  0.273E-01    1.55       1.0  T
   4    -42.4934133 -0.101476E-02  0.103E-01    1.49       1.0  T
   5    -42.4936478 -0.234426E-03  0.674E-02    1.52       1.0  T
   6    -42.4938027 -0.154948E-03  0.950E-03    1.51       2.1  T
   7    -42.4938031 -0.405764E-06  0.492E-03    1.51       4.1  T
   8    -42.4938034 -0.258788E-06  0.215E-03    1.51       9.3  T
   9    -42.4938035 -0.121477E-06  0.850E-04    1.51      23.5  T
  10    -42.4938035 -0.123309E-07  0.284E-04    1.51      70.3  T
     SCC iter.                  ...        0 min,  0.014 sec
     gradient                   ...        0 min,  0.011 sec
 * total energy  :   -59.5525857 Eh     change       -0.7530476E-01 Eh
   gradient norm :     0.9637386 Eh/α   predicted    -0.1101745E+00 (  46.30%)
   displ. norm   :     0.0943897 α      lambda       -0.3168704E-01
   maximum displ.:     0.0433374 α      in ANC's #1, #48, #43, ...

........................................................................
.............................. CYCLE   13 ..............................
........................................................................

 iter      E             dE          RMSdq      gap      omega  full diag
   1    -42.5009191 -0.425009E+02  0.102E-01    1.57       0.0  T
   2    -42.5009433 -0.241975E-04  0.725E-02    1.54       1.0  T
   3    -42.5010657 -0.122401E-03  0.379E-02    1.56       1.0  T
   4    -42.5010726 -0.691603E-05  0.125E-02    1.55       1.6  T
   5    -42.5010751 -0.251321E-05  0.857E-03    1.55       2.3  T
   6    -42.5010779 -0.274680E-05  0.192E-03    1.55      10.4  T
   7    -42.5010779  0.836766E-08  0.105E-03    1.55      19.0  T
   8    -42.5010779 -0.166628E-07  0.355E-04    1.55      56.4  T
   9    -42.5010779 -0.421103E-08  0.150E-04    1.55     133.8  T
     SCC iter.                  ...        0 min,  0.013 sec
     gradient                   ...        0 min,  0.011 sec
 * total energy  :   -59.5707345 Eh     change       -0.1814879E-01 Eh
   gradient norm :     0.2798491 Eh/α   predicted    -0.1598560E-01 ( -11.92%)
   displ. norm   :     0.0826455 α      lambda       -0.1014699E-01
   maximum displ.:     0.0241756 α      in ANC's #48, #58, #46, ...

........................................................................
.............................. CYCLE   14 ..............................
........................................................................

 iter      E             dE          RMSdq      gap      omega  full diag
   1    -42.5111895 -0.425112E+02  0.116E-01    1.63       0.0  T
   2    -42.5112047 -0.152043E-04  0.881E-02    1.59       1.0  T
   3    -42.5113247 -0.119942E-03  0.535E-02    1.62       1.0  T
   4    -42.5113078  0.168993E-04  0.326E-02    1.61       1.0  T
   5    -42.5113517 -0.438939E-04  0.121E-02    1.61       1.7  T
   6    -42.5113567 -0.505988E-05  0.300E-03    1.61       6.7  T
   7    -42.5113569 -0.106626E-06  0.132E-03    1.61      15.1  T
   8    -42.5113569 -0.306341E-07  0.515E-04    1.61      38.9  T
   9    -42.5113569 -0.476829E-08  0.190E-04    1.61     105.1  T
     SCC iter.                  ...        0 min,  0.013 sec
     gradient                   ...        0 min,  0.011 sec
 * total energy  :   -59.5789902 Eh     change       -0.8255713E-02 Eh
   gradient norm :     0.5440711 Eh/α   predicted    -0.5109159E-02 ( -38.11%)
   displ. norm   :     0.2486186 α      lambda       -0.3111520E-01
   maximum displ.:     0.0759279 α      in ANC's #11, #29, #27, ...

........................................................................
.............................. CYCLE   15 ..............................
........................................................................

 iter      E             dE          RMSdq      gap      omega  full diag
   1    -42.5420825 -0.425421E+02  0.362E-01    1.81       0.0  T
   2    -42.5422970 -0.214531E-03  0.251E-01    1.69       1.0  T
   3    -42.5425592 -0.262197E-03  0.166E-01    1.79       1.0  T
   4    -42.5428219 -0.262727E-03  0.588E-02    1.75       1.0  T
   5    -42.5429566 -0.134667E-03  0.273E-02    1.74       1.0  T
   6    -42.5429822 -0.255907E-04  0.722E-03    1.75       2.8  T
   7    -42.5429827 -0.511131E-06  0.378E-03    1.75       5.3  T
   8    -42.5429829 -0.176290E-06  0.178E-03    1.75      11.3  T
   9    -42.5429829 -0.523725E-07  0.405E-04    1.75      49.3  T
  10    -42.5429829 -0.189084E-08  0.202E-04    1.75      99.1  T
     SCC iter.                  ...        0 min,  0.014 sec
     gradient                   ...        0 min,  0.011 sec
 * total energy  :   -59.5942995 Eh     change       -0.1530930E-01 Eh
   gradient norm :     1.1639994 Eh/α   predicted    -0.1652174E-01 (   7.92%)
   displ. norm   :     0.1332929 α      lambda       -0.2957070E-01
   maximum displ.:     0.0482911 α      in ANC's #57, #1, #51, ...

........................................................................
.............................. CYCLE   16 ..............................
........................................................................

 iter      E             dE          RMSdq      gap      omega  full diag
   1    -42.5514765 -0.425515E+02  0.183E-01    1.78       0.0  T
   2    -42.5515302 -0.537434E-04  0.107E-01    1.76       1.0  T
   3    -42.5514726  0.575896E-04  0.742E-02    1.79       1.0  T
   4    -42.5515709 -0.982765E-04  0.237E-02    1.77       1.0  T
   5    -42.5515868 -0.158802E-04  0.873E-03    1.77       2.3  T
   6    -42.5515890 -0.221340E-05  0.236E-03    1.77       8.5  T
   7    -42.5515891 -0.837446E-07  0.116E-03    1.77      17.2  T
   8    -42.5515891 -0.334849E-08  0.512E-04    1.77      39.1  T
   9    -42.5515891 -0.841526E-08  0.165E-04    1.77     121.1  T
     SCC iter.                  ...        0 min,  0.013 sec
     gradient                   ...        0 min,  0.012 sec
 * total energy  :   -59.6149325 Eh     change       -0.2063301E-01 Eh
   gradient norm :     0.4549637 Eh/α   predicted    -0.1504811E-01 ( -27.07%)
   displ. norm   :     0.2769688 α      lambda       -0.2609494E-01
   maximum displ.:     0.1005962 α      in ANC's #27, #29, #11, ...

........................................................................
.............................. CYCLE   17 ..............................
........................................................................

 iter      E             dE          RMSdq      gap      omega  full diag
   1    -42.5768518 -0.425769E+02  0.327E-01    1.80       0.0  T
   2    -42.5769793 -0.127449E-03  0.195E-01    1.76       1.0  T
   3    -42.5767542  0.225100E-03  0.110E-01    1.83       1.0  T
   4    -42.5770358 -0.281609E-03  0.256E-02    1.77       1.0  T
   5    -42.5770467 -0.109793E-04  0.153E-02    1.79       1.3  T
   6    -42.5770541 -0.731460E-05  0.427E-03    1.79       4.7  T
   7    -42.5770544 -0.313486E-06  0.188E-03    1.79      10.6  T
   8    -42.5770544 -0.124684E-07  0.555E-04    1.79      36.1  T
   9    -42.5770544 -0.728549E-08  0.209E-04    1.79      95.8  T
     SCC iter.                  ...        0 min,  0.013 sec
     gradient                   ...        0 min,  0.011 sec
 * total energy  :   -59.6355174 Eh     change       -0.2058485E-01 Eh
   gradient norm :     0.3799412 Eh/α   predicted    -0.1404839E-01 ( -31.75%)
   displ. norm   :     0.4116581 α      lambda       -0.3849829E-01
   maximum displ.:     0.1623030 α      in ANC's #27, #29, #11, ...

........................................................................
.............................. CYCLE   18 ..............................
........................................................................

 iter      E             dE          RMSdq      gap      omega  full diag
   1    -42.6065790 -0.426066E+02  0.422E-01    1.65       0.0  T
   2    -42.6067976 -0.218582E-03  0.248E-01    1.76       1.0  T
   3    -42.6062334  0.564251E-03  0.185E-01    1.62       1.0  T
   4    -42.6069216 -0.688234E-03  0.613E-02    1.74       1.0  T
   5    -42.6070383 -0.116733E-03  0.133E-02    1.72       1.5  T
   6    -42.6070424 -0.408871E-05  0.629E-03    1.71       3.2  T
   7    -42.6070431 -0.729334E-06  0.248E-03    1.71       8.1  T
   8    -42.6070432 -0.744578E-07  0.102E-03    1.71      19.6  T
   9    -42.6070432 -0.127359E-07  0.266E-04    1.71      75.2  T
  10    -42.6070432 -0.952426E-09  0.119E-04    1.71     167.6  T
     SCC iter.                  ...        0 min,  0.014 sec
     gradient                   ...        0 min,  0.011 sec
 * total energy  :   -59.6648187 Eh     change       -0.2930130E-01 Eh
   gradient norm :     0.5114699 Eh/α   predicted    -0.2251128E-01 ( -23.17%)
   displ. norm   :     0.4193126 α      lambda       -0.4707461E-01
   maximum displ.:     0.1677800 α      in ANC's #27, #29, #11, ...

........................................................................
.............................. CYCLE   19 ..............................
........................................................................

 iter      E             dE          RMSdq      gap      omega  full diag
   1    -42.6193395 -0.426193E+02  0.506E-01    1.41       0.0  T
   2    -42.6198736 -0.534058E-03  0.362E-01    1.75       1.0  T
   3    -42.6216485 -0.177499E-02  0.211E-01    1.52       1.0  T
   4    -42.6218207 -0.172200E-03  0.899E-02    1.62       1.0  T
   5    -42.6220816 -0.260887E-03  0.218E-02    1.59       1.0  T
   6    -42.6221017 -0.200695E-04  0.626E-03    1.59       3.2  T
   7    -42.6221021 -0.444722E-06  0.281E-03    1.59       7.1  T
   8    -42.6221022 -0.988893E-07  0.951E-04    1.59      21.0  T
   9    -42.6221023 -0.859578E-08  0.455E-04    1.59      44.0  T
     SCC iter.                  ...        0 min,  0.013 sec
     gradient                   ...        0 min,  0.011 sec
 * total energy  :   -59.6912500 Eh     change       -0.2643134E-01 Eh
   gradient norm :     0.4263999 Eh/α   predicted    -0.2767576E-01 (   4.71%)
   displ. norm   :     0.5094824 α      lambda       -0.4008127E-01
   maximum displ.:     0.2051362 α      in ANC's #27, #29, #11, ...

........................................................................
.............................. CYCLE   20 ..............................
........................................................................

 iter      E             dE          RMSdq      gap      omega  full diag
   1    -42.6290917 -0.426291E+02  0.572E-01    1.28       0.0  T
   2    -42.6298627 -0.771032E-03  0.399E-01    1.62       1.0  T
   3    -42.6316935 -0.183085E-02  0.232E-01    1.37       1.0  T
   4    -42.6319061 -0.212617E-03  0.109E-01    1.50       1.0  T
   5    -42.6322779 -0.371761E-03  0.234E-02    1.45       1.0  T
   6    -42.6323002 -0.222898E-04  0.721E-03    1.45       2.8  T
   7    -42.6323004 -0.189087E-06  0.394E-03    1.45       5.1  T
   8    -42.6323007 -0.273919E-06  0.887E-04    1.45      22.5  T
   9    -42.6323007 -0.108280E-07  0.407E-04    1.45      49.1  T
     SCC iter.                  ...        0 min,  0.013 sec
     gradient                   ...        0 min,  0.012 sec
 * total energy  :   -59.6783779 Eh     change        0.1287209E-01 Eh
   gradient norm :     1.4123938 Eh/α   predicted    -0.2524266E-01 (-296.10%)
   displ. norm   :     0.2433576 α      lambda       -0.6926938E-01
   maximum displ.:     0.0897595 α      in ANC's #27, #29, #11, ...
 * RMSD in coord.:     0.9243304 α      energy gain  -0.1577804E+02 Eh

generating ANC from model Hessian ...
Using Lindh-Hessian (1995)
 Shifting diagonal of input Hessian by    6.2509262565806686E-003
 Lowest  eigenvalues of input Hessian
    0.000000    0.000000    0.000000    0.000000    0.000000    0.000000
    0.010000    0.010728    0.012148    0.013110    0.016961    0.017251
    0.018673    0.020873    0.026174    0.029531    0.031054    0.031410
 Highest eigenvalues
    2.185413    2.289490    2.448588    2.525218   17.433045   20.284204


........................................................................
.............................. CYCLE   21 ..............................
........................................................................

 iter      E             dE          RMSdq      gap      omega  full diag
   1    -42.6373032 -0.426373E+02  0.288E-01    1.57       0.0  T
   2    -42.6374401 -0.136941E-03  0.169E-01    1.49       1.0  T
   3    -42.6373207  0.119432E-03  0.118E-01    1.58       1.0  T
   4    -42.6375226 -0.201945E-03  0.432E-02    1.50       1.0  T
   5    -42.6375818 -0.591923E-04  0.885E-03    1.52       2.3  T
   6    -42.6375838 -0.197500E-05  0.408E-03    1.52       4.9  T
   7    -42.6375840 -0.170208E-06  0.148E-03    1.52      13.5  T
   8    -42.6375840 -0.424581E-07  0.313E-04    1.52      63.9  T
   9    -42.6375840 -0.355271E-13  0.149E-04    1.52     134.1  T
     SCC iter.                  ...        0 min,  0.013 sec
     gradient                   ...        0 min,  0.011 sec
 * total energy  :   -59.7129752 Eh     change       -0.3459724E-01 Eh
   gradient norm :     0.1672863 Eh/α   predicted     0.0000000E+00 (-100.00%)
   displ. norm   :     0.4724106 α      lambda       -0.3471410E-01
   maximum displ.:     0.1798946 α      in ANC's #9, #18, #19, ...

........................................................................
.............................. CYCLE   22 ..............................
........................................................................

 iter      E             dE          RMSdq      gap      omega  full diag
   1    -42.6682862 -0.426683E+02  0.482E-01    1.57       0.0  T
   2    -42.6685749 -0.288684E-03  0.261E-01    1.54       1.0  T
   3    -42.6682552  0.319761E-03  0.154E-01    1.60       1.0  T
   4    -42.6686178 -0.362645E-03  0.539E-02    1.52       1.0  T
   5    -42.6687098 -0.920178E-04  0.111E-02    1.55       1.8  T
   6    -42.6687115 -0.162442E-05  0.571E-03    1.55       3.5  T
   7    -42.6687116 -0.171163E-06  0.269E-03    1.55       7.4  T
   8    -42.6687119 -0.235848E-06  0.555E-04    1.55      36.1  T
   9    -42.6687119 -0.743064E-09  0.282E-04    1.55      70.9  T
     SCC iter.                  ...        0 min,  0.013 sec
     gradient                   ...        0 min,  0.011 sec
 * total energy  :   -59.7202589 Eh     change       -0.7283698E-02 Eh
   gradient norm :     1.3122891 Eh/α   predicted    -0.2140929E-01 ( 193.93%)
   displ. norm   :     0.5826634 α      lambda       -0.1043274E+00
   maximum displ.:     0.2344207 α      in ANC's #38, #19, #18, ...

........................................................................
.............................. CYCLE   23 ..............................
........................................................................

 iter      E             dE          RMSdq      gap      omega  full diag
   1    -42.7075444 -0.427075E+02  0.705E-01    1.76       0.0  T
   2    -42.7081768 -0.632406E-03  0.397E-01    1.57       1.0  T
   3    -42.7070258  0.115099E-02  0.304E-01    1.79       1.0  T
   4    -42.7088367 -0.181092E-02  0.983E-02    1.62       1.0  T
   5    -42.7090820 -0.245227E-03  0.247E-02    1.66       1.0  T
   6    -42.7090979 -0.159735E-04  0.104E-02    1.66       1.9  T
   7    -42.7090991 -0.118782E-05  0.393E-03    1.66       5.1  T
   8    -42.7090994 -0.245833E-06  0.109E-03    1.66      18.4  T
   9    -42.7090994 -0.219034E-07  0.504E-04    1.66      39.7  T
  10    -42.7090994 -0.309921E-08  0.179E-04    1.66     111.7  T
     SCC iter.                  ...        0 min,  0.014 sec
     gradient                   ...        0 min,  0.011 sec
 * total energy  :   -59.7170486 Eh     change        0.3210225E-02 Eh
   gradient norm :     1.1870170 Eh/α   predicted    -0.6987347E-01 (*******%)
   displ. norm   :     0.2966609 α      lambda       -0.6667730E-01
   maximum displ.:     0.1193906 α      in ANC's #38, #9, #47, ...

........................................................................
.............................. CYCLE   24 ..............................
........................................................................

 iter      E             dE          RMSdq      gap      omega  full diag
   1    -42.6895000 -0.426895E+02  0.318E-01    1.53       0.0  T
   2    -42.6897618 -0.261844E-03  0.184E-01    1.65       1.0  T
   3    -42.6897211  0.406686E-04  0.140E-01    1.53       1.0  T
   4    -42.6899958 -0.274623E-03  0.570E-02    1.62       1.0  T
   5    -42.6900755 -0.797810E-04  0.150E-02    1.60       1.3  T
   6    -42.6900796 -0.404059E-05  0.780E-03    1.59       2.6  T
   7    -42.6900807 -0.111805E-05  0.276E-03    1.59       7.2  T
   8    -42.6900809 -0.168882E-06  0.937E-04    1.59      21.3  T
   9    -42.6900809 -0.492774E-08  0.347E-04    1.59      57.7  T
     SCC iter.                  ...        0 min,  0.013 sec
     gradient                   ...        0 min,  0.011 sec
 * total energy  :   -59.7500448 Eh     change       -0.3299618E-01 Eh
   gradient norm :     0.1642257 Eh/α   predicted    -0.3627275E-01 (   9.93%)
   displ. norm   :     0.3672937 α      lambda       -0.8370048E-02
   maximum displ.:     0.1754392 α      in ANC's #7, #4, #12, ...

........................................................................
.............................. CYCLE   25 ..............................
........................................................................

 iter      E             dE          RMSdq      gap      omega  full diag
   1    -42.6972754 -0.426973E+02  0.217E-01    1.57       0.0  T
   2    -42.6973144 -0.390263E-04  0.131E-01    1.62       1.0  T
   3    -42.6971769  0.137597E-03  0.866E-02    1.55       1.0  T
   4    -42.6973439 -0.167057E-03  0.241E-02    1.60       1.0  T
   5    -42.6973649 -0.210010E-04  0.495E-03    1.59       4.0  T
   6    -42.6973651 -0.164135E-06  0.292E-03    1.59       6.8  T
   7    -42.6973653 -0.185919E-06  0.884E-04    1.59      22.6  T
   8    -42.6973653 -0.155368E-07  0.298E-04    1.59      67.0  T
     SCC iter.                  ...        0 min,  0.011 sec
     gradient                   ...        0 min,  0.012 sec
 * total energy  :   -59.7554226 Eh     change       -0.5377801E-02 Eh
   gradient norm :     0.1700398 Eh/α   predicted    -0.4749618E-02 ( -11.68%)
   displ. norm   :     0.5635816 α      lambda       -0.7967828E-02
   maximum displ.:     0.2867413 α      in ANC's #7, #4, #9, ...

........................................................................
.............................. CYCLE   26 ..............................
........................................................................

 iter      E             dE          RMSdq      gap      omega  full diag
   1    -42.6945590 -0.426946E+02  0.216E-01    1.60       0.0  T
   2    -42.6945901 -0.310380E-04  0.129E-01    1.61       1.0  T
   3    -42.6945002  0.898746E-04  0.659E-02    1.57       1.0  T
   4    -42.6945959 -0.957123E-04  0.201E-02    1.61       1.0  T
   5    -42.6946111 -0.152127E-04  0.552E-03    1.60       3.6  T
   6    -42.6946113 -0.180150E-06  0.177E-03    1.60      11.3  T
   7    -42.6946113 -0.407968E-07  0.752E-04    1.60      26.6  T
   8    -42.6946113 -0.580499E-08  0.304E-04    1.60      65.8  T
     SCC iter.                  ...        0 min,  0.012 sec
     gradient                   ...        0 min,  0.011 sec
 * total energy  :   -59.7612081 Eh     change       -0.5785440E-02 Eh
   gradient norm :     0.0552659 Eh/α   predicted    -0.5249327E-02 (  -9.27%)
   displ. norm   :     0.4462003 α      lambda       -0.4626005E-02
   maximum displ.:     0.2356330 α      in ANC's #7, #4, #1, ...

........................................................................
.............................. CYCLE   27 ..............................
........................................................................

 iter      E             dE          RMSdq      gap      omega  full diag
   1    -42.6975982 -0.426976E+02  0.165E-01    1.62       0.0  T
   2    -42.6976169 -0.187145E-04  0.939E-02    1.61       1.0  T
   3    -42.6975707  0.461841E-04  0.477E-02    1.61       1.0  T
   4    -42.6976224 -0.517011E-04  0.138E-02    1.61       1.5  T
   5    -42.6976290 -0.660926E-05  0.408E-03    1.61       4.9  T
   6    -42.6976290 -0.330533E-07  0.237E-03    1.61       8.4  T
   7    -42.6976292 -0.127119E-06  0.736E-04    1.61      27.2  T
   8    -42.6976292 -0.775059E-08  0.334E-04    1.61      59.9  T
     SCC iter.                  ...        0 min,  0.011 sec
     gradient                   ...        0 min,  0.011 sec
 * total energy  :   -59.7639557 Eh     change       -0.2747630E-02 Eh
   gradient norm :     0.1860406 Eh/α   predicted    -0.2773521E-02 (   0.94%)
   displ. norm   :     0.3190849 α      lambda       -0.2657628E-02
   maximum displ.:     0.1706975 α      in ANC's #7, #4, #5, ...

........................................................................
.............................. CYCLE   28 ..............................
........................................................................

 iter      E             dE          RMSdq      gap      omega  full diag
   1    -42.6997426 -0.426997E+02  0.171E-01    1.62       0.0  T
   2    -42.6997587 -0.161485E-04  0.986E-02    1.61       1.0  T
   3    -42.6997195  0.391553E-04  0.436E-02    1.62       1.0  T
   4    -42.6997645 -0.449096E-04  0.971E-03    1.61       2.1  T
   5    -42.6997676 -0.309994E-05  0.270E-03    1.61       7.4  T
   6    -42.6997676 -0.152022E-07  0.127E-03    1.61      15.7  T
   7    -42.6997676 -0.949362E-08  0.716E-04    1.61      27.9  T
   8    -42.6997676 -0.159489E-07  0.210E-04    1.61      95.4  T
     SCC iter.                  ...        0 min,  0.011 sec
     gradient                   ...        0 min,  0.011 sec
 * total energy  :   -59.7653922 Eh     change       -0.1436523E-02 Eh
   gradient norm :     0.1053218 Eh/α   predicted    -0.1464120E-02 (   1.92%)
   displ. norm   :     0.2639165 α      lambda       -0.2842167E-02
   maximum displ.:     0.1081384 α      in ANC's #1, #7, #11, ...

........................................................................
.............................. CYCLE   29 ..............................
........................................................................

 iter      E             dE          RMSdq      gap      omega  full diag
   1    -42.7120019 -0.427120E+02  0.138E-01    1.63       0.0  T
   2    -42.7120304 -0.285321E-04  0.864E-02    1.62       1.0  T
   3    -42.7120043  0.261204E-04  0.418E-02    1.63       1.0  T
   4    -42.7120342 -0.299395E-04  0.166E-02    1.63       1.2  T
   5    -42.7120443 -0.101187E-04  0.422E-03    1.62       4.7  T
   6    -42.7120445 -0.155021E-06  0.270E-03    1.63       7.4  T
   7    -42.7120446 -0.894276E-07  0.947E-04    1.62      21.1  T
   8    -42.7120446 -0.247165E-07  0.223E-04    1.62      89.8  T
     SCC iter.                  ...        0 min,  0.012 sec
     gradient                   ...        0 min,  0.011 sec
 * total energy  :   -59.7669041 Eh     change       -0.1511884E-02 Eh
   gradient norm :     0.0473668 Eh/α   predicted    -0.1520073E-02 (   0.54%)
   displ. norm   :     0.2409024 α      lambda       -0.9572908E-03
   maximum displ.:     0.1444282 α      in ANC's #7, #5, #1, ...

........................................................................
.............................. CYCLE   30 ..............................
........................................................................

 iter      E             dE          RMSdq      gap      omega  full diag
   1    -42.7092277 -0.427092E+02  0.881E-02    1.62       0.0  T
   2    -42.7092243  0.338175E-05  0.528E-02    1.63       1.0  T
   3    -42.7091647  0.596405E-04  0.484E-02    1.60       1.0  T
   4    -42.7092383 -0.736290E-04  0.306E-03    1.63       6.5  T
   5    -42.7092384 -0.123410E-06  0.158E-03    1.62      12.6  T
   6    -42.7092384 -0.169792E-07  0.509E-04    1.62      39.3  T
   7    -42.7092384 -0.355269E-08  0.268E-04    1.62      74.6  T
     SCC iter.                  ...        0 min,  0.010 sec
     gradient                   ...        0 min,  0.011 sec
 * total energy  :   -59.7675542 Eh     change       -0.6500964E-03 Eh
   gradient norm :     0.0509873 Eh/α   predicted    -0.5064265E-03 ( -22.10%)
   displ. norm   :     0.2421559 α      lambda       -0.9652476E-03
   maximum displ.:     0.1379185 α      in ANC's #1, #7, #5, ...

........................................................................
.............................. CYCLE   31 ..............................
........................................................................

 iter      E             dE          RMSdq      gap      omega  full diag
   1    -42.7087912 -0.427088E+02  0.951E-02    1.61       0.0  T
   2    -42.7087862  0.501911E-05  0.580E-02    1.63       1.0  T
   3    -42.7087294  0.567273E-04  0.522E-02    1.60       1.0  T
   4    -42.7088103 -0.808210E-04  0.566E-03    1.62       3.5  T
   5    -42.7088109 -0.612905E-06  0.176E-03    1.62      11.3  T
   6    -42.7088109 -0.407697E-07  0.113E-03    1.62      17.7  T
   7    -42.7088109 -0.212393E-07  0.286E-04    1.62      70.0  T
   8    -42.7088109 -0.667072E-09  0.135E-04    1.62     148.6  T
     SCC iter.                  ...        0 min,  0.011 sec
     gradient                   ...        0 min,  0.011 sec
 * total energy  :   -59.7681672 Eh     change       -0.6129697E-03 Eh
   gradient norm :     0.0212620 Eh/α   predicted    -0.5109499E-03 ( -16.64%)
   displ. norm   :     0.2230940 α      lambda       -0.6183921E-03
   maximum displ.:     0.1076030 α      in ANC's #7, #11, #1, ...

........................................................................
.............................. CYCLE   32 ..............................
........................................................................

 iter      E             dE          RMSdq      gap      omega  full diag
   1    -42.7103854 -0.427104E+02  0.103E-01    1.62       0.0  T
   2    -42.7103858 -0.393705E-06  0.630E-02    1.63       1.0  T
   3    -42.7103076  0.782152E-04  0.510E-02    1.60       1.0  T
   4    -42.7104025 -0.949375E-04  0.913E-03    1.63       2.2  T
   5    -42.7104043 -0.179896E-05  0.191E-03    1.62      10.5  T
   6    -42.7104043 -0.159429E-07  0.130E-03    1.62      15.4  T
   7    -42.7104043 -0.245720E-07  0.335E-04    1.62      59.7  T
   8    -42.7104043 -0.256908E-08  0.125E-04    1.62     159.9  T
     SCC iter.                  ...        0 min,  0.012 sec
     gradient                   ...        0 min,  0.011 sec
 * total energy  :   -59.7685422 Eh     change       -0.3750136E-03 Eh
   gradient norm :     0.0705066 Eh/α   predicted    -0.3245887E-03 ( -13.45%)
   displ. norm   :     0.1813980 α      lambda       -0.6827909E-03
   maximum displ.:     0.0868171 α      in ANC's #4, #3, #2, ...

........................................................................
.............................. CYCLE   33 ..............................
........................................................................

 iter      E             dE          RMSdq      gap      omega  full diag
   1    -42.7118768 -0.427119E+02  0.874E-02    1.62       0.0  T
   2    -42.7118803 -0.355328E-05  0.526E-02    1.63       1.0  T
   3    -42.7118455  0.348273E-04  0.423E-02    1.61       1.0  T
   4    -42.7118994 -0.538446E-04  0.111E-02    1.63       1.8  T
   5    -42.7119021 -0.276912E-05  0.235E-03    1.62       8.5  T
   6    -42.7119022 -0.666616E-07  0.153E-03    1.62      13.1  T
   7    -42.7119022 -0.349126E-07  0.294E-04    1.62      68.0  T
   8    -42.7119022 -0.131239E-08  0.124E-04    1.62     161.9  T
     SCC iter.                  ...        0 min,  0.011 sec
     gradient                   ...        0 min,  0.011 sec
 * total energy  :   -59.7689442 Eh     change       -0.4020214E-03 Eh
   gradient norm :     0.0185590 Eh/α   predicted    -0.3526330E-03 ( -12.28%)
   displ. norm   :     0.1861545 α      lambda       -0.5618461E-03
   maximum displ.:     0.0683844 α      in ANC's #4, #2, #3, ...

........................................................................
.............................. CYCLE   34 ..............................
........................................................................

 iter      E             dE          RMSdq      gap      omega  full diag
   1    -42.7128443 -0.427128E+02  0.937E-02    1.65       0.0  T
   2    -42.7128584 -0.140623E-04  0.566E-02    1.63       1.0  T
   3    -42.7128617 -0.334062E-05  0.401E-02    1.64       1.0  T
   4    -42.7128891 -0.273938E-04  0.119E-02    1.64       1.7  T
   5    -42.7128930 -0.389707E-05  0.318E-03    1.63       6.3  T
   6    -42.7128933 -0.274885E-06  0.131E-03    1.64      15.3  T
   7    -42.7128933 -0.152934E-07  0.271E-04    1.64      73.7  T
   8    -42.7128933 -0.150358E-08  0.101E-04    1.64     198.1  T
     SCC iter.                  ...        0 min,  0.011 sec
     gradient                   ...        0 min,  0.011 sec
 * total energy  :   -59.7692538 Eh     change       -0.3095619E-03 Eh
   gradient norm :     0.0785655 Eh/α   predicted    -0.2906742E-03 (  -6.10%)
   displ. norm   :     0.1538150 α      lambda       -0.5546345E-03
   maximum displ.:     0.0825063 α      in ANC's #1, #2, #5, ...

........................................................................
.............................. CYCLE   35 ..............................
........................................................................

 iter      E             dE          RMSdq      gap      omega  full diag
   1    -42.7139064 -0.427139E+02  0.829E-02    1.67       0.0  T
   2    -42.7139152 -0.883625E-05  0.532E-02    1.63       1.0  T
   3    -42.7139137  0.154100E-05  0.353E-02    1.67       1.0  T
   4    -42.7139332 -0.195233E-04  0.880E-03    1.65       2.3  T
   5    -42.7139359 -0.273031E-05  0.256E-03    1.65       7.8  T
   6    -42.7139361 -0.201678E-06  0.102E-03    1.65      19.6  T
   7    -42.7139361 -0.732248E-08  0.210E-04    1.65      95.0  T
   8    -42.7139361 -0.372012E-09  0.997E-05    1.65     200.6  T
     SCC iter.                  ...        0 min,  0.011 sec
     gradient                   ...        0 min,  0.011 sec
 * total energy  :   -59.7696150 Eh     change       -0.3612341E-03 Eh
   gradient norm :     0.0231147 Eh/α   predicted    -0.2838829E-03 ( -21.41%)
   displ. norm   :     0.1664770 α      lambda       -0.4139374E-03
   maximum displ.:     0.0826576 α      in ANC's #2, #1, #12, ...

........................................................................
.............................. CYCLE   36 ..............................
........................................................................

 iter      E             dE          RMSdq      gap      omega  full diag
   1    -42.7145295 -0.427145E+02  0.892E-02    1.68       0.0  T
   2    -42.7145394 -0.981754E-05  0.550E-02    1.65       1.0  T
   3    -42.7145289  0.104317E-04  0.363E-02    1.68       1.0  T
   4    -42.7145532 -0.242407E-04  0.790E-03    1.66       2.5  T
   5    -42.7145553 -0.212133E-05  0.237E-03    1.67       8.4  T
   6    -42.7145554 -0.145242E-06  0.115E-03    1.67      17.3  T
   7    -42.7145555 -0.153061E-07  0.199E-04    1.67     100.5  T
   8    -42.7145555 -0.381462E-09  0.908E-05    1.67     220.2  T
     SCC iter.                  ...        0 min,  0.011 sec
     gradient                   ...        0 min,  0.011 sec
 * total energy  :   -59.7699046 Eh     change       -0.2895598E-03 Eh
   gradient norm :     0.0396798 Eh/α   predicted    -0.2127271E-03 ( -26.53%)
   displ. norm   :     0.1828711 α      lambda       -0.3947736E-03
   maximum displ.:     0.1082781 α      in ANC's #1, #2, #8, ...

........................................................................
.............................. CYCLE   37 ..............................
........................................................................

 iter      E             dE          RMSdq      gap      omega  full diag
   1    -42.7144576 -0.427145E+02  0.833E-02    1.71       0.0  T
   2    -42.7144641 -0.644663E-05  0.517E-02    1.68       1.0  T
   3    -42.7144523  0.117528E-04  0.370E-02    1.71       1.0  T
   4    -42.7144776 -0.253089E-04  0.996E-03    1.68       2.0  T
   5    -42.7144811 -0.347985E-05  0.233E-03    1.69       8.6  T
   6    -42.7144812 -0.126912E-06  0.121E-03    1.69      16.6  T
   7    -42.7144812 -0.138170E-07  0.278E-04    1.69      71.9  T
   8    -42.7144812 -0.107023E-08  0.132E-04    1.69     151.2  T
     SCC iter.                  ...        0 min,  0.011 sec
     gradient                   ...        0 min,  0.011 sec
 * total energy  :   -59.7701704 Eh     change       -0.2658959E-03 Eh
   gradient norm :     0.0218858 Eh/α   predicted    -0.2039943E-03 ( -23.28%)
   displ. norm   :     0.2043713 α      lambda       -0.2908266E-03
   maximum displ.:     0.0961512 α      in ANC's #1, #2, #8, ...

........................................................................
.............................. CYCLE   38 ..............................
........................................................................

 iter      E             dE          RMSdq      gap      omega  full diag
   1    -42.7136758 -0.427137E+02  0.972E-02    1.73       0.0  T
   2    -42.7136869 -0.111183E-04  0.601E-02    1.70       1.0  T
   3    -42.7136700  0.168940E-04  0.377E-02    1.73       1.0  T
   4    -42.7137001 -0.301183E-04  0.823E-03    1.71       2.4  T
   5    -42.7137023 -0.219625E-05  0.249E-03    1.71       8.0  T
   6    -42.7137025 -0.128865E-06  0.128E-03    1.71      15.6  T
   7    -42.7137025 -0.176689E-07  0.309E-04    1.71      64.7  T
   8    -42.7137025 -0.146434E-08  0.146E-04    1.71     136.9  T
     SCC iter.                  ...        0 min,  0.011 sec
     gradient                   ...        0 min,  0.011 sec
 * total energy  :   -59.7703284 Eh     change       -0.1579124E-03 Eh
   gradient norm :     0.0723756 Eh/α   predicted    -0.1515012E-03 (  -4.06%)
   displ. norm   :     0.1540723 α      lambda       -0.3629711E-03
   maximum displ.:     0.1067638 α      in ANC's #1, #8, #12, ...

........................................................................
.............................. CYCLE   39 ..............................
........................................................................

 iter      E             dE          RMSdq      gap      omega  full diag
   1    -42.7142343 -0.427142E+02  0.662E-02    1.75       0.0  T
   2    -42.7142389 -0.460634E-05  0.417E-02    1.72       1.0  T
   3    -42.7142297  0.920651E-05  0.284E-02    1.75       1.0  T
   4    -42.7142476 -0.178995E-04  0.881E-03    1.73       2.3  T
   5    -42.7142499 -0.226375E-05  0.220E-03    1.73       9.1  T
   6    -42.7142499 -0.522876E-07  0.124E-03    1.73      16.1  T
   7    -42.7142500 -0.168990E-07  0.372E-04    1.73      53.8  T
   8    -42.7142500 -0.306090E-08  0.173E-04    1.73     115.7  T
     SCC iter.                  ...        0 min,  0.011 sec
     gradient                   ...        0 min,  0.011 sec
 * total energy  :   -59.7704539 Eh     change       -0.1255750E-03 Eh
   gradient norm :     0.0222250 Eh/α   predicted    -0.1857945E-03 (  47.95%)
   displ. norm   :     0.1006630 α      lambda       -0.2040195E-03
   maximum displ.:     0.0454049 α      in ANC's #11, #7, #1, ...

........................................................................
.............................. CYCLE   40 ..............................
........................................................................

 iter      E             dE          RMSdq      gap      omega  full diag
   1    -42.7144744 -0.427145E+02  0.564E-02    1.75       0.0  T
   2    -42.7144779 -0.353582E-05  0.338E-02    1.74       1.0  T
   3    -42.7144727  0.515576E-05  0.224E-02    1.75       1.0  T
   4    -42.7144833 -0.105387E-04  0.330E-03    1.74       6.1  T
   5    -42.7144836 -0.305989E-06  0.882E-04    1.74      22.7  T
   6    -42.7144836 -0.943388E-10  0.299E-04    1.74      66.9  T
     SCC iter.                  ...        0 min,  0.009 sec
     gradient                   ...        0 min,  0.011 sec
 * total energy  :   -59.7705828 Eh     change       -0.1288938E-03 Eh
   gradient norm :     0.0258054 Eh/α   predicted    -0.1030546E-03 ( -20.05%)
   displ. norm   :     0.0943190 α      lambda       -0.1461784E-03
   maximum displ.:     0.0598930 α      in ANC's #1, #11, #8, ...

........................................................................
.............................. CYCLE   41 ..............................
........................................................................

 iter      E             dE          RMSdq      gap      omega  full diag
   1    -42.7150958 -0.427151E+02  0.593E-02    1.76       0.0  T
   2    -42.7150999 -0.411985E-05  0.359E-02    1.75       1.0  T
   3    -42.7150941  0.580926E-05  0.227E-02    1.76       1.0  T
   4    -42.7151051 -0.109661E-04  0.382E-03    1.75       5.2  T
   5    -42.7151055 -0.404742E-06  0.109E-03    1.75      18.3  T
   6    -42.7151055  0.876022E-08  0.831E-04    1.75      24.1  T
   7    -42.7151055 -0.217533E-07  0.167E-04    1.75     120.1  T
     SCC iter.                  ...        0 min,  0.010 sec
     gradient                   ...        0 min,  0.011 sec
 * total energy  :   -59.7706810 Eh     change       -0.9816794E-04 Eh
   gradient norm :     0.0393523 Eh/α   predicted    -0.7374159E-04 ( -24.88%)
   displ. norm   :     0.1081521 α      lambda       -0.1153273E-03
   maximum displ.:     0.0811556 α      in ANC's #1, #8, #11, ...

........................................................................
.............................. CYCLE   42 ..............................
........................................................................

 iter      E             dE          RMSdq      gap      omega  full diag
   1    -42.7160310 -0.427160E+02  0.560E-02    1.77       0.0  T
   2    -42.7160345 -0.357258E-05  0.340E-02    1.76       1.0  T
   3    -42.7160293  0.526885E-05  0.217E-02    1.77       1.0  T
   4    -42.7160388 -0.951846E-05  0.447E-03    1.76       4.5  T
   5    -42.7160394 -0.578340E-06  0.150E-03    1.76      13.4  T
   6    -42.7160394 -0.437683E-07  0.796E-04    1.76      25.1  T
   7    -42.7160394 -0.110531E-07  0.169E-04    1.76     118.6  T
     SCC iter.                  ...        0 min,  0.010 sec
     gradient                   ...        0 min,  0.011 sec
 * total energy  :   -59.7707647 Eh     change       -0.8370233E-04 Eh
   gradient norm :     0.0248683 Eh/α   predicted    -0.5834150E-04 ( -30.30%)
   displ. norm   :     0.1960611 α      lambda       -0.1181526E-03
   maximum displ.:     0.1493411 α      in ANC's #1, #8, #11, ...
 * RMSD in coord.:     0.6185039 α      energy gain  -0.9238677E-01 Eh

generating ANC from model Hessian ...
Using Lindh-Hessian (1995)
 Shifting diagonal of input Hessian by    6.4297177745559105E-003
 Lowest  eigenvalues of input Hessian
    0.000000    0.000000    0.000000    0.000000    0.000000    0.000000
    0.010000    0.011494    0.012159    0.014900    0.017371    0.017842
    0.020884    0.025017    0.027893    0.033070    0.034203    0.040448
 Highest eigenvalues
    2.190376    2.378866    2.388703    2.512803   18.179319   21.697896


........................................................................
.............................. CYCLE   43 ..............................
........................................................................

 iter      E             dE          RMSdq      gap      omega  full diag
   1    -42.7158551 -0.427159E+02  0.912E-02    1.79       0.0  T
   2    -42.7158614 -0.631543E-05  0.547E-02    1.77       1.0  T
   3    -42.7158402  0.212203E-04  0.350E-02    1.80       1.0  T
   4    -42.7158702 -0.300919E-04  0.620E-03    1.78       3.2  T
   5    -42.7158714 -0.114239E-05  0.230E-03    1.78       8.7  T
   6    -42.7158715 -0.949207E-07  0.122E-03    1.78      16.4  T
   7    -42.7158715 -0.204228E-07  0.259E-04    1.78      77.2  T
   8    -42.7158715 -0.484306E-09  0.151E-04    1.78     132.7  T
     SCC iter.                  ...        0 min,  0.012 sec
     gradient                   ...        0 min,  0.011 sec
 * total energy  :   -59.7708420 Eh     change       -0.7731391E-04 Eh
   gradient norm :     0.0339039 Eh/α   predicted     0.0000000E+00 (-100.00%)
   displ. norm   :     0.0342546 α      lambda       -0.7699424E-03
   maximum displ.:     0.0133470 α      in ANC's #63, #1, #44, ...

........................................................................
.............................. CYCLE   44 ..............................
........................................................................

 iter      E             dE          RMSdq      gap      omega  full diag
   1    -42.7144468 -0.427144E+02  0.305E-02    1.78       0.0  T
   2    -42.7144488 -0.198026E-05  0.162E-02    1.78       1.2  T
   3    -42.7144485  0.213308E-06  0.725E-03    1.78       2.8  T
   4    -42.7144490 -0.479104E-06  0.283E-03    1.78       7.1  T
   5    -42.7144492 -0.151674E-06  0.117E-03    1.78      17.0  T
   6    -42.7144492 -0.352003E-09  0.647E-04    1.78      30.9  T
   7    -42.7144492 -0.696815E-08  0.219E-04    1.78      91.2  T
     SCC iter.                  ...        0 min,  0.010 sec
     gradient                   ...        0 min,  0.011 sec
 * total energy  :   -59.7618109 Eh     change        0.9031063E-02 Eh
   gradient norm :     0.9042965 Eh/α   predicted    -0.3854231E-03 (-104.27%)
   displ. norm   :     0.0249981 α      lambda       -0.1851676E-01
   maximum displ.:     0.0133178 α      in ANC's #63, #44, #35, ...

........................................................................
.............................. CYCLE   45 ..............................
........................................................................

 iter      E             dE          RMSdq      gap      omega  full diag
   1    -42.7163859 -0.427164E+02  0.243E-02    1.78       0.0  T
   2    -42.7163870 -0.103151E-05  0.129E-02    1.78       1.5  T
   3    -42.7163869  0.637439E-07  0.539E-03    1.78       3.7  T
   4    -42.7163871 -0.216285E-06  0.212E-03    1.78       9.4  T
   5    -42.7163872 -0.583473E-07  0.117E-03    1.78      17.0  T
   6    -42.7163872 -0.190055E-07  0.516E-04    1.78      38.8  T
   7    -42.7163872 -0.385930E-08  0.128E-04    1.78     156.3  T
     SCC iter.                  ...        0 min,  0.010 sec
     gradient                   ...        0 min,  0.011 sec
 * total energy  :   -59.7708850 Eh     change       -0.9074003E-02 Eh
   gradient norm :     0.0044992 Eh/α   predicted    -0.9264185E-02 (   2.10%)
   displ. norm   :     0.0165187 α      lambda       -0.1244109E-04
   maximum displ.:     0.0112811 α      in ANC's #1, #5, #7, ...

........................................................................
.............................. CYCLE   46 ..............................
........................................................................

 iter      E             dE          RMSdq      gap      omega  full diag
   1    -42.7165213 -0.427165E+02  0.629E-03    1.78       0.0  T
   2    -42.7165214 -0.847015E-07  0.353E-03    1.78       5.7  T
   3    -42.7165214  0.483947E-08  0.189E-03    1.78      10.6  T
   4    -42.7165214 -0.174741E-07  0.562E-04    1.78      35.6  T
   5    -42.7165215 -0.915767E-08  0.199E-04    1.78     100.3  T
     SCC iter.                  ...        0 min,  0.007 sec
     gradient                   ...        0 min,  0.011 sec
 * total energy  :   -59.7708959 Eh     change       -0.1099213E-04 Eh
   gradient norm :     0.0038654 Eh/α   predicted    -0.6247065E-05 ( -43.17%)
   displ. norm   :     0.0653921 α      lambda       -0.3687863E-04
   maximum displ.:     0.0456843 α      in ANC's #1, #5, #7, ...

   *** GEOMETRY OPTIMIZATION CONVERGED AFTER 46 ITERATIONS ***

------------------------------------------------------------------------
 total energy gain   :       -15.8705550 Eh    -9958.9236 kcal/mol
 total RMSD          :         1.1034307 a0        0.5839 Å
 total power (kW/mol):      -905.8290551 (step)********** (real)
------------------------------------------------------------------------

 ANCopt (total)                0 d,  0 h,  0 min,  1.365 sec
 optimizer setup                ...        0 min,  0.002 sec (  0.133%)
 model hessian                  ...        0 min,  0.020 sec (  1.463%)
 ANC generation                 ...        0 min,  0.003 sec (  0.212%)
 coordinate transformation      ...        0 min,  0.000 sec (  0.034%)
 single point calculation       ...        0 min,  1.327 sec ( 97.169%)
 optimization log               ...        0 min,  0.004 sec (  0.281%)
 hessian update                 ...        0 min,  0.001 sec (  0.043%)
 rational function              ...        0 min,  0.007 sec (  0.513%)

================
 final structure:
================
25
 xtb: 6.6.1 (8d0f1dd)
C            3.24093566308284        1.20429869020818       -0.08227144575015
N            2.20881839296956        0.28480961502509        0.15575027665178
C            3.49033219167672       -0.30768518592505       -0.18890989346054
N            1.17891794375210       -2.20173257004740       -0.03836566408287
C            0.36045006208568       -1.22153538187815       -0.00593779329532
C            0.90754061936873        0.11262629778119        0.06845644892425
C            0.05099886331920        1.29183931879656        0.10966976580165
O            0.49721110200346        2.42317450568622        0.15105112896051
N           -1.30691713071866        1.02796047066299        0.09438057093844
C           -2.22954840030432        2.14475685852394        0.14746596750393
C           -1.87845962245145       -0.23090602433848        0.00988056628464
O           -3.07771067721926       -0.36625786629168       -0.01582323127827
N           -1.02100060813376       -1.32028221309031       -0.04732047495095
C           -1.62840506135578       -2.63308681124532       -0.15799174862185
H            3.60163006397059        1.76610946107204        0.77126915382765
H            3.55247593124340       -0.52011448207883       -0.55092196859622
H            3.18304680336403        1.79291294055565       -0.99314037641896
H            3.95976404764406       -0.66163378269954        0.77087846064140
H           -1.65425501306079        3.05927090199777        0.28598886554192
H           -2.80576473073322        2.20135024872679       -0.77890900712316
H           -2.93197910840222        2.00556334114356        0.97157933762605
H           -1.40813810473838       -3.23399543517962        0.72725316988777
H           -1.26498421008898       -3.14532182796072       -1.05125646006882
H           -2.70777199727202       -2.50199598987061       -0.23590797879581
H            0.84324449409842       -3.15188653797438       -0.08569605224651

 Bond Distances (Angstroems)
 ---------------------------
C1-N2=1.4026         C1-C3=1.5361         C1-H15=1.0836        C1-H17=1.0860        N2-C1=1.4026         N2-C3=1.4533         
N2-C6=1.3155         C3-C1=1.5361         C3-N2=1.4533         C3-H16=0.4243        C3-H18=1.1255        N4-C5=1.2774         
N4-H25=1.0088        C5-N4=1.2774         C5-C6=1.4439         C5-N13=1.3856        C6-N2=1.3155         C6-C5=1.4439         
C6-C7=1.4580         C7-C6=1.4580         C7-O8=1.2169         C7-N9=1.3834         O8-C7=1.2169         N9-C7=1.3834         
N9-C10=1.4496        N9-C11=1.3851        C10-N9=1.4496        C10-H19=1.0893       C10-H20=1.0924       C10-H21=1.0918       
C11-N9=1.3851        C11-O12=1.2071       C11-N13=1.3875       O12-C11=1.2071       N13-C5=1.3856        N13-C11=1.3875       
N13-C14=1.4507       C14-N13=1.4507       C14-H22=1.0924       C14-H23=1.0920       C14-H24=1.0901       H15-C1=1.0836        
H16-C3=0.4243        H17-C1=1.0860        H18-C3=1.1255        H19-C10=1.0893       H20-C10=1.0924       H21-C10=1.0918       
H22-C14=1.0924       H23-C14=1.0920       H24-C14=1.0901       H25-N4=1.0088        
 C  H  Rav=1.0267 sigma=0.2011  Rmin=0.4243  Rmax=1.1255    10
 C  C  Rav=1.4794 sigma=0.0406  Rmin=1.4439  Rmax=1.5361     3
 N  H  Rav=1.0088 sigma=0.0000  Rmin=1.0088  Rmax=1.0088     1
 N  C  Rav=1.3891 sigma=0.0545  Rmin=1.2774  Rmax=1.4533    10
 O  C  Rav=1.2120 sigma=0.0049  Rmin=1.2071  Rmax=1.2169     2

 selected bond angles (degree)
 --------------------
C3-C1-N2= 59.07                H15-C1-N2=116.82               H15-C1-C3=120.73               H17-C1-N2=117.28               
H17-C1-C3=118.94               H17-C1-H15=113.41              C3-N2-C1= 65.05                C6-N2-C1=143.36                
C6-N2-C3=143.43                N2-C3-C1= 55.88                H16-C3-C1=125.15               H16-C3-N2=122.38               
H18-C3-C1=108.54               H18-C3-N2=107.08               H18-C3-H16=120.60              H25-N4-C5=120.71               
C6-C5-N4=117.88                N13-C5-N4=125.69               N13-C5-C6=116.43               C5-C6-N2=119.94                
C7-C6-N2=118.25                C7-C6-C5=121.75                O8-C7-C6=122.51                N9-C7-C6=114.96                
N9-C7-O8=122.52                C10-N9-C7=118.52               C11-N9-C7=125.38               C11-N9-C10=116.09              
H19-C10-N9=108.38              H20-C10-N9=110.16              H20-C10-H19=110.06             H21-C10-N9=109.81              
H21-C10-H19=110.54             H21-C10-H20=107.90             

 selected dihedral angles (degree)
 ---------------------------------
C3-N2-C1-H15=248.62           C3-N2-C1-H17=109.01           C6-N2-C1-C3=210.82            C6-N2-C1-H15= 99.44           
C6-N2-C1-H17=319.83           N2-C3-C1-H15=104.81           N2-C3-C1-H17=253.78           H16-C3-C1-N2=108.31           
H16-C3-C1-H15=213.12          H16-C3-C1-H17=  2.09          H18-C3-C1-N2=261.55           H18-C3-C1-H15=  6.36          
H18-C3-C1-H17=155.33          C1-C3-N2-C6=149.12            H16-C3-N2-C1=246.80           H16-C3-N2-C6= 35.93           
H18-C3-N2-C1=101.17           H18-C3-N2-C6=250.29           C6-C5-N4-H25=179.69           N13-C5-N4-H25=359.11          
C5-C6-N2-C1=156.79            C5-C6-N2-C3= 28.03            C7-C6-N2-C1=334.12            C7-C6-N2-C3=205.35            
N2-C6-C5-N4=357.22            N2-C6-C5-N13=177.75           C7-C6-C5-N4=179.99            C7-C6-C5-N13=  0.52           
O8-C7-C6-N2=  3.92            O8-C7-C6-C5=181.19            N9-C7-C6-N2=183.74            N9-C7-C6-C5=  1.02            
C10-N9-C7-C6=179.35           C10-N9-C7-O8=359.17           C11-N9-C7-C6=358.24           C11-N9-C7-O8=178.07           
H19-C10-N9-C7=354.86          H19-C10-N9-C11=175.86         H20-C10-N9-C7=115.32          H20-C10-N9-C11=296.32         
H21-C10-N9-C7=234.02          H21-C10-N9-C11= 55.02         
           -------------------------------------------------
          |                Final Singlepoint                |
           -------------------------------------------------

          ...................................................
          :                      SETUP                      :
          :.................................................:
          :  # basis functions                  67          :
          :  # atomic orbitals                  67          :
          :  # shells                           39          :
          :  # electrons                        74          :
          :  max. iterations                   250          :
          :  Hamiltonian                  GFN2-xTB          :
          :  restarted?                      false          :
          :  GBSA solvation                  false          :
          :  PC potential                    false          :
          :  electronic temp.         7500.0000000     K    :
          :  accuracy                    1.0000000          :
          :  -> integral cutoff          0.2500000E+02      :
          :  -> integral neglect         0.1000000E-07      :
          :  -> SCF convergence          0.1000000E-05 Eh   :
          :  -> wf. convergence          0.1000000E-03 e    :
          :  Broyden damping             0.4000000          :
          ...................................................

 iter      E             dE          RMSdq      gap      omega  full diag
   1    -42.7165215 -0.427165E+02  0.912E-05    1.78       0.0  T
   2    -42.7165215  0.265032E-10  0.813E-05    1.78     245.9  T
   3    -42.7165215 -0.165294E-09  0.357E-05    1.78     560.7  T

   *** convergence criteria satisfied after 3 iterations ***

         #    Occupation            Energy/Eh            Energy/eV
      -------------------------------------------------------------
         1        2.0000           -0.8946969             -24.3459
       ...           ...                  ...                  ...
        31        1.9751           -0.6232234             -16.9588
        32        1.9733           -0.6215551             -16.9134
        33        1.9343           -0.5997024             -16.3187
        34        1.8954           -0.5881756             -16.0051
        35        1.8885           -0.5865790             -15.9616
        36        1.8389           -0.5771979             -15.7064
        37        1.8045           -0.5721552             -15.5691 (HOMO)
        38        0.7431           -0.5068918             -13.7932 (LUMO)
        39        0.0142           -0.4020768             -10.9411
        40        0.0088           -0.3905604             -10.6277
        41        0.0002           -0.3012789              -8.1982
        42        0.0001           -0.2927443              -7.9660
       ...           ...                  ...                  ...
        67                         10.7716199             293.1107
      -------------------------------------------------------------
                  HL-Gap            0.0652634 Eh            1.7759 eV
             Fermi-level           -0.5193741 Eh          -14.1329 eV

 SCC (total)                   0 d,  0 h,  0 min,  0.021 sec
 SCC setup                      ...        0 min,  0.000 sec (  0.867%)
 Dispersion                     ...        0 min,  0.000 sec (  0.895%)
 classical contributions        ...        0 min,  0.000 sec (  0.320%)
 integral evaluation            ...        0 min,  0.004 sec ( 20.850%)
 iterations                     ...        0 min,  0.005 sec ( 22.313%)
 molecular gradient             ...        0 min,  0.011 sec ( 54.167%)
 printout                       ...        0 min,  0.000 sec (  0.529%)

         :::::::::::::::::::::::::::::::::::::::::::::::::::::
         ::                     SUMMARY                     ::
         :::::::::::::::::::::::::::::::::::::::::::::::::::::
         :: total energy             -59.770895946207 Eh    ::
         :: gradient norm              0.003866028672 Eh/a0 ::
         :: HOMO-LUMO gap              1.775908559583 eV    ::
         ::.................................................::
         :: SCC energy               -42.716521453040 Eh    ::
         :: -> isotropic ES            0.136139821950 Eh    ::
         :: -> anisotropic ES         -0.003518310529 Eh    ::
         :: -> anisotropic XC          0.014700320191 Eh    ::
         :: -> dispersion             -0.021786606291 Eh    ::
         :: repulsion energy           2.260760643418 Eh    ::
         :: add. restraining         -19.315240089585 Eh    ::
         :: total charge               1.000000000004 e     ::
         :::::::::::::::::::::::::::::::::::::::::::::::::::::

           -------------------------------------------------
          |                Property Printout                |
           -------------------------------------------------

    * Orbital Energies and Occupations

         #    Occupation            Energy/Eh            Energy/eV
      -------------------------------------------------------------
         1        2.0000           -0.8946969             -24.3459
       ...           ...                  ...                  ...
        25        1.9937           -0.6560725             -17.8526
        26        1.9932           -0.6542685             -17.8036
        27        1.9922           -0.6510317             -17.7155
        28        1.9878           -0.6402605             -17.4224
        29        1.9837           -0.6334825             -17.2379
        30        1.9823           -0.6314914             -17.1838
        31        1.9751           -0.6232234             -16.9588
        32        1.9733           -0.6215551             -16.9134
        33        1.9343           -0.5997024             -16.3187
        34        1.8954           -0.5881756             -16.0051
        35        1.8885           -0.5865790             -15.9616
        36        1.8389           -0.5771979             -15.7064
        37        1.8045           -0.5721552             -15.5691 (HOMO)
        38        0.7431           -0.5068918             -13.7932 (LUMO)
        39        0.0142           -0.4020768             -10.9411
        40        0.0088           -0.3905604             -10.6277
        41        0.0002           -0.3012789              -8.1982
        42        0.0001           -0.2927443              -7.9660
        43        0.0000           -0.2139215              -5.8211
        44        0.0000           -0.1683660              -4.5815
        45        0.0000           -0.1405031              -3.8233
        46                         -0.0898157              -2.4440
        47                         -0.0622432              -1.6937
        48                         -0.0501608              -1.3649
       ...                                ...                  ...
        67                         10.7716199             293.1107
      -------------------------------------------------------------
                  HL-Gap            0.0652634 Eh            1.7759 eV
             Fermi-level           -0.5193741 Eh          -14.1329 eV

     #   Z          covCN         q      C6AA      α(0)
     1   6 C        3.736    -0.014    20.902     6.524
     2   7 N        2.745     0.042    20.513     6.727
     3   6 C        3.730    -0.063    21.808     6.666
     4   7 N        1.791    -0.275    27.966     7.833
     5   6 C        2.826     0.161    24.524     8.115
     6   6 C        2.900     0.028    27.382     8.580
     7   6 C        2.772     0.262    22.592     7.785
     8   8 O        0.858    -0.331    20.348     6.048
     9   7 N        2.741    -0.060    22.402     7.030
    10   6 C        3.706    -0.061    21.821     6.678
    11   6 C        2.718     0.320    21.563     7.601
    12   8 O        0.860    -0.334    20.411     6.057
    13   7 N        2.741    -0.062    22.440     7.036
    14   6 C        3.702    -0.064    21.886     6.689
    15   1 H        0.925     0.125     1.574     1.962
    16   1 H        0.935     0.189     1.157     1.682
    17   1 H        0.925     0.120     1.611     1.985
    18   1 H        0.919     0.120     1.617     1.989
    19   1 H        0.925     0.127     1.555     1.950
    20   1 H        0.924     0.119     1.621     1.991
    21   1 H        0.924     0.121     1.608     1.983
    22   1 H        0.924     0.101     1.776     2.084
    23   1 H        0.924     0.099     1.790     2.092
    24   1 H        0.925     0.129     1.541     1.941
    25   1 H        0.860     0.201     1.098     1.642

 Mol. C6AA /au·bohr⁶  :       6390.422873
 Mol. C8AA /au·bohr⁸  :     146715.843398
 Mol. α(0) /au        :        120.668470


Wiberg/Mayer (AO) data.
largest (>0.10) Wiberg bond orders for each atom

 ---------------------------------------------------------------------------
     #   Z sym  total        # sym  WBO       # sym  WBO       # sym  WBO
 ---------------------------------------------------------------------------
     1   6 C    3.869 --     2 N    0.985     3 C    0.953    15 H    0.944
                            17 H    0.940
     2   7 N    3.359 --     6 C    1.371     1 C    0.985     3 C    0.937
     3   6 C    3.819 --     1 C    0.953    16 H    0.942     2 N    0.937
                            18 H    0.926
     4   7 N    2.728 --     5 C    1.625    25 H    0.918
     5   6 C    3.915 --     4 N    1.625    13 N    1.103     6 C    1.095
     6   6 C    3.703 --     2 N    1.371     5 C    1.095     7 C    1.047
     7   6 C    3.894 --     8 O    1.642     9 N    1.112     6 C    1.047
     8   8 O    1.878 --     7 C    1.642     9 N    0.118
     9   7 N    3.473 --     7 C    1.112    11 C    1.097    10 C    0.980
                             8 O    0.118    12 O    0.102
    10   6 C    3.848 --     9 N    0.980    19 H    0.951    21 H    0.939
                            20 H    0.937
    11   6 C    3.933 --    12 O    1.657    13 N    1.098     9 N    1.097
    12   8 O    1.944 --    11 C    1.657    13 N    0.107     9 N    0.102
    13   7 N    3.451 --     5 C    1.103    11 C    1.098    14 C    0.983
                            12 O    0.107
    14   6 C    3.880 --    13 N    0.983    23 H    0.952    24 H    0.951
                            22 H    0.950
    15   1 H    0.965 --     1 C    0.944
    16   1 H    0.958 --     3 C    0.942
    17   1 H    0.963 --     1 C    0.940
    18   1 H    0.958 --     3 C    0.926
    19   1 H    0.969 --    10 C    0.951
    20   1 H    0.953 --    10 C    0.937
    21   1 H    0.956 --    10 C    0.939
    22   1 H    0.966 --    14 C    0.950
    23   1 H    0.969 --    14 C    0.952
    24   1 H    0.972 --    14 C    0.951
    25   1 H    0.946 --     4 N    0.918
 ---------------------------------------------------------------------------

Topologies differ in total number of bonds
Writing topology from bond orders to xtbtopo.mol

molecular dipole:
                 x           y           z       tot (Debye)
 q only:        1.656      -0.709      -0.068
   full:        1.373      -0.906      -0.044       4.184
molecular quadrupole (traceless):
                xx          xy          yy          xz          yz          zz
 q only:       16.096       0.042       2.025      -0.260       0.797     -18.120
  q+dip:       10.586       0.966       2.232       0.813       0.069     -12.818
   full:        9.699       0.832       1.828       0.451       0.174     -11.528

           -------------------------------------------------
          |                Geometry Summary                 |
           -------------------------------------------------

      molecular mass/u    :      195.1988581
   center of mass at/Å    :        0.0191351       0.0198979       0.0158811
  moments of inertia/u·Å² :        0.4647133E+03   0.7949883E+03   0.1246139E+04
rotational constants/cm⁻¹ :        0.3627534E-01   0.2120488E-01   0.1352789E-01

 * 23 selected distances

     #   Z          #   Z                                           value/Å
     1   6 C        2   7 N                                       1.4026336
     1   6 C        3   6 C                                       1.5361205 (max)
     2   7 N        3   6 C                                       1.4533130
     4   7 N        5   6 C                                       1.2773911
     2   7 N        6   6 C                                       1.3155195
     7   6 C        8   8 O                                       1.2168555
     7   6 C        9   7 N                                       1.3834023
     9   7 N       10   6 C                                       1.4495865
     9   7 N       11   6 C                                       1.3851160
    11   6 C       12   8 O                                       1.2071388
     5   6 C       13   7 N                                       1.3855937
    11   6 C       13   7 N                                       1.3875333
    13   7 N       14   6 C                                       1.4507393
     1   6 C       15   1 H                                       1.0836344
     3   6 C       16   1 H                                       0.4243122 (min)
     1   6 C       17   1 H                                       1.0860480
     3   6 C       18   1 H                                       1.1255398
    10   6 C       19   1 H                                       1.0892599
    10   6 C       20   1 H                                       1.0924280
    10   6 C       21   1 H                                       1.0917632
    14   6 C       22   1 H                                       1.0923678
    14   6 C       23   1 H                                       1.0919622
    14   6 C       24   1 H                                       1.0900867

 * 4 distinct bonds (by element types)

   Z      Z             #   av. dist./Å        max./Å        min./Å
   1 H    6 C          10     1.0267402     1.1255398     0.4243122
   6 C    6 C           1     1.5361205     1.5361205     1.5361205
   6 C    7 N          10     1.3890828     1.4533130     1.2773911
   6 C    8 O           2     1.2119972     1.2168555     1.2071388


optimized geometry written to: xtbopt.xyz


           -------------------------------------------------
          | TOTAL ENERGY              -59.770895946207 Eh   |
          | GRADIENT NORM               0.003866028672 Eh/α |
          | HOMO-LUMO GAP               1.775908559583 eV   |
           -------------------------------------------------

------------------------------------------------------------------------
 * finished run on 2024/06/05 at 19:58:57.194     
------------------------------------------------------------------------
 total:
 * wall-time:     0 d,  0 h,  0 min,  1.488 sec
 *  cpu-time:     0 d,  0 h,  0 min,  1.428 sec
 * ratio c/w:     0.960 speedup
 SCF:
 * wall-time:     0 d,  0 h,  0 min,  0.055 sec
 *  cpu-time:     0 d,  0 h,  0 min,  0.035 sec
 * ratio c/w:     0.641 speedup
 ANC optimizer:
 * wall-time:     0 d,  0 h,  0 min,  1.401 sec
 *  cpu-time:     0 d,  0 h,  0 min,  1.382 sec
 * ratio c/w:     0.986 speedup

