25
 energy: 44.533282598842 xtb: 6.6.1 (8d0f1dd)
C            3.37034937067025        1.45559643262020        0.08733837953587
N            2.52182141244890        0.29060749889842        0.08882373777705
C            2.90558545642471       -0.99127394510063        0.06637414140606
N            1.82369686585282       -1.81729439639857        0.01597927364128
C            0.68748455738219       -1.03680116972427        0.00190842319465
C            1.15596706452947        0.29057087607224        0.04326246899006
C            0.24221308365313        1.40563447872863        0.01691030619775
O            0.58997521748063        2.58246134275340        0.02129335308185
N           -1.05120625252289        0.96222064849075       -0.02955425864243
C           -2.09496805878575        1.97837997201157       -0.05195675443413
C           -1.49671617917121       -0.39363279456534       -0.04269149069869
O           -2.70338754865337       -0.49373327366296       -0.06297156730252
N           -0.58080266784634       -1.39752700551927       -0.03578593238811
C           -2.71601176313983       -3.15092351594299       -0.09675841384622
H            3.89128598604589        1.53616206152195        1.04055424700940
H            4.10743307649295        1.39186433854625       -0.71173178285066
H            2.77308863709661        2.35813802594886       -0.06311650335796
H            3.91633182701567       -1.33540260160976        0.05995730981849
H           -1.57257209615496        2.93194697535562       -0.03490692127443
H           -2.70699263910653        1.88737348452061       -0.95054295825389
H           -2.74603522771983        1.86812758605734        0.81630618688517
H           -2.43601182351472       -3.59367272236617        0.81347128154053
H           -2.41203801347359       -3.55503978305117       -1.01771084245062
H           -3.34412307549931       -2.30104289426163       -0.08669072655231
H            1.88229166108117       -2.83182754825317        0.01181620246623
