25
 energy: -42.154070931410 gnorm: 0.004736338441 xtb: 6.6.1 (8d0f1dd)
C            3.12153807736418        1.20145150771866       -0.13763063640080
N            2.14831874728044        0.14290996465593       -0.07056081473050
C            2.39791074841271       -1.13115565782183        0.20847619466268
N            1.24017201538447       -1.81707180329072        0.21565954204300
C            0.22396785218660       -0.94572117344843       -0.07423456210187
C            0.80602625913511        0.28812620566387       -0.27211229498897
C            0.08982943882589        1.55875149924023       -0.62730203677325
O            0.41473165601162        2.63818957194926       -0.15593714132191
N           -1.52883149410207        1.04044893700046        0.17193383330660
C           -2.18057207252662        2.01186485531367        0.68061405141351
C           -2.06926396060032       -0.26169079546452        0.09126702503960
O           -3.23954912841062       -0.50609279521067        0.17493204654675
N           -1.10741652291153       -1.25004574178207       -0.08263696277539
C           -1.53866698515399       -2.63586626268253       -0.12983845720737
H            3.88337954276709        1.05192196544852        0.62501316478549
H            3.59874133159778        1.22045371354986       -1.11899605443859
H            2.61637395550833        2.15393311863366        0.02639690195686
H            3.36583850904709       -1.55290089464454        0.39475672442524
H           -1.68549545653731        2.97549496834456        0.69294746601618
H           -0.37237673012954        1.48955574983718       -1.63862655416632
H           -3.17400994457963        1.89277401130233        1.09375776501826
H           -1.33178145331511       -3.14662305612419        0.81267088639306
H           -1.04927621309522       -3.15218972210108       -0.95500552795486
H           -2.61550533225173       -2.64190580580855       -0.29261825214485
H            1.14634867419166       -2.80637381867829        0.39824531129872
