25
 energy: -42.172770635766 gnorm: 0.005042051478 xtb: 6.6.1 (8d0f1dd)
C            3.45257173155267        1.79351654721167        0.10426916084513
N            3.40696670018073        0.79351745183390       -0.63986261187579
C            1.50856590592266       -1.12893881494950        0.29588457570767
N            0.91164212637170       -2.35480277234569        0.17872011688131
C           -0.41918367784792       -2.22657218940787        0.03417740026853
C            0.50407589802642       -0.20658859737913        0.21479207925902
C            0.15684384607374        1.22010737469811        0.21712937055909
O            0.85086961964323        2.19825615211730        0.31566745345062
N           -1.23210760524208        1.22344143250206        0.06242855174583
C           -2.01971726993637        2.43598150126285        0.01779909223687
C           -1.79484928497887       -0.02067050687855       -0.03757541540752
O           -2.93310798318436       -0.34539992072695       -0.17440110164416
N           -0.67447594594095       -0.91280936144496        0.05950475010415
C           -1.41031733942675       -3.30121456581757       -0.10701881196845
H            3.29813323557480        1.66035095469404        1.16702339733506
H            3.56954838967993        0.92417197389602       -1.63387345847708
H            3.64720205957379        2.81733473046736       -0.21415538038735
H            2.56726602483830       -0.98595677767850        0.38538932784779
H           -1.33415665054436        3.27923505026709        0.07252460887357
H           -2.59015737880088        2.47565556892778       -0.90976810440278
H           -2.71163059710836        2.46422537938929        0.85931870943795
H           -1.34408709516847       -4.00072369094604        0.72702182513956
H           -1.24139477787994       -3.86813263988909       -1.02330224727361
H           -2.41177513297237       -2.87700555389815       -0.13780560796579
H            1.40370671569445       -3.23874018430645        0.19728393761076
25
 energy: -42.173090592049 gnorm: 0.002991242574 xtb: 6.6.1 (8d0f1dd)
C            3.47136422195412        1.80918318580930        0.09958862772840
N            3.46016092378651        0.81294022216684       -0.65026980984658
C            1.49986185069122       -1.13631078561384        0.30098504537863
N            0.90087161537493       -2.36135729896881        0.18377891574941
C           -0.43033074252496       -2.23281844075270        0.03891381594125
C            0.49684674013489       -0.21303920121966        0.21851202903690
C            0.15330410828739        1.21460517585946        0.21880921065675
O            0.84970288241467        2.19107844990254        0.31720529836723
N           -1.23549958430563        1.22063195112962        0.06341768310038
C           -2.02040699049590        2.43504115442944        0.01773640703998
C           -1.80031002884926       -0.02243177402134       -0.03686613488521
O           -2.93891581551361       -0.34517129839418       -0.17496507500258
N           -0.68257319212766       -0.91798696954761        0.06197896151835
C           -1.41913632873809       -3.30765959172445       -0.10674162825494
H            3.32153358735191        1.66293380044602        1.16217559650144
H            3.60157928963287        0.95386715524655       -1.64651739487998
H            3.63563059978007        2.84068752857373       -0.21386435185116
H            2.55868580853102       -0.99444351695473        0.39166599732667
H           -1.33321460314563        3.27700464319126        0.07260582859319
H           -2.59023046959644        2.47560916758797       -0.91010812040720
H           -2.71292974040463        2.46524176087727        0.85879607143869
H           -1.35320299989020       -4.00789680216199        0.72639385067121
H           -1.24523357867558       -3.87249207366775       -1.02359700727788
H           -2.42050099331609       -2.88395532315796       -0.14035114053989
H            1.39337495374476       -3.24502257743593        0.20188894179724
