      -----------------------------------------------------------      
     |                   =====================                   |     
     |                           x T B                           |     
     |                   =====================                   |     
     |                         S. Grimme                         |     
     |          Mulliken Center for Theoretical Chemistry        |     
     |                    University of Bonn                     |     
      -----------------------------------------------------------      

   * xtb version 6.6.1 (8d0f1dd) compiled by 'conda@1efc2f54142f' on 2023-08-01

   xtb is free software: you can redistribute it and/or modify it under
   the terms of the GNU Lesser General Public License as published by
   the Free Software Foundation, either version 3 of the License, or
   (at your option) any later version.
   
   xtb is distributed in the hope that it will be useful,
   but WITHOUT ANY WARRANTY; without even the implied warranty of
   MERCHANTABILITY or FITNESS FOR A PARTICULAR PURPOSE.  See the
   GNU Lesser General Public License for more details.
   
   Cite this work as:
   * C. Bannwarth, E. Caldeweyher, S. Ehlert, A. Hansen, P. Pracht,
     J. Seibert, S. Spicher, S. Grimme, WIREs Comput. Mol. Sci., 2020, 11,
     e01493. DOI: 10.1002/wcms.1493
   
   for GFN2-xTB:
   * C. Bannwarth, S. Ehlert and S. Grimme., J. Chem. Theory Comput., 2019,
     15, 1652-1671. DOI: 10.1021/acs.jctc.8b01176
   for GFN1-xTB:
   * S. Grimme, C. Bannwarth, P. Shushkov, J. Chem. Theory Comput., 2017,
     13, 1989-2009. DOI: 10.1021/acs.jctc.7b00118
   for GFN0-xTB:
   * P. Pracht, E. Caldeweyher, S. Ehlert, S. Grimme, ChemRxiv, 2019, preprint.
     DOI: 10.26434/chemrxiv.8326202.v1
   for GFN-FF:
   * S. Spicher and S. Grimme, Angew. Chem. Int. Ed., 2020, 59, 15665-15673.
     DOI: 10.1002/anie.202004239
   
   for ALPB and GBSA implicit solvation:
   * S. Ehlert, M. Stahn, S. Spicher, S. Grimme, J. Chem. Theory Comput.,
     2021, 17, 4250-4261. DOI: 10.1021/acs.jctc.1c00471
   
   for DFT-D4:
   * E. Caldeweyher, C. Bannwarth and S. Grimme, J. Chem. Phys., 2017,
     147, 034112. DOI: 10.1063/1.4993215
   * E. Caldeweyher, S. Ehlert, A. Hansen, H. Neugebauer, S. Spicher,
     C. Bannwarth and S. Grimme, J. Chem. Phys., 2019, 150, 154122.
     DOI: 10.1063/1.5090222
   * E. Caldeweyher, J.-M. Mewes, S. Ehlert and S. Grimme, Phys. Chem. Chem. Phys.
     2020, 22, 8499-8512. DOI: 10.1039/D0CP00502A
   
   for sTDA-xTB:
   * S. Grimme and C. Bannwarth, J. Chem. Phys., 2016, 145, 054103.
     DOI: 10.1063/1.4959605
   
   in the mass-spec context:
   * V. Asgeirsson, C. Bauer and S. Grimme, Chem. Sci., 2017, 8, 4879.
     DOI: 10.1039/c7sc00601b
   * J. Koopman and S. Grimme, ACS Omega 2019, 4, 12, 15120-15133.
     DOI: 10.1021/acsomega.9b02011
   
   for metadynamics refer to:
   * S. Grimme, J. Chem. Theory Comput., 2019, 155, 2847-2862
     DOI: 10.1021/acs.jctc.9b00143
   
   for SPH calculations refer to:
   * S. Spicher and S. Grimme, J. Chem. Theory Comput., 2021, 17, 1701-1714
     DOI: 10.1021/acs.jctc.0c01306
   
   with help from (in alphabetical order)
   P. Atkinson, C. Bannwarth, F. Bohle, G. Brandenburg, E. Caldeweyher
   M. Checinski, S. Dohm, S. Ehlert, S. Ehrlich, I. Gerasimov, C. Hölzer
   A. Katbashev, J. Koopman, C. Lavigne, S. Lehtola, F. März, M. Müller,
   F. Musil, H. Neugebauer, J. Pisarek, C. Plett, P. Pracht, F. Pultar,
   J. Seibert, P. Shushkov, S. Spicher, M. Stahn, M. Steiner, T. Strunk,
   J. Stückrath, T. Rose, and J. Unsleber
   
 * started run on 2024/06/05 at 19:58:56.560     

           -------------------------------------------------
          |                Calculation Setup                |
           -------------------------------------------------

          program call               : xtb xtbopt.xyz --opt crude --input .xc2 --gfn2
          hostname                   : n-62-29-9
          coordinate file            : xtbopt.xyz
          omp threads                :                     1

   ID    Z sym.   atoms
    1    6 C      1, 3, 5-7, 10, 11, 14
    2    7 N      2, 4, 9, 13
    3    8 O      8, 12
    4    1 H      15-25

molecular fragmentation (1/2 indicates fragments):
1111111111111111111211111
# atoms in fragment 1/2:    24     1
 fragment masses (1/2) :      194.19        1.01
CMA distance (Bohr)    :   7.342
constraining FC (au)   :  0.0500
########################################################################
[WARNING] Please study the warnings concerning your input carefully
-1- readin_getIntValue: could not parse ''
########################################################################

           -------------------------------------------------
          |                 G F N 2 - x T B                 |
           -------------------------------------------------

        Reference                      10.1021/acs.jctc.8b01176
      * Hamiltonian:
        H0-scaling (s, p, d)           1.850000    2.230000    2.230000
        zeta-weighting                 0.500000
      * Dispersion:
        s8                             2.700000
        a1                             0.520000
        a2                             5.000000
        s9                             5.000000
      * Repulsion:
        kExp                           1.500000    1.000000
        rExp                           1.000000
      * Coulomb:
        alpha                          2.000000
        third order                    shell-resolved
        anisotropic                    true
        a3                             3.000000
        a5                             4.000000
        cn-shift                       1.200000
        cn-exp                         4.000000
        max-rad                        5.000000

q/qsh data taken from xtbrestart
CAMM data taken from xtbrestart

          ...................................................
          :                      SETUP                      :
          :.................................................:
          :  # basis functions                  67          :
          :  # atomic orbitals                  67          :
          :  # shells                           39          :
          :  # electrons                        74          :
          :  max. iterations                   250          :
          :  Hamiltonian                  GFN2-xTB          :
          :  restarted?                       true          :
          :  GBSA solvation                  false          :
          :  PC potential                    false          :
          :  electronic temp.         7500.0000000     K    :
          :  accuracy                    1.0000000          :
          :  -> integral cutoff          0.2500000E+02      :
          :  -> integral neglect         0.1000000E-07      :
          :  -> SCF convergence          0.1000000E-05 Eh   :
          :  -> wf. convergence          0.1000000E-03 e    :
          :  Broyden damping             0.4000000          :
          ...................................................

 iter      E             dE          RMSdq      gap      omega  full diag
   1    -42.6536102 -0.426536E+02  0.198E-05    0.64       0.0  T
   2    -42.6536102  0.753886E-11  0.269E-05    0.64     742.9  T
   3    -42.6536102 -0.168967E-10  0.508E-06    0.64    3933.4  T

   *** convergence criteria satisfied after 3 iterations ***

         #    Occupation            Energy/Eh            Energy/eV
      -------------------------------------------------------------
         1        2.0000           -0.9099255             -24.7603
       ...           ...                  ...                  ...
        31        1.9939           -0.6210537             -16.8997
        32        1.9928           -0.6169806             -16.7889
        33        1.9924           -0.6157549             -16.7555
        34        1.9780           -0.5902669             -16.0620
        35        1.9529           -0.5718220             -15.5601
        36        1.9270           -0.5611219             -15.2689
        37        1.1860           -0.4923110             -13.3965 (HOMO)
        38        0.7011           -0.4687278             -12.7547 (LUMO)
        39        0.2051           -0.4318457             -11.7511
        40        0.0635           -0.4021990             -10.9444
        41        0.0218           -0.3762945             -10.2395
        42        0.0006           -0.2912911              -7.9264
       ...           ...                  ...                  ...
        67                          0.5374832              14.6257
      -------------------------------------------------------------
                  HL-Gap            0.0235832 Eh            0.6417 eV
             Fermi-level           -0.4833730 Eh          -13.1533 eV

 SCC (total)                   0 d,  0 h,  0 min,  0.025 sec
 SCC setup                      ...        0 min,  0.000 sec (  1.407%)
 Dispersion                     ...        0 min,  0.000 sec (  1.694%)
 classical contributions        ...        0 min,  0.000 sec (  0.450%)
 integral evaluation            ...        0 min,  0.006 sec ( 25.988%)
 iterations                     ...        0 min,  0.006 sec ( 23.607%)
 molecular gradient             ...        0 min,  0.011 sec ( 46.231%)
 printout                       ...        0 min,  0.000 sec (  0.569%)

         :::::::::::::::::::::::::::::::::::::::::::::::::::::
         ::                     SUMMARY                     ::
         :::::::::::::::::::::::::::::::::::::::::::::::::::::
         :: total energy             -42.137909700130 Eh    ::
         :: gradient norm              0.004994620387 Eh/a0 ::
         :: HOMO-LUMO gap              0.641731420225 eV    ::
         ::.................................................::
         :: SCC energy               -42.653610230163 Eh    ::
         :: -> isotropic ES            0.137713941843 Eh    ::
         :: -> anisotropic ES         -0.007463381148 Eh    ::
         :: -> anisotropic XC          0.012719299778 Eh    ::
         :: -> dispersion             -0.023249886807 Eh    ::
         :: repulsion energy           0.515540806168 Eh    ::
         :: add. restraining           0.000000000000 Eh    ::
         :: total charge               1.000000000000 e     ::
         :::::::::::::::::::::::::::::::::::::::::::::::::::::

      ----------------------------------------------------------- 
     |                   =====================                   |
     |                        A N C O P T                        |
     |                   =====================                   |
     |               Approximate Normal Coordinate               |
     |                Rational Function Optimizer                |
      ----------------------------------------------------------- 

          ...................................................
          :                      SETUP                      :
          :.................................................:
          :   optimization level             crude          :
          :   max. optcycles                   200          :
          :   ANC micro-cycles                  20          :
          :   degrees of freedom                69          :
          :.................................................:
          :   RF solver                   davidson          :
          :   write xtbopt.log                true          :
          :   linear?                        false          :
          :   energy convergence         0.5000000E-03 Eh   :
          :   grad. convergence          0.1000000E-01 Eh/α :
          :   maxmium RF displ.          1.0000000          :
          :   Hlow (freq-cutoff)         0.1000000E-01      :
          :   Hmax (freq-cutoff)         5.0000000          :
          :   S6 in model hess.         20.0000000          :
          ...................................................

generating ANC from model Hessian ...
Using Lindh-Hessian (1995)
 Shifting diagonal of input Hessian by    1.0135945180474670E-002
 Lowest  eigenvalues of input Hessian
    0.010000    0.010133    0.000000    0.000000    0.000000    0.000000
    0.000000    0.000000    0.011910    0.012903    0.014684    0.016139
    0.019602    0.020132    0.021968    0.022734    0.024781    0.028129
 Highest eigenvalues
    2.075851    2.125068    2.195606    2.245705    2.406128    2.500867


........................................................................
.............................. CYCLE    1 ..............................
........................................................................

 iter      E             dE          RMSdq      gap      omega  full diag
   1    -42.6536102 -0.426536E+02  0.362E-06    0.64       0.0  T
   2    -42.6536102  0.248690E-12  0.320E-06    0.64    6254.6  T
   3    -42.6536102 -0.305533E-12  0.204E-06    0.64    9807.9  T
     SCC iter.                  ...        0 min,  0.005 sec
     gradient                   ...        0 min,  0.011 sec
 * total energy  :   -42.1379097 Eh     change       -0.2202682E-12 Eh
   gradient norm :     0.0049946 Eh/α   predicted     0.0000000E+00 (-100.00%)
   displ. norm   :     0.3189981 α      lambda       -0.1423187E-02
   maximum displ.:     0.2509339 α      in ANC's #3, #2, #5, ...

   *** GEOMETRY OPTIMIZATION CONVERGED AFTER 1 ITERATIONS ***

------------------------------------------------------------------------
 total energy gain   :        -0.0000000 Eh       -0.0000 kcal/mol
 total RMSD          :         0.0000000 a0        0.0000 Å
 total power (kW/mol):        -0.0000000 (step)   -0.0000 (real)
------------------------------------------------------------------------

 ANCopt (total)                0 d,  0 h,  0 min,  0.031 sec
 optimizer setup                ...        0 min,  0.001 sec (  1.610%)
 model hessian                  ...        0 min,  0.007 sec ( 20.948%)
 ANC generation                 ...        0 min,  0.001 sec (  3.083%)
 coordinate transformation      ...        0 min,  0.000 sec (  0.057%)
 single point calculation       ...        0 min,  0.021 sec ( 68.535%)
 optimization log               ...        0 min,  0.002 sec (  4.875%)
 hessian update                 ...        0 min,  0.000 sec (  0.005%)
 rational function              ...        0 min,  0.000 sec (  0.304%)

================
 final structure:
================
25
 xtb: 6.6.1 (8d0f1dd)
C            3.16782590265399        1.16953088225293       -0.06957004261514
N            2.22615464537886        0.08394374718679       -0.06678587692138
C            2.50838465802544       -1.21908084718591       -0.16269886220715
N            1.36067442369869       -1.94270718083555       -0.10176765813581
C            0.32043607103295       -1.07186813808916        0.04004164227534
C            0.85952725009831        0.21130587469559        0.06195742771960
C            0.04681520076065        1.38193515368947        0.16664059577138
O            0.41158404268936        2.53930843231603        0.16934350146474
N           -1.34767847880451        1.04547965464939        0.27432831951383
C           -2.21547882509574        2.06963364236961        0.33792241049592
C           -1.89273388013928       -0.26577887931515        0.30429072351839
O           -3.07268660451780       -0.44706285779802        0.44932368591286
N           -1.00109156711858       -1.32748977671846        0.14927592298160
C           -1.52347231721353       -2.68012680751307        0.12398441528607
H            3.73352910915711        1.18522986113964        0.86401845341287
H            3.86481585250492        1.06324275407940       -0.90030306520893
H            2.62234001796301        2.10806572435570       -0.16355481363583
H            3.48808231392470       -1.63726338984186       -0.27194211874124
H           -1.81490178857862        3.06716302271650        0.32847182737832
H           -1.62390365493363        2.62476511662860       -2.22223488947750
H           -3.25481861677394        1.85285809919193        0.51547057956652
H           -1.08490120224459       -3.27422637644826        0.92621776673016
H           -1.32397068237987       -3.14685082943755       -0.84110242256291
H           -2.60079539049435       -2.62253706424383        0.27324664056014
H            1.30669503449599       -2.94923127625041       -0.15340254518272

 Bond Distances (Angstroems)
 ---------------------------
C1-N2=1.4371         C1-H15=1.0917        C1-H16=1.0896        C1-H17=1.0896        N2-C1=1.4371         N2-C3=1.3367         
N2-C6=1.3786         C3-N2=1.3367         C3-N4=1.3582         C3-H18=1.0708        N4-C3=1.3582         N4-C5=1.3640         
N4-H25=1.0093        C5-N4=1.3640         C5-C6=1.3920         C5-N13=1.3504        C6-N2=1.3786         C6-C5=1.3920         
C6-C7=1.4289         C7-C6=1.4289         C7-O8=1.2135         C7-N9=1.4385         O8-C7=1.2135         N9-C7=1.4385         
N9-C10=1.3439        N9-C11=1.4203        C10-N9=1.3439        C10-H19=1.0750       C10-H21=1.0764       C11-N9=1.4203        
C11-O12=1.2026       C11-N13=1.3951       O12-C11=1.2026       N13-C5=1.3504        N13-C11=1.3951       N13-C14=1.4502       
C14-N13=1.4502       C14-H22=1.0904       C14-H23=1.0904       C14-H24=1.0891       H15-C1=1.0917        H16-C1=1.0896        
H17-C1=1.0896        H18-C3=1.0708        H19-C10=1.0750       H21-C10=1.0764       H22-C14=1.0904       H23-C14=1.0904       
H24-C14=1.0891       H25-N4=1.0093        
 C  H  Rav=1.0848 sigma=0.0077  Rmin=1.0708  Rmax=1.0917     9
 C  C  Rav=1.4105 sigma=0.0185  Rmin=1.3920  Rmax=1.4289     2
 N  H  Rav=1.0093 sigma=0.0000  Rmin=1.0093  Rmax=1.0093     1
 N  C  Rav=1.3885 sigma=0.0399  Rmin=1.3367  Rmax=1.4502    11
 O  C  Rav=1.2080 sigma=0.0055  Rmin=1.2026  Rmax=1.2135     2

 selected bond angles (degree)
 --------------------
H15-C1-N2=110.41               H16-C1-N2=110.30               H16-C1-H15=108.78              H17-C1-N2=108.83               
H17-C1-H15=108.71              H17-C1-H16=109.79              C3-N2-C1=126.72                C6-N2-C1=125.45                
C6-N2-C3=107.82                N4-C3-N2=109.74                H18-C3-N2=125.53               H18-C3-N4=124.73               
C5-N4-C3=108.00                H25-N4-C3=125.05               H25-N4-C5=126.96               C6-C5-N4=107.15                
N13-C5-N4=129.34               N13-C5-C6=123.52               C5-C6-N2=107.29                C7-C6-N2=130.27                
C7-C6-C5=122.42                O8-C7-C6=127.63                N9-C7-C6=111.42                N9-C7-O8=120.95                
C10-N9-C7=116.83               C11-N9-C7=126.12               C11-N9-C10=117.05              H19-C10-N9=117.78              
H21-C10-N9=118.54              H21-C10-H19=123.24             

 selected dihedral angles (degree)
 ---------------------------------
C3-N2-C1-H15=288.84           C3-N2-C1-H16= 49.09           C3-N2-C1-H17=169.59           C6-N2-C1-H15=107.55           
C6-N2-C1-H16=227.81           C6-N2-C1-H17=348.31           N4-C3-N2-C1=178.99            N4-C3-N2-C6=  0.09            
H18-C3-N2-C1=358.95           H18-C3-N2-C6=180.05           C5-N4-C3-N2=359.86            C5-N4-C3-H18=179.90           
H25-N4-C3-N2=179.91           H25-N4-C3-H18=359.95          C6-C5-N4-C3=  0.13            C6-C5-N4-H25=180.08           
N13-C5-N4-C3=180.34           N13-C5-N4-H25=  0.30          C5-C6-N2-C1=181.07            C5-C6-N2-C3=  0.00            
C7-C6-N2-C1=  2.72            C7-C6-N2-C3=181.64            N2-C6-C5-N4=359.93            N2-C6-C5-N13=179.73           
C7-C6-C5-N4=178.44            C7-C6-C5-N13=358.24           O8-C7-C6-N2=359.62            O8-C7-C6-C5=181.48            
N9-C7-C6-N2=179.50            N9-C7-C6-C5=  1.37            C10-N9-C7-C6=181.96           C10-N9-C7-O8=  1.86           
C11-N9-C7-C6=  1.20           C11-N9-C7-O8=181.09           H19-C10-N9-C7=358.56          H19-C10-N9-C11=179.25         
H21-C10-N9-C7=185.89          H21-C10-N9-C11=  6.59         

 CMA Distance (Angstroems)
 ---------------------------
R(CMA):  3.8853
           -------------------------------------------------
          |                Final Singlepoint                |
           -------------------------------------------------

          ...................................................
          :                      SETUP                      :
          :.................................................:
          :  # basis functions                  67          :
          :  # atomic orbitals                  67          :
          :  # shells                           39          :
          :  # electrons                        74          :
          :  max. iterations                   250          :
          :  Hamiltonian                  GFN2-xTB          :
          :  restarted?                      false          :
          :  GBSA solvation                  false          :
          :  PC potential                    false          :
          :  electronic temp.         7500.0000000     K    :
          :  accuracy                    1.0000000          :
          :  -> integral cutoff          0.2500000E+02      :
          :  -> integral neglect         0.1000000E-07      :
          :  -> SCF convergence          0.1000000E-05 Eh   :
          :  -> wf. convergence          0.1000000E-03 e    :
          :  Broyden damping             0.4000000          :
          ...................................................

 iter      E             dE          RMSdq      gap      omega  full diag
   1    -42.6536102 -0.426536E+02  0.104E-06    0.64       0.0  T
   2    -42.6536102 -0.852651E-13  0.120E-06    0.64   16633.1  T
   3    -42.6536102  0.000000E+00  0.337E-07    0.64   59393.7  T

   *** convergence criteria satisfied after 3 iterations ***

         #    Occupation            Energy/Eh            Energy/eV
      -------------------------------------------------------------
         1        2.0000           -0.9099255             -24.7603
       ...           ...                  ...                  ...
        31        1.9939           -0.6210537             -16.8997
        32        1.9928           -0.6169805             -16.7889
        33        1.9924           -0.6157548             -16.7555
        34        1.9780           -0.5902669             -16.0620
        35        1.9529           -0.5718220             -15.5601
        36        1.9270           -0.5611219             -15.2689
        37        1.1860           -0.4923110             -13.3965 (HOMO)
        38        0.7011           -0.4687278             -12.7547 (LUMO)
        39        0.2051           -0.4318457             -11.7511
        40        0.0635           -0.4021990             -10.9444
        41        0.0218           -0.3762945             -10.2395
        42        0.0006           -0.2912911              -7.9264
       ...           ...                  ...                  ...
        67                          0.5374832              14.6257
      -------------------------------------------------------------
                  HL-Gap            0.0235832 Eh            0.6417 eV
             Fermi-level           -0.4833730 Eh          -13.1532 eV

 SCC (total)                   0 d,  0 h,  0 min,  0.021 sec
 SCC setup                      ...        0 min,  0.000 sec (  0.862%)
 Dispersion                     ...        0 min,  0.000 sec (  0.845%)
 classical contributions        ...        0 min,  0.000 sec (  0.313%)
 integral evaluation            ...        0 min,  0.004 sec ( 20.629%)
 iterations                     ...        0 min,  0.005 sec ( 22.795%)
 molecular gradient             ...        0 min,  0.012 sec ( 53.925%)
 printout                       ...        0 min,  0.000 sec (  0.576%)

         :::::::::::::::::::::::::::::::::::::::::::::::::::::
         ::                     SUMMARY                     ::
         :::::::::::::::::::::::::::::::::::::::::::::::::::::
         :: total energy             -42.137909700130 Eh    ::
         :: gradient norm              0.004994615839 Eh/a0 ::
         :: HOMO-LUMO gap              0.641731741961 eV    ::
         ::.................................................::
         :: SCC energy               -42.653610230163 Eh    ::
         :: -> isotropic ES            0.137713918265 Eh    ::
         :: -> anisotropic ES         -0.007463384801 Eh    ::
         :: -> anisotropic XC          0.012719302854 Eh    ::
         :: -> dispersion             -0.023249887269 Eh    ::
         :: repulsion energy           0.515540806168 Eh    ::
         :: add. restraining           0.000000000000 Eh    ::
         :: total charge               1.000000000000 e     ::
         :::::::::::::::::::::::::::::::::::::::::::::::::::::

           -------------------------------------------------
          |                Property Printout                |
           -------------------------------------------------

    * Orbital Energies and Occupations

         #    Occupation            Energy/Eh            Energy/eV
      -------------------------------------------------------------
         1        2.0000           -0.9099255             -24.7603
       ...           ...                  ...                  ...
        25        1.9994           -0.6750889             -18.3701
        26        1.9993           -0.6715865             -18.2748
        27        1.9991           -0.6669899             -18.1497
        28        1.9966           -0.6349197             -17.2770
        29        1.9963           -0.6326827             -17.2162
        30        1.9960           -0.6311014             -17.1731
        31        1.9939           -0.6210537             -16.8997
        32        1.9928           -0.6169805             -16.7889
        33        1.9924           -0.6157548             -16.7555
        34        1.9780           -0.5902669             -16.0620
        35        1.9529           -0.5718220             -15.5601
        36        1.9270           -0.5611219             -15.2689
        37        1.1860           -0.4923110             -13.3965 (HOMO)
        38        0.7011           -0.4687278             -12.7547 (LUMO)
        39        0.2051           -0.4318457             -11.7511
        40        0.0635           -0.4021990             -10.9444
        41        0.0218           -0.3762945             -10.2395
        42        0.0006           -0.2912911              -7.9264
        43        0.0000           -0.2111289              -5.7451
        44        0.0000           -0.1984495              -5.4001
        45        0.0000           -0.1529260              -4.1613
        46        0.0000           -0.1477284              -4.0199
        47                         -0.0803264              -2.1858
        48                         -0.0552422              -1.5032
       ...                                ...                  ...
        67                          0.5374832              14.6257
      -------------------------------------------------------------
                  HL-Gap            0.0235832 Eh            0.6417 eV
             Fermi-level           -0.4833730 Eh          -13.1532 eV

     #   Z          covCN         q      C6AA      α(0)
     1   6 C        3.691    -0.092    22.458     6.782
     2   7 N        2.823     0.073    19.976     6.638
     3   6 C        3.039     0.042    27.016     8.525
     4   7 N        2.785    -0.061    22.415     7.032
     5   6 C        3.033     0.104    25.671     8.311
     6   6 C        3.101    -0.019    28.340     8.724
     7   6 C        2.776     0.253    22.750     7.812
     8   8 O        0.857    -0.349    20.684     6.098
     9   7 N        2.741    -0.028    21.790     6.933
    10   6 C        2.815    -0.015    28.377     8.728
    11   6 C        2.736     0.307    21.785     7.642
    12   8 O        0.859    -0.343    20.569     6.081
    13   7 N        2.736    -0.044    22.095     6.981
    14   6 C        3.698    -0.074    22.086     6.722
    15   1 H        0.924     0.109     1.706     2.042
    16   1 H        0.925     0.106     1.731     2.057
    17   1 H        0.925     0.134     1.501     1.916
    18   1 H        0.926     0.123     1.592     1.973
    19   1 H        0.926     0.141     1.451     1.884
    20   1 H        0.000    -0.038     9.482     5.631
    21   1 H        0.926     0.135     1.496     1.912
    22   1 H        0.924     0.088     1.903     2.157
    23   1 H        0.924     0.089     1.885     2.147
    24   1 H        0.925     0.130     1.536     1.938
    25   1 H        0.860     0.228     0.975     1.546

 Mol. C6AA /au·bohr⁶  :       6855.916753
 Mol. C8AA /au·bohr⁸  :     156195.871815
 Mol. α(0) /au        :        128.211657


Wiberg/Mayer (AO) data.
largest (>0.10) Wiberg bond orders for each atom

 ---------------------------------------------------------------------------
     #   Z sym  total        # sym  WBO       # sym  WBO       # sym  WBO
 ---------------------------------------------------------------------------
     1   6 C    3.908 --     2 N    0.989    16 H    0.961    17 H    0.958
                            15 H    0.953
     2   7 N    3.607 --     3 C    1.346     6 C    1.145     1 C    0.989
     3   6 C    3.743 --     2 N    1.346     4 N    1.250    18 H    0.954
     4   7 N    3.546 --     3 C    1.250     5 C    1.190    25 H    0.920
     5   6 C    3.862 --     6 C    1.312     4 N    1.190    13 N    1.185
     6   6 C    3.868 --     5 C    1.312     2 N    1.145     7 C    1.122
     7   6 C    3.843 --     8 O    1.656     6 C    1.122     9 N    0.982
     8   8 O    1.915 --     7 C    1.656
     9   7 N    3.582 --    10 C    1.325    11 C    1.022     7 C    0.982
    10   6 C    3.351 --     9 N    1.325    21 H    0.956    19 H    0.952
    11   6 C    3.884 --    12 O    1.690    13 N    1.082     9 N    1.022
    12   8 O    1.983 --    11 C    1.690    13 N    0.124
    13   7 N    3.526 --     5 C    1.185    11 C    1.082    14 C    0.973
                            12 O    0.124
    14   6 C    3.913 --    13 N    0.973    22 H    0.967    23 H    0.966
                            24 H    0.961
    15   1 H    0.978 --     1 C    0.953
    16   1 H    0.981 --     1 C    0.961
    17   1 H    0.979 --     1 C    0.958
    18   1 H    0.984 --     3 C    0.954
    19   1 H    0.976 --    10 C    0.952
    20   1 H    0.061
    21   1 H    0.977 --    10 C    0.956
    22   1 H    0.985 --    14 C    0.967
    23   1 H    0.984 --    14 C    0.966
    24   1 H    0.980 --    14 C    0.961
    25   1 H    0.947 --     4 N    0.920
 ---------------------------------------------------------------------------

Topologies differ in total number of bonds
Writing topology from bond orders to xtbtopo.mol

molecular dipole:
                 x           y           z       tot (Debye)
 q only:        2.242      -2.059       0.090
   full:        2.458      -2.486       0.047       8.886
molecular quadrupole (traceless):
                xx          xy          yy          xz          yz          zz
 q only:       12.315      -5.576       6.144      -2.400       2.448     -18.459
  q+dip:       10.194      -9.084       6.094      -2.151       2.561     -16.288
   full:        9.086      -8.652       5.184      -1.717       2.452     -14.270

           -------------------------------------------------
          |                Geometry Summary                 |
           -------------------------------------------------

      molecular mass/u    :      195.1988581
   center of mass at/Å    :       -0.0339508      -0.0159363       0.1098981
  moments of inertia/u·Å² :        0.4851446E+03   0.7162719E+03   0.1181488E+04
rotational constants/cm⁻¹ :        0.3474765E-01   0.2353524E-01   0.1426814E-01

 * 24 selected distances

     #   Z          #   Z                                           value/Å
     1   6 C        2   7 N                                       1.4370986
     2   7 N        3   6 C                                       1.3366849
     3   6 C        4   7 N                                       1.3581557
     4   7 N        5   6 C                                       1.3640259
     2   7 N        6   6 C                                       1.3785742
     5   6 C        6   6 C                                       1.3919898
     6   6 C        7   6 C                                       1.4289271
     7   6 C        8   8 O                                       1.2134978
     9   7 N       10   6 C                                       1.3438800
     9   7 N       11   6 C                                       1.4203459
    11   6 C       12   8 O                                       1.2025752
     5   6 C       13   7 N                                       1.3504481
    11   6 C       13   7 N                                       1.3950935
    13   7 N       14   6 C                                       1.4502237 (max)
     1   6 C       15   1 H                                       1.0917208
     1   6 C       16   1 H                                       1.0895915
     1   6 C       17   1 H                                       1.0896035
     3   6 C       18   1 H                                       1.0708027
    10   6 C       19   1 H                                       1.0749960
    10   6 C       21   1 H                                       1.0764490
    14   6 C       22   1 H                                       1.0903566
    14   6 C       23   1 H                                       1.0904242
    14   6 C       24   1 H                                       1.0891377
     4   7 N       25   1 H                                       1.0092923 (min)

 * 5 distinct bonds (by element types)

   Z      Z             #   av. dist./Å        max./Å        min./Å
   1 H    6 C           9     1.0847869     1.0917208     1.0708027
   6 C    6 C           2     1.4104584     1.4289271     1.3919898
   1 H    7 N           1     1.0092923     1.0092923     1.0092923
   6 C    7 N          10     1.3834530     1.4502237     1.3366849
   6 C    8 O           2     1.2080365     1.2134978     1.2025752


optimized geometry written to: xtbopt.xyz


           -------------------------------------------------
          | TOTAL ENERGY              -42.137909700130 Eh   |
          | GRADIENT NORM               0.004994615839 Eh/α |
          | HOMO-LUMO GAP               0.641731741961 eV   |
           -------------------------------------------------

------------------------------------------------------------------------
 * finished run on 2024/06/05 at 19:58:56.684     
------------------------------------------------------------------------
 total:
 * wall-time:     0 d,  0 h,  0 min,  0.124 sec
 *  cpu-time:     0 d,  0 h,  0 min,  0.089 sec
 * ratio c/w:     0.715 speedup
 SCF:
 * wall-time:     0 d,  0 h,  0 min,  0.025 sec
 *  cpu-time:     0 d,  0 h,  0 min,  0.025 sec
 * ratio c/w:     1.000 speedup
 ANC optimizer:
 * wall-time:     0 d,  0 h,  0 min,  0.059 sec
 *  cpu-time:     0 d,  0 h,  0 min,  0.052 sec
 * ratio c/w:     0.883 speedup

