25
 energy: -42.137909700130 gnorm: 0.004994616690 xtb: 6.6.1 (8d0f1dd)
C            3.16782590265399        1.16953088225293       -0.06957004261514
N            2.22615464537886        0.08394374718679       -0.06678587692138
C            2.50838465802544       -1.21908084718591       -0.16269886220715
N            1.36067442369869       -1.94270718083555       -0.10176765813581
C            0.32043607103295       -1.07186813808916        0.04004164227534
C            0.85952725009831        0.21130587469559        0.06195742771960
C            0.04681520076065        1.38193515368947        0.16664059577138
O            0.41158404268936        2.53930843231603        0.16934350146474
N           -1.34767847880451        1.04547965464939        0.27432831951383
C           -2.21547882509574        2.06963364236961        0.33792241049592
C           -1.89273388013928       -0.26577887931515        0.30429072351839
O           -3.07268660451780       -0.44706285779802        0.44932368591286
N           -1.00109156711858       -1.32748977671846        0.14927592298160
C           -1.52347231721353       -2.68012680751307        0.12398441528607
H            3.73352910915711        1.18522986113964        0.86401845341287
H            3.86481585250492        1.06324275407940       -0.90030306520893
H            2.62234001796301        2.10806572435570       -0.16355481363583
H            3.48808231392470       -1.63726338984186       -0.27194211874124
H           -1.81490178857862        3.06716302271650        0.32847182737832
H           -1.62390365493363        2.62476511662860       -2.22223488947750
H           -3.25481861677394        1.85285809919193        0.51547057956652
H           -1.08490120224459       -3.27422637644826        0.92621776673016
H           -1.32397068237987       -3.14685082943755       -0.84110242256291
H           -2.60079539049435       -2.62253706424383        0.27324664056014
H            1.30669503449599       -2.94923127625041       -0.15340254518272
