25
 energy: -42.102628501956 gnorm: 0.006941423003 xtb: 6.6.1 (8d0f1dd)
C            2.08113377034526        1.55679958636629       -0.31623336100800
N            1.67318909634972        0.17338243172665       -0.31707372682078
C            2.46878213607757       -0.80387822313236       -0.72513483528754
N            1.89411102874566       -1.98264651440585       -0.50652231643788
C            0.65300662104062       -1.80800941924406        0.12069293435570
C            0.50978097077186       -0.37408809657924        0.21255299729867
C           -0.57250617091041        0.33016161501453        0.83323654492459
O           -1.35530717429762       -0.17006520041205        1.62089852638738
N           -0.69267335233130        1.72161311673400        0.54247023974003
C           -1.11168213718983        2.15768474714480       -0.78258500125857
C           -2.48278212398911        1.77909079101514       -1.04057981069990
O           -3.51761570586327        1.32159449147785       -0.78785532435983
N            0.00227678819296       -2.86609931169975        0.41269606286164
C           -1.23521261379060       -3.06372080583443        1.05153052498705
H            1.53925553939321        2.09951010473067        0.45433551588469
H            3.14912820420682        1.61483503887798       -0.11169817574565
H            1.89319763603491        2.02180887139487       -1.28538680072176
H            3.44028509354929       -0.65707718351997       -1.15693560966694
H           -1.26893007417315        2.14404618892435        1.26875653477821
H           -0.46745932782613        1.72090684846512       -1.55391622663624
H           -1.02235010430715        3.25058741963499       -0.84441745483831
H           -1.11149169437329       -3.89272706904188        1.75308877834828
H           -1.97257810151528       -3.37603934523024        0.30656443122852
H           -1.60608338183905       -2.18137424620772        1.58102833477607
H            2.27295659181370       -2.89805729466308       -0.69834116419664
