25
 energy: -42.175780713480 gnorm: 0.005163590078 xtb: 6.6.1 (8d0f1dd)
C            3.23507614974016        1.20611263815585       -0.03674535448903
N            2.32946878435327        0.08937857540136       -0.05584174526447
C            2.66096018583270       -1.20858259345423       -0.08095565165163
N            1.53829518601449       -1.96802032175513       -0.05639433535653
C            0.46238441678712       -1.12405311686674       -0.01474007331548
C            0.95662781238021        0.17696713577708       -0.01236022888213
C            0.10647200945452        1.33265704396841        0.03068373032576
O            0.44042884340306        2.49937896442561        0.04613235871572
N           -1.25290810151379        0.94209407912871        0.04776939105506
C           -2.25112755819069        1.99811274810300        0.07654363031176
C           -1.69621476769757       -0.33313646525857        0.02599534280475
O           -3.01126678253449       -0.51669369094041       -0.01614762254867
N           -0.87442674486781       -1.42657271313241        0.03257790267319
C           -1.35743974248636       -2.70013678703681        0.02052439995581
H            3.76506900884003        1.24772138415994        0.91633924816290
H            3.96414887146021        1.11614039151986       -0.84121697558219
H            2.65888342928314        2.12217731080830       -0.16001540180429
H            3.65832616495692       -1.59466382895623       -0.11629277319557
H           -1.71646790513204        2.94587498873819        0.08765385735852
H           -2.88818704613292        1.93767003791306       -0.80468880340438
H           -2.86957112082766        1.90494299431404        0.96746689794203
H           -2.33102057288025       -2.91797586995355        0.40855475056085
H           -0.66860886725702       -3.50046872208438       -0.10084905155261
H           -3.21298903209075       -1.43440160696547       -0.27253882843527
H            1.51451889320453       -2.97628403440988       -0.06028304648425
