      -----------------------------------------------------------      
     |                   =====================                   |     
     |                           x T B                           |     
     |                   =====================                   |     
     |                         S. Grimme                         |     
     |          Mulliken Center for Theoretical Chemistry        |     
     |                    University of Bonn                     |     
      -----------------------------------------------------------      

   * xtb version 6.6.1 (8d0f1dd) compiled by 'conda@1efc2f54142f' on 2023-08-01

   xtb is free software: you can redistribute it and/or modify it under
   the terms of the GNU Lesser General Public License as published by
   the Free Software Foundation, either version 3 of the License, or
   (at your option) any later version.
   
   xtb is distributed in the hope that it will be useful,
   but WITHOUT ANY WARRANTY; without even the implied warranty of
   MERCHANTABILITY or FITNESS FOR A PARTICULAR PURPOSE.  See the
   GNU Lesser General Public License for more details.
   
   Cite this work as:
   * C. Bannwarth, E. Caldeweyher, S. Ehlert, A. Hansen, P. Pracht,
     J. Seibert, S. Spicher, S. Grimme, WIREs Comput. Mol. Sci., 2020, 11,
     e01493. DOI: 10.1002/wcms.1493
   
   for GFN2-xTB:
   * C. Bannwarth, S. Ehlert and S. Grimme., J. Chem. Theory Comput., 2019,
     15, 1652-1671. DOI: 10.1021/acs.jctc.8b01176
   for GFN1-xTB:
   * S. Grimme, C. Bannwarth, P. Shushkov, J. Chem. Theory Comput., 2017,
     13, 1989-2009. DOI: 10.1021/acs.jctc.7b00118
   for GFN0-xTB:
   * P. Pracht, E. Caldeweyher, S. Ehlert, S. Grimme, ChemRxiv, 2019, preprint.
     DOI: 10.26434/chemrxiv.8326202.v1
   for GFN-FF:
   * S. Spicher and S. Grimme, Angew. Chem. Int. Ed., 2020, 59, 15665-15673.
     DOI: 10.1002/anie.202004239
   
   for ALPB and GBSA implicit solvation:
   * S. Ehlert, M. Stahn, S. Spicher, S. Grimme, J. Chem. Theory Comput.,
     2021, 17, 4250-4261. DOI: 10.1021/acs.jctc.1c00471
   
   for DFT-D4:
   * E. Caldeweyher, C. Bannwarth and S. Grimme, J. Chem. Phys., 2017,
     147, 034112. DOI: 10.1063/1.4993215
   * E. Caldeweyher, S. Ehlert, A. Hansen, H. Neugebauer, S. Spicher,
     C. Bannwarth and S. Grimme, J. Chem. Phys., 2019, 150, 154122.
     DOI: 10.1063/1.5090222
   * E. Caldeweyher, J.-M. Mewes, S. Ehlert and S. Grimme, Phys. Chem. Chem. Phys.
     2020, 22, 8499-8512. DOI: 10.1039/D0CP00502A
   
   for sTDA-xTB:
   * S. Grimme and C. Bannwarth, J. Chem. Phys., 2016, 145, 054103.
     DOI: 10.1063/1.4959605
   
   in the mass-spec context:
   * V. Asgeirsson, C. Bauer and S. Grimme, Chem. Sci., 2017, 8, 4879.
     DOI: 10.1039/c7sc00601b
   * J. Koopman and S. Grimme, ACS Omega 2019, 4, 12, 15120-15133.
     DOI: 10.1021/acsomega.9b02011
   
   for metadynamics refer to:
   * S. Grimme, J. Chem. Theory Comput., 2019, 155, 2847-2862
     DOI: 10.1021/acs.jctc.9b00143
   
   for SPH calculations refer to:
   * S. Spicher and S. Grimme, J. Chem. Theory Comput., 2021, 17, 1701-1714
     DOI: 10.1021/acs.jctc.0c01306
   
   with help from (in alphabetical order)
   P. Atkinson, C. Bannwarth, F. Bohle, G. Brandenburg, E. Caldeweyher
   M. Checinski, S. Dohm, S. Ehlert, S. Ehrlich, I. Gerasimov, C. Hölzer
   A. Katbashev, J. Koopman, C. Lavigne, S. Lehtola, F. März, M. Müller,
   F. Musil, H. Neugebauer, J. Pisarek, C. Plett, P. Pracht, F. Pultar,
   J. Seibert, P. Shushkov, S. Spicher, M. Stahn, M. Steiner, T. Strunk,
   J. Stückrath, T. Rose, and J. Unsleber
   
 * started run on 2024/06/05 at 20:00:08.256     

           -------------------------------------------------
          |                Calculation Setup                |
           -------------------------------------------------

          program call               : xtb struc.xyz --opt loose --input .xc1 --gfn2
          hostname                   : n-62-11-66
          coordinate file            : struc.xyz
          omp threads                :                     1

   ID    Z sym.   atoms
    1    6 C      1, 3, 5-7, 10, 11, 14
    2    7 N      2, 4, 9, 13
    3    8 O      8, 12
    4    1 H      15-25
constraining bond 4 7 to    5.9200000 Å, actual value:    3.5994291 Å

           -------------------------------------------------
          |                 G F N 2 - x T B                 |
           -------------------------------------------------

        Reference                      10.1021/acs.jctc.8b01176
      * Hamiltonian:
        H0-scaling (s, p, d)           1.850000    2.230000    2.230000
        zeta-weighting                 0.500000
      * Dispersion:
        s8                             2.700000
        a1                             0.520000
        a2                             5.000000
        s9                             5.000000
      * Repulsion:
        kExp                           1.500000    1.000000
        rExp                           1.000000
      * Coulomb:
        alpha                          2.000000
        third order                    shell-resolved
        anisotropic                    true
        a3                             3.000000
        a5                             4.000000
        cn-shift                       1.200000
        cn-exp                         4.000000
        max-rad                        5.000000


          ...................................................
          :                      SETUP                      :
          :.................................................:
          :  # basis functions                  67          :
          :  # atomic orbitals                  67          :
          :  # shells                           39          :
          :  # electrons                        74          :
          :  max. iterations                   250          :
          :  Hamiltonian                  GFN2-xTB          :
          :  restarted?                      false          :
          :  GBSA solvation                  false          :
          :  PC potential                    false          :
          :  electronic temp.         5000.0000000     K    :
          :  accuracy                    1.0000000          :
          :  -> integral cutoff          0.2500000E+02      :
          :  -> integral neglect         0.1000000E-07      :
          :  -> SCF convergence          0.1000000E-05 Eh   :
          :  -> wf. convergence          0.1000000E-03 e    :
          :  Broyden damping             0.4000000          :
          ...................................................

 iter      E             dE          RMSdq      gap      omega  full diag
   1    -42.5894031 -0.425894E+02  0.445E+00    3.52       0.0  T
   2    -42.7683054 -0.178902E+00  0.251E+00    3.36       1.0  T
   3    -42.7759211 -0.761567E-02  0.147E+00    3.35       1.0  T
   4    -42.7728404  0.308066E-02  0.553E-01    3.33       1.0  T
   5    -42.7789548 -0.611444E-02  0.112E-01    3.35       1.0  T
   6    -42.7790473 -0.924914E-04  0.614E-02    3.33       1.0  T
   7    -42.7790721 -0.247928E-04  0.258E-02    3.34       1.0  T
   8    -42.7790772 -0.508996E-05  0.938E-03    3.34       2.1  T
   9    -42.7790779 -0.669422E-06  0.448E-03    3.34       4.5  T
  10    -42.7790780 -0.821510E-07  0.115E-03    3.34      17.4  T
  11    -42.7790780 -0.322663E-08  0.553E-04    3.34      36.2  T
  12    -42.7790780 -0.287051E-08  0.180E-04    3.34     111.1  T

   *** convergence criteria satisfied after 12 iterations ***

         #    Occupation            Energy/Eh            Energy/eV
      -------------------------------------------------------------
         1        2.0000           -0.9185990             -24.9964
       ...           ...                  ...                  ...
        31        1.9996           -0.6230278             -16.9534
        32        1.9995           -0.6194601             -16.8564
        33        1.9979           -0.5974976             -16.2587
        34        1.9932           -0.5789629             -15.7544
        35        1.9817           -0.5631863             -15.3251
        36        1.9779           -0.5602245             -15.2445
        37        1.9748           -0.5581234             -15.1873 (HOMO)
        38        0.0652           -0.4353579             -11.8467 (LUMO)
        39        0.0099           -0.4050467             -11.0219
        40        0.0013           -0.3732218             -10.1559
        41        0.0000           -0.2886859              -7.8555
        42                         -0.2065804              -5.6213
       ...                                ...                  ...
        67                          0.5625656              15.3082
      -------------------------------------------------------------
                  HL-Gap            0.1227656 Eh            3.3406 eV
             Fermi-level           -0.4890455 Eh          -13.3076 eV

 SCC (total)                   0 d,  0 h,  0 min,  0.033 sec
 SCC setup                      ...        0 min,  0.000 sec (  0.704%)
 Dispersion                     ...        0 min,  0.000 sec (  0.800%)
 classical contributions        ...        0 min,  0.000 sec (  0.221%)
 integral evaluation            ...        0 min,  0.005 sec ( 14.479%)
 iterations                     ...        0 min,  0.016 sec ( 48.306%)
 molecular gradient             ...        0 min,  0.012 sec ( 35.025%)
 printout                       ...        0 min,  0.000 sec (  0.444%)

         :::::::::::::::::::::::::::::::::::::::::::::::::::::
         ::                     SUMMARY                     ::
         :::::::::::::::::::::::::::::::::::::::::::::::::::::
         :: total energy              -3.787144454879 Eh    ::
         :: gradient norm             24.803800106373 Eh/a0 ::
         :: HOMO-LUMO gap              3.340621582928 eV    ::
         ::.................................................::
         :: SCC energy               -42.779077977399 Eh    ::
         :: -> isotropic ES            0.141123876439 Eh    ::
         :: -> anisotropic ES         -0.005230418907 Eh    ::
         :: -> anisotropic XC          0.011966818540 Eh    ::
         :: -> dispersion             -0.022657731803 Eh    ::
         :: repulsion energy           0.531105277918 Eh    ::
         :: add. restraining          38.460714085593 Eh    ::
         :: total charge               1.000000000002 e     ::
         :::::::::::::::::::::::::::::::::::::::::::::::::::::

      ----------------------------------------------------------- 
     |                   =====================                   |
     |                        A N C O P T                        |
     |                   =====================                   |
     |               Approximate Normal Coordinate               |
     |                Rational Function Optimizer                |
      ----------------------------------------------------------- 

          ...................................................
          :                      SETUP                      :
          :.................................................:
          :   optimization level             loose          :
          :   max. optcycles                   200          :
          :   ANC micro-cycles                  20          :
          :   degrees of freedom                69          :
          :.................................................:
          :   RF solver                   davidson          :
          :   write xtbopt.log                true          :
          :   linear?                        false          :
          :   energy convergence         0.5000000E-04 Eh   :
          :   grad. convergence          0.4000000E-02 Eh/α :
          :   maxmium RF displ.          1.0000000          :
          :   Hlow (freq-cutoff)         0.1000000E-01      :
          :   Hmax (freq-cutoff)         5.0000000          :
          :   S6 in model hess.         20.0000000          :
          ...................................................

generating ANC from model Hessian ...
Using Lindh-Hessian (1995)
 Shifting diagonal of input Hessian by    4.6607687930831503     
 Lowest  eigenvalues of input Hessian
    0.010000    0.857222    0.000000    0.000000    0.000000    0.000000
    0.000000    0.000000    4.664006    4.666173    4.668583    4.669395
    4.670985    4.672623    4.673882    4.677734    4.685002    4.693013
 Highest eigenvalues
    6.725208    6.808463    6.853606    6.979901    7.154632   14.105194


........................................................................
.............................. CYCLE    1 ..............................
........................................................................

 iter      E             dE          RMSdq      gap      omega  full diag
   1    -42.7790780 -0.427791E+02  0.626E-05    3.34       0.0  T
   2    -42.7790780 -0.124416E-10  0.329E-05    3.34     607.4  T
   3    -42.7790780  0.127898E-12  0.193E-05    3.34    1034.2  T
     SCC iter.                  ...        0 min,  0.004 sec
     gradient                   ...        0 min,  0.011 sec
 * total energy  :    -3.7871445 Eh     change       -0.6650680E-10 Eh
   gradient norm :    24.8037998 Eh/α   predicted     0.0000000E+00 (-100.00%)
   displ. norm   :     0.9042818 α      lambda       -0.2242961E+02
   maximum displ.:     0.8993461 α      in ANC's #41, #48, #62, ...

........................................................................
.............................. CYCLE    2 ..............................
........................................................................

 iter      E             dE          RMSdq      gap      omega  full diag
   1    -42.6199166 -0.426199E+02  0.194E+00    2.49       0.0  T
   2    -42.7049736 -0.850570E-01  0.110E+00    2.85       1.0  T
   3    -42.7106954 -0.572184E-02  0.592E-01    2.76       1.0  T
   4    -42.7103433  0.352115E-03  0.282E-01    2.84       1.0  T
   5    -42.7107358 -0.392464E-03  0.101E-01    2.74       1.0  T
   6    -42.7109657 -0.229932E-03  0.304E-02    2.79       1.0  T
   7    -42.7109710 -0.529359E-05  0.130E-02    2.78       1.5  T
   8    -42.7109733 -0.232994E-05  0.436E-03    2.78       4.6  T
   9    -42.7109735 -0.163112E-06  0.191E-03    2.78      10.5  T
  10    -42.7109735 -0.218674E-07  0.924E-04    2.78      21.6  T
  11    -42.7109735 -0.991429E-08  0.328E-04    2.78      61.0  T
     SCC iter.                  ...        0 min,  0.014 sec
     gradient                   ...        0 min,  0.011 sec
 * total energy  :   -22.5735129 Eh     change       -0.1878637E+02 Eh
   gradient norm :    16.6826098 Eh/α   predicted    -0.2038544E+02 (   8.51%)
   displ. norm   :     0.7797693 α      lambda       -0.1288684E+02
   maximum displ.:     0.7537141 α      in ANC's #41, #48, #2, ...

........................................................................
.............................. CYCLE    3 ..............................
........................................................................

 iter      E             dE          RMSdq      gap      omega  full diag
   1    -42.4870992 -0.424871E+02  0.159E+00    2.11       0.0  T
   2    -42.5088340 -0.217348E-01  0.127E+00    2.51       1.0  T
   3    -42.5433944 -0.345604E-01  0.673E-01    2.21       1.0  T
   4    -42.5510249 -0.763046E-02  0.289E-01    2.31       1.0  T
   5    -42.5511051 -0.802356E-04  0.143E-01    2.29       1.0  T
   6    -42.5511557 -0.506265E-04  0.820E-02    2.30       1.0  T
   7    -42.5513090 -0.153281E-03  0.203E-02    2.29       1.0  T
   8    -42.5513119 -0.290938E-05  0.123E-02    2.30       1.6  T
   9    -42.5513129 -0.950967E-06  0.684E-03    2.29       2.9  T
  10    -42.5513138 -0.878661E-06  0.172E-03    2.30      11.6  T
  11    -42.5513138 -0.141811E-07  0.967E-04    2.30      20.7  T
  12    -42.5513138 -0.661527E-08  0.255E-04    2.30      78.5  T
     SCC iter.                  ...        0 min,  0.015 sec
     gradient                   ...        0 min,  0.011 sec
 * total energy  :   -33.0865812 Eh     change       -0.1051307E+02 Eh
   gradient norm :    10.6526027 Eh/α   predicted    -0.1039790E+02 (  -1.10%)
   displ. norm   :     0.8176701 α      lambda       -0.8343219E+01
   maximum displ.:     0.6527336 α      in ANC's #41, #2, #48, ...

........................................................................
.............................. CYCLE    4 ..............................
........................................................................

 iter      E             dE          RMSdq      gap      omega  full diag
   1    -42.3097496 -0.423097E+02  0.181E+00    1.16       0.0  T
   2    -42.2854382  0.243115E-01  0.184E+00    2.02       1.0  T
   3    -42.3611656 -0.757274E-01  0.854E-01    1.91       1.0  T
   4    -42.3749944 -0.138288E-01  0.619E-01    1.68       1.0  T
   5    -42.3834196 -0.842520E-02  0.199E-01    1.84       1.0  T
   6    -42.3832337  0.185874E-03  0.165E-01    1.73       1.0  T
   7    -42.3841874 -0.953695E-03  0.606E-02    1.78       1.0  T
   8    -42.3842347 -0.473186E-04  0.253E-02    1.80       1.0  T
   9    -42.3842499 -0.151564E-04  0.101E-02    1.79       2.0  T
  10    -42.3842526 -0.272790E-05  0.463E-03    1.79       4.3  T
  11    -42.3842528 -0.202189E-06  0.294E-03    1.79       6.8  T
  12    -42.3842529 -0.143191E-06  0.996E-04    1.79      20.1  T
  13    -42.3842530 -0.115137E-07  0.273E-04    1.79      73.2  T
     SCC iter.                  ...        0 min,  0.016 sec
     gradient                   ...        0 min,  0.011 sec
 * total energy  :   -39.5020743 Eh     change       -0.6415493E+01 Eh
   gradient norm :     5.7938614 Eh/α   predicted    -0.6960746E+01 (   8.50%)
   displ. norm   :     0.5892553 α      lambda       -0.3397111E+01
   maximum displ.:     0.5557594 α      in ANC's #41, #2, #48, ...

........................................................................
.............................. CYCLE    5 ..............................
........................................................................

 iter      E             dE          RMSdq      gap      omega  full diag
   1    -42.1338283 -0.421338E+02  0.219E+00    0.44       0.0  T
   2    -42.1019762  0.318521E-01  0.213E+00    1.38       1.0  T
   3    -42.2511261 -0.149150E+00  0.757E-01    1.53       1.0  T
   4    -42.2537869 -0.266074E-02  0.513E-01    1.38       1.0  T
   5    -42.2498214  0.396544E-02  0.577E-01    1.14       1.0  T
   6    -42.2584381 -0.861663E-02  0.278E-01    1.27       1.0  T
   7    -42.2613220 -0.288388E-02  0.796E-02    1.27       1.0  T
   8    -42.2613664 -0.444770E-04  0.482E-02    1.26       1.0  T
   9    -42.2614376 -0.712065E-04  0.207E-02    1.28       1.0  T
  10    -42.2614462 -0.858792E-05  0.709E-03    1.28       2.8  T
  11    -42.2614472 -0.100207E-05  0.420E-03    1.28       4.8  T
  12    -42.2614476 -0.357537E-06  0.143E-03    1.28      14.0  T
  13    -42.2614476 -0.394854E-07  0.385E-04    1.28      52.0  T
  14    -42.2614476 -0.204371E-08  0.165E-04    1.28     121.1  T
     SCC iter.                  ...        0 min,  0.017 sec
     gradient                   ...        0 min,  0.011 sec
 * total energy  :   -41.6003209 Eh     change       -0.2098247E+01 Eh
   gradient norm :     1.3290756 Eh/α   predicted    -0.2288332E+01 (   9.06%)
   displ. norm   :     0.2337377 α      lambda       -0.2633998E+00
   maximum displ.:     0.1720129 α      in ANC's #2, #41, #31, ...

........................................................................
.............................. CYCLE    6 ..............................
........................................................................

 iter      E             dE          RMSdq      gap      omega  full diag
   1    -42.1873345 -0.421873E+02  0.126E+00    0.59       0.0  T
   2    -42.1165041  0.708304E-01  0.171E+00    1.53       1.0  T
   3    -42.2211428 -0.104639E+00  0.571E-01    1.09       1.0  T
   4    -42.2297669 -0.862409E-02  0.196E-01    1.10       1.0  T
   5    -42.2292540  0.512813E-03  0.227E-01    1.06       1.0  T
   6    -42.2295623 -0.308270E-03  0.153E-01    1.02       1.0  T
   7    -42.2303843 -0.821952E-03  0.410E-02    1.06       1.0  T
   8    -42.2304033 -0.190716E-04  0.239E-02    1.09       1.0  T
   9    -42.2304244 -0.211074E-04  0.670E-03    1.08       3.0  T
  10    -42.2304252 -0.793861E-06  0.358E-03    1.07       5.6  T
  11    -42.2304255 -0.225369E-06  0.164E-03    1.08      12.2  T
  12    -42.2304255 -0.400797E-07  0.496E-04    1.08      40.3  T
  13    -42.2304255 -0.397474E-08  0.219E-04    1.08      91.2  T
     SCC iter.                  ...        0 min,  0.016 sec
     gradient                   ...        0 min,  0.011 sec
 * total energy  :   -41.7433353 Eh     change       -0.1430144E+00 Eh
   gradient norm :     0.2525522 Eh/α   predicted    -0.1388956E+00 (  -2.88%)
   displ. norm   :     0.1143450 α      lambda       -0.1939139E-01
   maximum displ.:     0.0880246 α      in ANC's #2, #1, #63, ...

........................................................................
.............................. CYCLE    7 ..............................
........................................................................

 iter      E             dE          RMSdq      gap      omega  full diag
   1    -42.2355998 -0.422356E+02  0.355E-01    0.94       0.0  T
   2    -42.2276905  0.790936E-02  0.536E-01    1.35       1.0  T
   3    -42.2371477 -0.945721E-02  0.213E-01    1.00       1.0  T
   4    -42.2384609 -0.131320E-02  0.816E-02    1.04       1.0  T
   5    -42.2384187  0.421447E-04  0.759E-02    1.06       1.0  T
   6    -42.2385377 -0.118956E-03  0.298E-02    1.05       1.0  T
   7    -42.2385658 -0.281382E-04  0.129E-02    1.06       1.6  T
   8    -42.2385687 -0.285955E-05  0.462E-03    1.06       4.3  T
   9    -42.2385693 -0.645984E-06  0.193E-03    1.06      10.4  T
  10    -42.2385694 -0.741605E-07  0.846E-04    1.06      23.6  T
  11    -42.2385694 -0.187468E-07  0.276E-04    1.06      72.4  T
     SCC iter.                  ...        0 min,  0.014 sec
     gradient                   ...        0 min,  0.011 sec
 * total energy  :   -41.7598238 Eh     change       -0.1648853E-01 Eh
   gradient norm :     0.2386037 Eh/α   predicted    -0.9822417E-02 ( -40.43%)
   displ. norm   :     0.2858136 α      lambda       -0.4766830E-01
   maximum displ.:     0.2074233 α      in ANC's #2, #1, #63, ...

........................................................................
.............................. CYCLE    8 ..............................
........................................................................

 iter      E             dE          RMSdq      gap      omega  full diag
   1    -42.2751113 -0.422751E+02  0.644E-01    1.03       0.0  T
   2    -42.2710703  0.404099E-02  0.585E-01    1.41       1.0  T
   3    -42.2783639 -0.729355E-02  0.368E-01    1.02       1.0  T
   4    -42.2816173 -0.325342E-02  0.149E-01    1.15       1.0  T
   5    -42.2814302  0.187069E-03  0.118E-01    1.15       1.0  T
   6    -42.2818744 -0.444112E-03  0.241E-02    1.13       1.0  T
   7    -42.2818831 -0.876433E-05  0.136E-02    1.15       1.5  T
   8    -42.2818852 -0.206311E-05  0.683E-03    1.14       2.9  T
   9    -42.2818864 -0.126051E-05  0.160E-03    1.14      12.5  T
  10    -42.2818865 -0.432236E-07  0.835E-04    1.14      23.9  T
  11    -42.2818865 -0.972744E-08  0.393E-04    1.14      50.9  T
     SCC iter.                  ...        0 min,  0.014 sec
     gradient                   ...        0 min,  0.011 sec
 * total energy  :   -41.7940501 Eh     change       -0.3422629E-01 Eh
   gradient norm :     0.2254057 Eh/α   predicted    -0.2578092E-01 ( -24.68%)
   displ. norm   :     0.3095037 α      lambda       -0.3320883E-01
   maximum displ.:     0.1611970 α      in ANC's #1, #2, #63, ...

........................................................................
.............................. CYCLE    9 ..............................
........................................................................

 iter      E             dE          RMSdq      gap      omega  full diag
   1    -42.3381720 -0.423382E+02  0.553E-01    1.44       0.0  T
   2    -42.3389961 -0.824053E-03  0.354E-01    1.21       1.0  T
   3    -42.3410835 -0.208741E-02  0.233E-01    1.40       1.0  T
   4    -42.3416935 -0.609981E-03  0.100E-01    1.29       1.0  T
   5    -42.3417747 -0.812018E-04  0.545E-02    1.34       1.0  T
   6    -42.3418729 -0.982487E-04  0.154E-02    1.32       1.3  T
   7    -42.3418755 -0.253875E-05  0.845E-03    1.32       2.4  T
   8    -42.3418761 -0.683861E-06  0.384E-03    1.32       5.2  T
   9    -42.3418765 -0.330275E-06  0.114E-03    1.32      17.5  T
  10    -42.3418765 -0.187459E-07  0.513E-04    1.32      39.0  T
  11    -42.3418765 -0.268631E-08  0.131E-04    1.32     152.9  T
     SCC iter.                  ...        0 min,  0.014 sec
     gradient                   ...        0 min,  0.011 sec
 * total energy  :   -41.8171971 Eh     change       -0.2314703E-01 Eh
   gradient norm :     0.2128942 Eh/α   predicted    -0.1819477E-01 ( -21.39%)
   displ. norm   :     0.2991351 α      lambda       -0.2483914E-01
   maximum displ.:     0.2021789 α      in ANC's #1, #68, #63, ...

........................................................................
.............................. CYCLE   10 ..............................
........................................................................

 iter      E             dE          RMSdq      gap      omega  full diag
   1    -42.3927836 -0.423928E+02  0.480E-01    1.48       0.0  T
   2    -42.3943921 -0.160850E-02  0.312E-01    1.31       1.0  T
   3    -42.3956663 -0.127422E-02  0.177E-01    1.45       1.0  T
   4    -42.3956077  0.586227E-04  0.105E-01    1.34       1.0  T
   5    -42.3959104 -0.302662E-03  0.400E-02    1.42       1.0  T
   6    -42.3959498 -0.394798E-04  0.115E-02    1.40       1.7  T
   7    -42.3959504 -0.549844E-06  0.784E-03    1.40       2.6  T
   8    -42.3959515 -0.114765E-05  0.225E-03    1.40       8.9  T
   9    -42.3959516 -0.865897E-07  0.768E-04    1.40      26.0  T
  10    -42.3959516 -0.396307E-08  0.323E-04    1.40      61.9  T
     SCC iter.                  ...        0 min,  0.012 sec
     gradient                   ...        0 min,  0.011 sec
 * total energy  :   -41.8335696 Eh     change       -0.1637251E-01 Eh
   gradient norm :     0.2066156 Eh/α   predicted    -0.1353068E-01 ( -17.36%)
   displ. norm   :     0.2285095 α      lambda       -0.2285039E-01
   maximum displ.:     0.1569243 α      in ANC's #1, #2, #68, ...

........................................................................
.............................. CYCLE   11 ..............................
........................................................................

 iter      E             dE          RMSdq      gap      omega  full diag
   1    -42.4238487 -0.424238E+02  0.590E-01    1.86       0.0  T
   2    -42.4238594 -0.106799E-04  0.543E-01    1.27       1.0  T
   3    -42.4310313 -0.717189E-02  0.223E-01    1.65       1.0  T
   4    -42.4315769 -0.545589E-03  0.106E-01    1.55       1.0  T
   5    -42.4315659  0.109638E-04  0.590E-02    1.55       1.0  T
   6    -42.4316473 -0.814571E-04  0.160E-02    1.57       1.2  T
   7    -42.4316504 -0.309761E-05  0.560E-03    1.56       3.6  T
   8    -42.4316509 -0.409070E-06  0.183E-03    1.57      10.9  T
   9    -42.4316509 -0.503818E-07  0.797E-04    1.56      25.1  T
  10    -42.4316509 -0.603016E-09  0.386E-04    1.56      51.8  T
     SCC iter.                  ...        0 min,  0.012 sec
     gradient                   ...        0 min,  0.011 sec
 * total energy  :   -41.8479066 Eh     change       -0.1433691E-01 Eh
   gradient norm :     0.2101457 Eh/α   predicted    -0.1202182E-01 ( -16.15%)
   displ. norm   :     0.2541810 α      lambda       -0.1767192E-01
   maximum displ.:     0.2133798 α      in ANC's #1, #2, #35, ...

........................................................................
.............................. CYCLE   12 ..............................
........................................................................

 iter      E             dE          RMSdq      gap      omega  full diag
   1    -42.4273636 -0.424274E+02  0.414E-01    1.29       0.0  T
   2    -42.4284588 -0.109525E-02  0.294E-01    1.51       1.0  T
   3    -42.4295913 -0.113243E-02  0.170E-01    1.32       1.0  T
   4    -42.4296651 -0.738591E-04  0.111E-01    1.46       1.0  T
   5    -42.4299396 -0.274468E-03  0.324E-02    1.39       1.0  T
   6    -42.4299604 -0.207733E-04  0.180E-02    1.40       1.1  T
   7    -42.4299663 -0.588289E-05  0.536E-03    1.40       3.7  T
   8    -42.4299666 -0.343576E-06  0.141E-03    1.40      14.2  T
   9    -42.4299666 -0.163195E-07  0.806E-04    1.40      24.8  T
  10    -42.4299666 -0.202152E-08  0.395E-04    1.40      50.7  T
     SCC iter.                  ...        0 min,  0.012 sec
     gradient                   ...        0 min,  0.011 sec
 * total energy  :   -41.8608658 Eh     change       -0.1295921E-01 Eh
   gradient norm :     0.1974664 Eh/α   predicted    -0.9406867E-02 ( -27.41%)
   displ. norm   :     0.2712405 α      lambda       -0.2028029E-01
   maximum displ.:     0.1977784 α      in ANC's #1, #2, #38, ...

........................................................................
.............................. CYCLE   13 ..............................
........................................................................

 iter      E             dE          RMSdq      gap      omega  full diag
   1    -42.4188233 -0.424188E+02  0.615E-01    0.83       0.0  T
   2    -42.4091150  0.970837E-02  0.739E-01    1.72       1.0  T
   3    -42.4282978 -0.191828E-01  0.189E-01    1.17       1.0  T
   4    -42.4280452  0.252557E-03  0.141E-01    1.17       1.0  T
   5    -42.4283716 -0.326430E-03  0.610E-02    1.17       1.0  T
   6    -42.4284688 -0.971963E-04  0.157E-02    1.18       1.3  T
   7    -42.4284711 -0.225713E-05  0.722E-03    1.18       2.8  T
   8    -42.4284715 -0.452297E-06  0.367E-03    1.18       5.4  T
   9    -42.4284718 -0.271311E-06  0.121E-03    1.18      16.6  T
  10    -42.4284718 -0.175041E-07  0.567E-04    1.18      35.3  T
  11    -42.4284718 -0.512330E-08  0.179E-04    1.18     111.9  T
     SCC iter.                  ...        0 min,  0.014 sec
     gradient                   ...        0 min,  0.011 sec
 * total energy  :   -41.8764945 Eh     change       -0.1562877E-01 Eh
   gradient norm :     0.2078876 Eh/α   predicted    -0.1088648E-01 ( -30.34%)
   displ. norm   :     0.4330236 α      lambda       -0.3559613E-01
   maximum displ.:     0.2253746 α      in ANC's #1, #38, #35, ...

........................................................................
.............................. CYCLE   14 ..............................
........................................................................

 iter      E             dE          RMSdq      gap      omega  full diag
   1    -42.4443119 -0.424443E+02  0.643E-01    1.38       0.0  T
   2    -42.4440912  0.220653E-03  0.403E-01    1.20       1.0  T
   3    -42.4408847  0.320652E-02  0.425E-01    1.52       1.0  T
   4    -42.4452405 -0.435584E-02  0.113E-01    1.29       1.0  T
   5    -42.4455719 -0.331350E-03  0.348E-02    1.31       1.0  T
   6    -42.4455885 -0.165799E-04  0.203E-02    1.32       1.0  T
   7    -42.4455963 -0.781174E-05  0.704E-03    1.31       2.8  T
   8    -42.4455974 -0.110716E-05  0.226E-03    1.31       8.9  T
   9    -42.4455974 -0.388575E-07  0.138E-03    1.31      14.5  T
  10    -42.4455974 -0.108072E-07  0.580E-04    1.31      34.5  T
  11    -42.4455974 -0.345953E-08  0.217E-04    1.31      92.3  T
     SCC iter.                  ...        0 min,  0.014 sec
     gradient                   ...        0 min,  0.011 sec
 * total energy  :   -41.8965445 Eh     change       -0.2004999E-01 Eh
   gradient norm :     0.2110897 Eh/α   predicted    -0.2113559E-01 (   5.41%)
   displ. norm   :     0.2241548 α      lambda       -0.1881304E-01
   maximum displ.:     0.1234624 α      in ANC's #1, #38, #35, ...

........................................................................
.............................. CYCLE   15 ..............................
........................................................................

 iter      E             dE          RMSdq      gap      omega  full diag
   1    -42.4449309 -0.424449E+02  0.519E-01    1.00       0.0  T
   2    -42.4404681  0.446279E-02  0.597E-01    1.65       1.0  T
   3    -42.4521017 -0.116335E-01  0.168E-01    1.22       1.0  T
   4    -42.4522970 -0.195360E-03  0.108E-01    1.27       1.0  T
   5    -42.4523104 -0.133673E-04  0.639E-02    1.26       1.0  T
   6    -42.4524219 -0.111531E-03  0.151E-02    1.24       1.3  T
   7    -42.4524289 -0.700376E-05  0.352E-03    1.25       5.7  T
   8    -42.4524290 -0.412970E-07  0.190E-03    1.25      10.5  T
   9    -42.4524290 -0.616069E-07  0.730E-04    1.25      27.4  T
  10    -42.4524290 -0.522968E-08  0.285E-04    1.25      70.3  T
     SCC iter.                  ...        0 min,  0.012 sec
     gradient                   ...        0 min,  0.011 sec
 * total energy  :   -41.9096815 Eh     change       -0.1313694E-01 Eh
   gradient norm :     0.1699251 Eh/α   predicted    -0.9880174E-02 ( -24.79%)
   displ. norm   :     0.2527377 α      lambda       -0.1689494E-01
   maximum displ.:     0.1781937 α      in ANC's #1, #2, #38, ...

........................................................................
.............................. CYCLE   16 ..............................
........................................................................

 iter      E             dE          RMSdq      gap      omega  full diag
   1    -42.4746783 -0.424747E+02  0.392E-01    1.66       0.0  T
   2    -42.4749755 -0.297175E-03  0.330E-01    1.31       1.0  T
   3    -42.4776302 -0.265468E-02  0.152E-01    1.55       1.0  T
   4    -42.4778301 -0.199896E-03  0.831E-02    1.45       1.0  T
   5    -42.4778987 -0.686532E-04  0.410E-02    1.49       1.0  T
   6    -42.4779414 -0.426881E-04  0.114E-02    1.48       1.8  T
   7    -42.4779438 -0.243070E-05  0.419E-03    1.48       4.8  T
   8    -42.4779439 -0.107423E-06  0.995E-04    1.48      20.1  T
   9    -42.4779440 -0.108357E-07  0.444E-04    1.48      45.0  T
     SCC iter.                  ...        0 min,  0.011 sec
     gradient                   ...        0 min,  0.011 sec
 * total energy  :   -41.9209024 Eh     change       -0.1122094E-01 Eh
   gradient norm :     0.1563583 Eh/α   predicted    -0.8987169E-02 ( -19.91%)
   displ. norm   :     0.1523043 α      lambda       -0.1002620E-01
   maximum displ.:     0.0552091 α      in ANC's #35, #38, #14, ...

........................................................................
.............................. CYCLE   17 ..............................
........................................................................

 iter      E             dE          RMSdq      gap      omega  full diag
   1    -42.4911386 -0.424911E+02  0.213E-01    1.63       0.0  T
   2    -42.4913187 -0.180117E-03  0.134E-01    1.51       1.0  T
   3    -42.4915293 -0.210579E-03  0.920E-02    1.61       1.0  T
   4    -42.4916353 -0.106037E-03  0.397E-02    1.55       1.0  T
   5    -42.4916600 -0.246973E-04  0.122E-02    1.58       1.6  T
   6    -42.4916635 -0.345540E-05  0.520E-03    1.57       3.8  T
   7    -42.4916639 -0.455673E-06  0.237E-03    1.57       8.4  T
   8    -42.4916640 -0.225888E-07  0.891E-04    1.57      22.5  T
   9    -42.4916640 -0.127455E-07  0.279E-04    1.57      71.7  T
     SCC iter.                  ...        0 min,  0.011 sec
     gradient                   ...        0 min,  0.011 sec
 * total energy  :   -41.9284024 Eh     change       -0.7499991E-02 Eh
   gradient norm :     0.1617717 Eh/α   predicted    -0.5129452E-02 ( -31.61%)
   displ. norm   :     0.2562617 α      lambda       -0.1457935E-01
   maximum displ.:     0.0936634 α      in ANC's #35, #33, #38, ...

........................................................................
.............................. CYCLE   18 ..............................
........................................................................

 iter      E             dE          RMSdq      gap      omega  full diag
   1    -42.5201026 -0.425201E+02  0.373E-01    1.78       0.0  T
   2    -42.5204392 -0.336619E-03  0.250E-01    1.54       1.0  T
   3    -42.5211518 -0.712637E-03  0.164E-01    1.74       1.0  T
   4    -42.5214295 -0.277692E-03  0.715E-02    1.63       1.0  T
   5    -42.5215465 -0.116950E-03  0.166E-02    1.67       1.2  T
   6    -42.5215503 -0.383445E-05  0.890E-03    1.67       2.2  T
   7    -42.5215511 -0.805845E-06  0.457E-03    1.66       4.4  T
   8    -42.5215515 -0.373417E-06  0.138E-03    1.67      14.5  T
   9    -42.5215515 -0.133178E-07  0.678E-04    1.67      29.5  T
  10    -42.5215515 -0.301217E-08  0.227E-04    1.67      87.9  T
     SCC iter.                  ...        0 min,  0.012 sec
     gradient                   ...        0 min,  0.011 sec
 * total energy  :   -41.9398181 Eh     change       -0.1141569E-01 Eh
   gradient norm :     0.1796684 Eh/α   predicted    -0.7769078E-02 ( -31.94%)
   displ. norm   :     0.3532376 α      lambda       -0.2040832E-01
   maximum displ.:     0.1288549 α      in ANC's #35, #33, #12, ...

........................................................................
.............................. CYCLE   19 ..............................
........................................................................

 iter      E             dE          RMSdq      gap      omega  full diag
   1    -42.5457383 -0.425457E+02  0.587E-01    1.95       0.0  T
   2    -42.5475578 -0.181952E-02  0.414E-01    1.59       1.0  T
   3    -42.5500648 -0.250698E-02  0.232E-01    1.85       1.0  T
   4    -42.5503109 -0.246136E-03  0.125E-01    1.70       1.0  T
   5    -42.5506614 -0.350450E-03  0.210E-02    1.77       1.0  T
   6    -42.5506653 -0.391267E-05  0.118E-02    1.77       1.7  T
   7    -42.5506663 -0.105228E-05  0.576E-03    1.76       3.5  T
   8    -42.5506669 -0.608550E-06  0.217E-03    1.77       9.2  T
   9    -42.5506670 -0.586918E-07  0.103E-03    1.77      19.5  T
  10    -42.5506670 -0.489285E-08  0.361E-04    1.77      55.4  T
  11    -42.5506670 -0.143556E-08  0.157E-04    1.77     127.5  T
     SCC iter.                  ...        0 min,  0.014 sec
     gradient                   ...        0 min,  0.011 sec
 * total energy  :   -41.9551587 Eh     change       -0.1534061E-01 Eh
   gradient norm :     0.1667663 Eh/α   predicted    -0.1147744E-01 ( -25.18%)
   displ. norm   :     0.3787039 α      lambda       -0.1740046E-01
   maximum displ.:     0.1352096 α      in ANC's #35, #33, #12, ...

........................................................................
.............................. CYCLE   20 ..............................
........................................................................

 iter      E             dE          RMSdq      gap      omega  full diag
   1    -42.5682420 -0.425682E+02  0.556E-01    2.02       0.0  T
   2    -42.5692828 -0.104077E-02  0.380E-01    1.71       1.0  T
   3    -42.5706180 -0.133517E-02  0.232E-01    1.95       1.0  T
   4    -42.5710816 -0.463688E-03  0.994E-02    1.82       1.0  T
   5    -42.5712849 -0.203246E-03  0.187E-02    1.86       1.1  T
   6    -42.5712881 -0.323354E-05  0.109E-02    1.86       1.8  T
   7    -42.5712893 -0.119866E-05  0.522E-03    1.86       3.8  T
   8    -42.5712898 -0.507519E-06  0.170E-03    1.86      11.8  T
   9    -42.5712899 -0.344023E-07  0.756E-04    1.86      26.4  T
  10    -42.5712899 -0.248873E-08  0.205E-04    1.86      97.7  T
     SCC iter.                  ...        0 min,  0.012 sec
     gradient                   ...        0 min,  0.011 sec
 * total energy  :   -41.9683451 Eh     change       -0.1318640E-01 Eh
   gradient norm :     0.1504193 Eh/α   predicted    -0.9948203E-02 ( -24.56%)
   displ. norm   :     0.4007366 α      lambda       -0.1637231E-01
   maximum displ.:     0.1424113 α      in ANC's #35, #33, #12, ...
 * RMSD in coord.:     0.8746409 α      energy gain  -0.3818120E+02 Eh

generating ANC from model Hessian ...
Using Lindh-Hessian (1995)
 Shifting diagonal of input Hessian by    1.1235350936144769E-002
 Lowest  eigenvalues of input Hessian
    0.010000    0.011163    0.000000    0.000000    0.000000    0.000000
    0.000000    0.000000    0.012172    0.013248    0.013541    0.013880
    0.016856    0.021223    0.021554    0.021947    0.022585    0.024099
 Highest eigenvalues
    1.910604    2.144025    2.325421    2.887608    2.900998    8.630176


........................................................................
.............................. CYCLE   21 ..............................
........................................................................

 iter      E             dE          RMSdq      gap      omega  full diag
   1    -42.5781366 -0.425781E+02  0.494E-01    1.93       0.0  T
   2    -42.5785483 -0.411638E-03  0.309E-01    1.87       1.0  T
   3    -42.5782014  0.346826E-03  0.214E-01    1.98       1.0  T
   4    -42.5789751 -0.773686E-03  0.694E-02    1.90       1.0  T
   5    -42.5790605 -0.853443E-04  0.170E-02    1.92       1.2  T
   6    -42.5790645 -0.397399E-05  0.782E-03    1.92       2.6  T
   7    -42.5790646 -0.134813E-06  0.441E-03    1.92       4.5  T
   8    -42.5790649 -0.360354E-06  0.132E-03    1.92      15.2  T
   9    -42.5790650 -0.288795E-07  0.602E-04    1.92      33.2  T
  10    -42.5790650 -0.304714E-08  0.198E-04    1.92     100.9  T
     SCC iter.                  ...        0 min,  0.012 sec
     gradient                   ...        0 min,  0.011 sec
 * total energy  :   -41.9806452 Eh     change       -0.1230006E-01 Eh
   gradient norm :     0.1460129 Eh/α   predicted     0.0000000E+00 (-100.00%)
   displ. norm   :     0.5528634 α      lambda       -0.4791797E-01
   maximum displ.:     0.2344895 α      in ANC's #18, #15, #14, ...

........................................................................
.............................. CYCLE   22 ..............................
........................................................................

 iter      E             dE          RMSdq      gap      omega  full diag
   1    -42.6168726 -0.426169E+02  0.507E-01    1.75       0.0  T
   2    -42.6170659 -0.193297E-03  0.363E-01    2.01       1.0  T
   3    -42.6172679 -0.202038E-03  0.225E-01    1.79       1.0  T
   4    -42.6180418 -0.773896E-03  0.663E-02    1.91       1.0  T
   5    -42.6181526 -0.110769E-03  0.143E-02    1.90       1.4  T
   6    -42.6181547 -0.214212E-05  0.804E-03    1.89       2.5  T
   7    -42.6181550 -0.238817E-06  0.523E-03    1.90       3.8  T
   8    -42.6181556 -0.616175E-06  0.123E-03    1.89      16.2  T
   9    -42.6181556 -0.147294E-07  0.515E-04    1.89      38.8  T
  10    -42.6181556 -0.136444E-08  0.193E-04    1.89     103.5  T
     SCC iter.                  ...        0 min,  0.012 sec
     gradient                   ...        0 min,  0.011 sec
 * total energy  :   -42.0183559 Eh     change       -0.3771074E-01 Eh
   gradient norm :     0.0876829 Eh/α   predicted    -0.3129893E-01 ( -17.00%)
   displ. norm   :     0.6301564 α      lambda       -0.3359860E-01
   maximum displ.:     0.2557074 α      in ANC's #15, #16, #11, ...

........................................................................
.............................. CYCLE   23 ..............................
........................................................................

 iter      E             dE          RMSdq      gap      omega  full diag
   1    -42.6551452 -0.426551E+02  0.535E-01    1.87       0.0  T
   2    -42.6555268 -0.381631E-03  0.339E-01    1.94       1.0  T
   3    -42.6549136  0.613218E-03  0.242E-01    1.91       1.0  T
   4    -42.6558880 -0.974472E-03  0.745E-02    1.91       1.0  T
   5    -42.6560073 -0.119225E-03  0.143E-02    1.92       1.4  T
   6    -42.6560097 -0.247586E-05  0.646E-03    1.92       3.1  T
   7    -42.6560099 -0.185555E-06  0.250E-03    1.92       8.0  T
   8    -42.6560100 -0.550878E-07  0.974E-04    1.92      20.5  T
   9    -42.6560100 -0.116822E-07  0.642E-04    1.92      31.1  T
     SCC iter.                  ...        0 min,  0.011 sec
     gradient                   ...        0 min,  0.011 sec
 * total energy  :   -42.0430830 Eh     change       -0.2472707E-01 Eh
   gradient norm :     0.0558293 Eh/α   predicted    -0.2347026E-01 (  -5.08%)
   displ. norm   :     0.6106303 α      lambda       -0.1711802E-01
   maximum displ.:     0.2920565 α      in ANC's #11, #15, #9, ...

........................................................................
.............................. CYCLE   24 ..............................
........................................................................

 iter      E             dE          RMSdq      gap      omega  full diag
   1    -42.6686659 -0.426687E+02  0.441E-01    1.85       0.0  T
   2    -42.6690245 -0.358675E-03  0.267E-01    1.93       1.0  T
   3    -42.6687763  0.248217E-03  0.159E-01    1.87       1.0  T
   4    -42.6691112 -0.334867E-03  0.655E-02    1.90       1.0  T
   5    -42.6692078 -0.966368E-04  0.134E-02    1.91       1.5  T
   6    -42.6692107 -0.292056E-05  0.521E-03    1.91       3.8  T
   7    -42.6692108 -0.988458E-07  0.215E-03    1.91       9.3  T
   8    -42.6692109 -0.942976E-08  0.106E-03    1.91      19.0  T
   9    -42.6692109 -0.337172E-07  0.360E-04    1.91      55.6  T
  10    -42.6692109 -0.190355E-08  0.130E-04    1.91     153.3  T
     SCC iter.                  ...        0 min,  0.012 sec
     gradient                   ...        0 min,  0.011 sec
 * total energy  :   -42.0560296 Eh     change       -0.1294659E-01 Eh
   gradient norm :     0.0904401 Eh/α   predicted    -0.1175045E-01 (  -9.24%)
   displ. norm   :     0.5917574 α      lambda       -0.1241994E-01
   maximum displ.:     0.3205270 α      in ANC's #15, #11, #9, ...

........................................................................
.............................. CYCLE   25 ..............................
........................................................................

 iter      E             dE          RMSdq      gap      omega  full diag
   1    -42.6756853 -0.426757E+02  0.430E-01    1.75       0.0  T
   2    -42.6757213 -0.360469E-04  0.285E-01    1.93       1.0  T
   3    -42.6745127  0.120868E-02  0.217E-01    1.69       1.0  T
   4    -42.6759574 -0.144478E-02  0.841E-02    1.87       1.0  T
   5    -42.6761740 -0.216534E-03  0.143E-02    1.84       1.4  T
   6    -42.6761774 -0.347982E-05  0.544E-03    1.84       3.7  T
   7    -42.6761773  0.106976E-06  0.407E-03    1.83       4.9  T
   8    -42.6761777 -0.311169E-06  0.118E-03    1.84      17.0  T
   9    -42.6761777 -0.205380E-07  0.327E-04    1.84      61.2  T
  10    -42.6761777 -0.189935E-09  0.128E-04    1.84     155.9  T
     SCC iter.                  ...        0 min,  0.012 sec
     gradient                   ...        0 min,  0.011 sec
 * total energy  :   -42.0654982 Eh     change       -0.9468615E-02 Eh
   gradient norm :     0.0474463 Eh/α   predicted    -0.8384565E-02 ( -11.45%)
   displ. norm   :     0.5887638 α      lambda       -0.9582903E-02
   maximum displ.:     0.3121367 α      in ANC's #15, #11, #9, ...

........................................................................
.............................. CYCLE   26 ..............................
........................................................................

 iter      E             dE          RMSdq      gap      omega  full diag
   1    -42.6809673 -0.426810E+02  0.414E-01    1.71       0.0  T
   2    -42.6808940  0.733063E-04  0.268E-01    1.82       1.0  T
   3    -42.6787432  0.215081E-02  0.259E-01    1.59       1.0  T
   4    -42.6811931 -0.244985E-02  0.553E-02    1.78       1.0  T
   5    -42.6812882 -0.951757E-04  0.106E-02    1.76       1.9  T
   6    -42.6812902 -0.196780E-05  0.411E-03    1.75       4.9  T
   7    -42.6812902 -0.297102E-07  0.185E-03    1.75      10.8  T
   8    -42.6812903 -0.304746E-07  0.726E-04    1.75      27.5  T
   9    -42.6812903 -0.829813E-08  0.377E-04    1.75      53.1  T
     SCC iter.                  ...        0 min,  0.011 sec
     gradient                   ...        0 min,  0.011 sec
 * total energy  :   -42.0725521 Eh     change       -0.7053967E-02 Eh
   gradient norm :     0.0633999 Eh/α   predicted    -0.6452373E-02 (  -8.53%)
   displ. norm   :     0.4500018 α      lambda       -0.5816237E-02
   maximum displ.:     0.2822448 α      in ANC's #15, #11, #9, ...

........................................................................
.............................. CYCLE   27 ..............................
........................................................................

 iter      E             dE          RMSdq      gap      omega  full diag
   1    -42.6858882 -0.426859E+02  0.342E-01    1.65       0.0  T
   2    -42.6857302  0.157977E-03  0.230E-01    1.74       1.0  T
   3    -42.6844440  0.128620E-02  0.227E-01    1.55       1.0  T
   4    -42.6861421 -0.169806E-02  0.422E-02    1.70       1.0  T
   5    -42.6861922 -0.500863E-04  0.912E-03    1.67       2.2  T
   6    -42.6861934 -0.123637E-05  0.500E-03    1.67       4.0  T
   7    -42.6861937 -0.283770E-06  0.231E-03    1.67       8.7  T
   8    -42.6861938 -0.655636E-07  0.636E-04    1.67      31.5  T
   9    -42.6861938 -0.556764E-08  0.268E-04    1.67      74.6  T
     SCC iter.                  ...        0 min,  0.011 sec
     gradient                   ...        0 min,  0.011 sec
 * total energy  :   -42.0763131 Eh     change       -0.3760930E-02 Eh
   gradient norm :     0.0405023 Eh/α   predicted    -0.3497040E-02 (  -7.02%)
   displ. norm   :     0.2684431 α      lambda       -0.1951667E-02
   maximum displ.:     0.1553306 α      in ANC's #15, #11, #9, ...

........................................................................
.............................. CYCLE   28 ..............................
........................................................................

 iter      E             dE          RMSdq      gap      omega  full diag
   1    -42.6897275 -0.426897E+02  0.202E-01    1.60       0.0  T
   2    -42.6895509  0.176523E-03  0.152E-01    1.69       1.0  T
   3    -42.6895171  0.338842E-04  0.123E-01    1.57       1.0  T
   4    -42.6898841 -0.367027E-03  0.263E-02    1.64       1.0  T
   5    -42.6899033 -0.192618E-04  0.678E-03    1.63       2.9  T
   6    -42.6899041 -0.794961E-06  0.307E-03    1.63       6.5  T
   7    -42.6899043 -0.123634E-06  0.124E-03    1.63      16.1  T
   8    -42.6899043 -0.110377E-07  0.448E-04    1.63      44.6  T
   9    -42.6899043 -0.279982E-08  0.148E-04    1.63     134.7  T
     SCC iter.                  ...        0 min,  0.011 sec
     gradient                   ...        0 min,  0.011 sec
 * total energy  :   -42.0776319 Eh     change       -0.1318865E-02 Eh
   gradient norm :     0.0316627 Eh/α   predicted    -0.1046157E-02 ( -20.68%)
   displ. norm   :     0.1779512 α      lambda       -0.1422703E-02
   maximum displ.:     0.0837482 α      in ANC's #15, #11, #16, ...

........................................................................
.............................. CYCLE   29 ..............................
........................................................................

 iter      E             dE          RMSdq      gap      omega  full diag
   1    -42.6977176 -0.426977E+02  0.160E-01    1.69       0.0  T
   2    -42.6976615  0.561163E-04  0.128E-01    1.58       1.0  T
   3    -42.6978041 -0.142575E-03  0.761E-02    1.67       1.0  T
   4    -42.6978317 -0.275499E-04  0.438E-02    1.62       1.0  T
   5    -42.6978881 -0.563973E-04  0.118E-02    1.64       1.7  T
   6    -42.6978918 -0.377911E-05  0.298E-03    1.64       6.7  T
   7    -42.6978919 -0.726927E-07  0.137E-03    1.64      14.6  T
   8    -42.6978919 -0.203696E-07  0.313E-04    1.64      64.0  T
   9    -42.6978919 -0.586958E-09  0.131E-04    1.64     153.0  T
     SCC iter.                  ...        0 min,  0.011 sec
     gradient                   ...        0 min,  0.011 sec
 * total energy  :   -42.0785192 Eh     change       -0.8872528E-03 Eh
   gradient norm :     0.0300757 Eh/α   predicted    -0.7338814E-03 ( -17.29%)
   displ. norm   :     0.2286153 α      lambda       -0.1811596E-02
   maximum displ.:     0.1141149 α      in ANC's #11, #15, #8, ...

........................................................................
.............................. CYCLE   30 ..............................
........................................................................

 iter      E             dE          RMSdq      gap      omega  full diag
   1    -42.6931016 -0.426931E+02  0.281E-01    1.46       0.0  T
   2    -42.6914825  0.161908E-02  0.330E-01    1.78       1.0  T
   3    -42.6946764 -0.319383E-02  0.106E-01    1.58       1.0  T
   4    -42.6946710  0.535122E-05  0.471E-02    1.59       1.0  T
   5    -42.6946985 -0.274572E-04  0.163E-02    1.59       1.2  T
   6    -42.6947049 -0.642017E-05  0.439E-03    1.59       4.6  T
   7    -42.6947052 -0.357728E-06  0.166E-03    1.59      12.1  T
   8    -42.6947053 -0.154515E-07  0.570E-04    1.59      35.1  T
   9    -42.6947053 -0.630948E-08  0.196E-04    1.59     101.8  T
     SCC iter.                  ...        0 min,  0.011 sec
     gradient                   ...        0 min,  0.011 sec
 * total energy  :   -42.0792811 Eh     change       -0.7618742E-03 Eh
   gradient norm :     0.0347270 Eh/α   predicted    -0.9531424E-03 (  25.10%)
   displ. norm   :     0.1348380 α      lambda       -0.1293272E-02
   maximum displ.:     0.0591718 α      in ANC's #16, #8, #13, ...

........................................................................
.............................. CYCLE   31 ..............................
........................................................................

 iter      E             dE          RMSdq      gap      omega  full diag
   1    -42.6980626 -0.426981E+02  0.133E-01    1.66       0.0  T
   2    -42.6980047  0.579927E-04  0.119E-01    1.56       1.0  T
   3    -42.6982068 -0.202151E-03  0.585E-02    1.63       1.0  T
   4    -42.6981987  0.813810E-05  0.419E-02    1.60       1.0  T
   5    -42.6982427 -0.439975E-04  0.128E-02    1.62       1.6  T
   6    -42.6982470 -0.430304E-05  0.170E-03    1.61      11.7  T
   7    -42.6982470 -0.259519E-07  0.901E-04    1.62      22.2  T
   8    -42.6982470 -0.815173E-08  0.311E-04    1.62      64.2  T
     SCC iter.                  ...        0 min,  0.010 sec
     gradient                   ...        0 min,  0.011 sec
 * total energy  :   -42.0802532 Eh     change       -0.9721832E-03 Eh
   gradient norm :     0.0245952 Eh/α   predicted    -0.6583972E-03 ( -32.28%)
   displ. norm   :     0.2329596 α      lambda       -0.1742884E-02
   maximum displ.:     0.1062907 α      in ANC's #8, #16, #14, ...

........................................................................
.............................. CYCLE   32 ..............................
........................................................................

 iter      E             dE          RMSdq      gap      omega  full diag
   1    -42.6988997 -0.426989E+02  0.224E-01    1.63       0.0  T
   2    -42.6988855  0.142550E-04  0.132E-01    1.64       1.0  T
   3    -42.6985967  0.288737E-03  0.131E-01    1.61       1.0  T
   4    -42.6989585 -0.361829E-03  0.240E-02    1.65       1.0  T
   5    -42.6989756 -0.171004E-04  0.115E-02    1.63       1.7  T
   6    -42.6989798 -0.413915E-05  0.200E-03    1.64      10.0  T
   7    -42.6989798 -0.200767E-07  0.923E-04    1.64      21.7  T
   8    -42.6989798 -0.202699E-08  0.208E-04    1.64      96.2  T
     SCC iter.                  ...        0 min,  0.010 sec
     gradient                   ...        0 min,  0.011 sec
 * total energy  :   -42.0815583 Eh     change       -0.1305059E-02 Eh
   gradient norm :     0.0240027 Eh/α   predicted    -0.9187385E-03 ( -29.60%)
   displ. norm   :     0.3183739 α      lambda       -0.1692968E-02
   maximum displ.:     0.1485982 α      in ANC's #8, #16, #9, ...

........................................................................
.............................. CYCLE   33 ..............................
........................................................................

 iter      E             dE          RMSdq      gap      omega  full diag
   1    -42.6863885 -0.426864E+02  0.386E-01    1.49       0.0  T
   2    -42.6854079  0.980605E-03  0.273E-01    1.71       1.0  T
   3    -42.6860198 -0.611857E-03  0.240E-01    1.51       1.0  T
   4    -42.6872828 -0.126301E-02  0.369E-02    1.58       1.0  T
   5    -42.6873112 -0.284624E-04  0.110E-02    1.59       1.8  T
   6    -42.6873132 -0.193461E-05  0.458E-03    1.59       4.4  T
   7    -42.6873134 -0.218408E-06  0.249E-03    1.59       8.0  T
   8    -42.6873135 -0.893464E-07  0.715E-04    1.59      28.0  T
   9    -42.6873135 -0.651679E-08  0.252E-04    1.59      79.3  T
     SCC iter.                  ...        0 min,  0.011 sec
     gradient                   ...        0 min,  0.011 sec
 * total energy  :   -42.0827384 Eh     change       -0.1180089E-02 Eh
   gradient norm :     0.0304148 Eh/α   predicted    -0.9322842E-03 ( -21.00%)
   displ. norm   :     0.3337764 α      lambda       -0.1710304E-02
   maximum displ.:     0.1588718 α      in ANC's #16, #8, #9, ...

........................................................................
.............................. CYCLE   34 ..............................
........................................................................

 iter      E             dE          RMSdq      gap      omega  full diag
   1    -42.6775990 -0.426776E+02  0.488E-01    1.36       0.0  T
   2    -42.6761060  0.149302E-02  0.343E-01    1.65       1.0  T
   3    -42.6775527 -0.144667E-02  0.289E-01    1.41       1.0  T
   4    -42.6793067 -0.175400E-02  0.619E-02    1.48       1.0  T
   5    -42.6793931 -0.863812E-04  0.139E-02    1.50       1.4  T
   6    -42.6793959 -0.279612E-05  0.552E-03    1.49       3.6  T
   7    -42.6793961 -0.264529E-06  0.332E-03    1.49       6.0  T
   8    -42.6793963 -0.146444E-06  0.116E-03    1.49      17.2  T
   9    -42.6793963 -0.218276E-07  0.396E-04    1.49      50.5  T
  10    -42.6793963 -0.502624E-09  0.147E-04    1.49     136.0  T
     SCC iter.                  ...        0 min,  0.012 sec
     gradient                   ...        0 min,  0.011 sec
 * total energy  :   -42.0840128 Eh     change       -0.1274455E-02 Eh
   gradient norm :     0.0259822 Eh/α   predicted    -0.9504316E-03 ( -25.42%)
   displ. norm   :     0.6252791 α      lambda       -0.3044450E-02
   maximum displ.:     0.2980876 α      in ANC's #16, #8, #15, ...

........................................................................
.............................. CYCLE   35 ..............................
........................................................................

 iter      E             dE          RMSdq      gap      omega  full diag
   1    -42.6311001 -0.426311E+02  0.115E+00    0.84       0.0  T
   2    -42.6273938  0.370637E-02  0.747E-01    1.32       1.0  T
   3    -42.6367561 -0.936230E-02  0.582E-01    1.00       1.0  T
   4    -42.6432248 -0.646872E-02  0.199E-01    1.04       1.0  T
   5    -42.6439330 -0.708175E-03  0.496E-02    1.09       1.0  T
   6    -42.6439747 -0.417809E-04  0.184E-02    1.08       1.1  T
   7    -42.6439754 -0.648579E-06  0.143E-02    1.09       1.4  T
   8    -42.6439793 -0.388099E-05  0.346E-03    1.09       5.8  T
   9    -42.6439795 -0.198472E-06  0.174E-03    1.09      11.5  T
  10    -42.6439795 -0.352641E-07  0.471E-04    1.09      42.5  T
  11    -42.6439795 -0.119831E-08  0.155E-04    1.09     128.9  T
     SCC iter.                  ...        0 min,  0.014 sec
     gradient                   ...        0 min,  0.011 sec
 * total energy  :   -42.0875285 Eh     change       -0.3515701E-02 Eh
   gradient norm :     0.0602900 Eh/α   predicted    -0.2117383E-02 ( -39.77%)
   displ. norm   :     0.5117797 α      lambda       -0.5261587E-02
   maximum displ.:     0.2066226 α      in ANC's #8, #16, #15, ...

........................................................................
.............................. CYCLE   36 ..............................
........................................................................

 iter      E             dE          RMSdq      gap      omega  full diag
   1    -42.6112144 -0.426112E+02  0.931E-01    0.59       0.0  T
   2    -42.6107833  0.431062E-03  0.557E-01    0.85       1.0  T
   3    -42.6129898 -0.220647E-02  0.518E-01    0.67       1.0  T
   4    -42.6180864 -0.509663E-02  0.212E-01    0.74       1.0  T
   5    -42.6191129 -0.102646E-02  0.907E-02    0.72       1.0  T
   6    -42.6193430 -0.230095E-03  0.278E-02    0.74       1.0  T
   7    -42.6193559 -0.129106E-04  0.106E-02    0.74       1.9  T
   8    -42.6193565 -0.677693E-06  0.355E-03    0.74       5.6  T
   9    -42.6193566 -0.101425E-06  0.184E-03    0.74      10.9  T
  10    -42.6193567 -0.494889E-07  0.655E-04    0.74      30.5  T
  11    -42.6193567 -0.355039E-08  0.250E-04    0.74      80.1  T
     SCC iter.                  ...        0 min,  0.014 sec
     gradient                   ...        0 min,  0.011 sec
 * total energy  :   -42.0933079 Eh     change       -0.5779395E-02 Eh
   gradient norm :     0.0735025 Eh/α   predicted    -0.3319843E-02 ( -42.56%)
   displ. norm   :     0.5531637 α      lambda       -0.6436944E-02
   maximum displ.:     0.2407660 α      in ANC's #16, #8, #15, ...

........................................................................
.............................. CYCLE   37 ..............................
........................................................................

 iter      E             dE          RMSdq      gap      omega  full diag
   1    -42.5807332 -0.425807E+02  0.960E-01    0.26       0.0  T
   2    -42.5805117  0.221554E-03  0.605E-01    0.45       1.0  T
   3    -42.5827306 -0.221892E-02  0.568E-01    0.30       1.0  T
   4    -42.5873602 -0.462960E-02  0.293E-01    0.41       1.0  T
   5    -42.5892839 -0.192375E-02  0.170E-01    0.32       1.0  T
   6    -42.5902276 -0.943632E-03  0.233E-02    0.37       1.0  T
   7    -42.5902303 -0.270365E-05  0.137E-02    0.37       1.5  T
   8    -42.5902325 -0.223950E-05  0.568E-03    0.37       3.5  T
   9    -42.5902332 -0.743017E-06  0.261E-03    0.37       7.7  T
  10    -42.5902334 -0.111999E-06  0.838E-04    0.36      23.9  T
  11    -42.5902334 -0.617144E-08  0.343E-04    0.36      58.4  T
     SCC iter.                  ...        0 min,  0.014 sec
     gradient                   ...        0 min,  0.011 sec
 * total energy  :   -42.0961044 Eh     change       -0.2796481E-02 Eh
   gradient norm :     0.0954851 Eh/α   predicted    -0.4203292E-02 (  50.31%)
   displ. norm   :     0.5135328 α      lambda       -0.2399401E-01
   maximum displ.:     0.2091005 α      in ANC's #41, #20, #15, ...

........................................................................
.............................. CYCLE   38 ..............................
........................................................................

 iter      E             dE          RMSdq      gap      omega  full diag
   1    -42.6518687 -0.426519E+02  0.766E-01    0.88       0.0  T
   2    -42.6494729  0.239585E-02  0.599E-01    0.54       1.0  T
   3    -42.6537664 -0.429350E-02  0.458E-01    0.80       1.0  T
   4    -42.6571692 -0.340287E-02  0.162E-01    0.68       1.0  T
   5    -42.6576864 -0.517200E-03  0.596E-02    0.69       1.0  T
   6    -42.6578114 -0.124987E-03  0.208E-02    0.68       1.0  T
   7    -42.6578165 -0.508296E-05  0.983E-03    0.69       2.0  T
   8    -42.6578174 -0.859075E-06  0.225E-03    0.69       8.9  T
   9    -42.6578174 -0.682652E-07  0.879E-04    0.69      22.8  T
  10    -42.6578174 -0.282601E-08  0.397E-04    0.69      50.3  T
     SCC iter.                  ...        0 min,  0.012 sec
     gradient                   ...        0 min,  0.011 sec
 * total energy  :   -42.0920966 Eh     change        0.4007846E-02 Eh
   gradient norm :     0.1785944 Eh/α   predicted    -0.1516084E-01 (-478.28%)
   displ. norm   :     0.2717534 α      lambda       -0.2464435E-01
   maximum displ.:     0.1076203 α      in ANC's #41, #16, #15, ...

........................................................................
.............................. CYCLE   39 ..............................
........................................................................

 iter      E             dE          RMSdq      gap      omega  full diag
   1    -42.6280713 -0.426281E+02  0.450E-01    0.40       0.0  T
   2    -42.6271821  0.889178E-03  0.402E-01    0.61       1.0  T
   3    -42.6303456 -0.316348E-02  0.248E-01    0.46       1.0  T
   4    -42.6310957 -0.750143E-03  0.120E-01    0.53       1.0  T
   5    -42.6313311 -0.235381E-03  0.609E-02    0.50       1.0  T
   6    -42.6314524 -0.121290E-03  0.125E-02    0.51       1.6  T
   7    -42.6314544 -0.203067E-05  0.539E-03    0.51       3.7  T
   8    -42.6314544  0.164609E-07  0.275E-03    0.51       7.3  T
   9    -42.6314545 -0.157778E-06  0.663E-04    0.51      30.2  T
  10    -42.6314546 -0.525258E-08  0.313E-04    0.51      63.8  T
     SCC iter.                  ...        0 min,  0.012 sec
     gradient                   ...        0 min,  0.011 sec
 * total energy  :   -42.1039375 Eh     change       -0.1184097E-01 Eh
   gradient norm :     0.0318151 Eh/α   predicted    -0.1323214E-01 (  11.75%)
   displ. norm   :     0.1854590 α      lambda       -0.1595972E-02
   maximum displ.:     0.0880950 α      in ANC's #6, #5, #8, ...

........................................................................
.............................. CYCLE   40 ..............................
........................................................................

 iter      E             dE          RMSdq      gap      omega  full diag
   1    -42.6279268 -0.426279E+02  0.103E-01    0.52       0.0  T
   2    -42.6279386 -0.118030E-04  0.760E-02    0.50       1.0  T
   3    -42.6279188  0.197753E-04  0.609E-02    0.53       1.0  T
   4    -42.6279708 -0.520465E-04  0.384E-02    0.50       1.0  T
   5    -42.6280003 -0.294742E-04  0.120E-02    0.52       1.7  T
   6    -42.6280049 -0.459246E-05  0.251E-03    0.51       8.0  T
   7    -42.6280050 -0.100414E-06  0.121E-03    0.51      16.5  T
   8    -42.6280050 -0.140435E-07  0.420E-04    0.51      47.6  T
   9    -42.6280050 -0.396951E-08  0.165E-04    0.51     120.9  T
     SCC iter.                  ...        0 min,  0.011 sec
     gradient                   ...        0 min,  0.011 sec
 * total energy  :   -42.1048158 Eh     change       -0.8782058E-03 Eh
   gradient norm :     0.0365964 Eh/α   predicted    -0.8254493E-03 (  -6.01%)
   displ. norm   :     0.2993286 α      lambda       -0.2006209E-02
   maximum displ.:     0.1611357 α      in ANC's #8, #5, #16, ...

........................................................................
.............................. CYCLE   41 ..............................
........................................................................

 iter      E             dE          RMSdq      gap      omega  full diag
   1    -42.6304422 -0.426304E+02  0.173E-01    0.53       0.0  T
   2    -42.6304061  0.361227E-04  0.114E-01    0.51       1.0  T
   3    -42.6298652  0.540902E-03  0.143E-01    0.57       1.0  T
   4    -42.6304631 -0.597930E-03  0.227E-02    0.52       1.0  T
   5    -42.6304813 -0.181732E-04  0.885E-03    0.53       2.3  T
   6    -42.6304841 -0.279602E-05  0.291E-03    0.53       6.9  T
   7    -42.6304841 -0.572332E-07  0.118E-03    0.53      17.0  T
   8    -42.6304841 -0.181113E-07  0.331E-04    0.53      60.3  T
   9    -42.6304841 -0.149574E-08  0.166E-04    0.53     120.4  T
     SCC iter.                  ...        0 min,  0.011 sec
     gradient                   ...        0 min,  0.011 sec
 * total energy  :   -42.1056201 Eh     change       -0.8043653E-03 Eh
   gradient norm :     0.0295167 Eh/α   predicted    -0.1092998E-02 (  35.88%)
   displ. norm   :     0.2182163 α      lambda       -0.1696151E-02
   maximum displ.:     0.0940132 α      in ANC's #6, #10, #9, ...

........................................................................
.............................. CYCLE   42 ..............................
........................................................................

 iter      E             dE          RMSdq      gap      omega  full diag
   1    -42.6399931 -0.426400E+02  0.140E-01    0.54       0.0  T
   2    -42.6399904  0.265332E-05  0.878E-02    0.53       1.0  T
   3    -42.6399051  0.853238E-04  0.743E-02    0.54       1.0  T
   4    -42.6400501 -0.145051E-03  0.148E-02    0.53       1.3  T
   5    -42.6400538 -0.363843E-05  0.827E-03    0.54       2.4  T
   6    -42.6400556 -0.185794E-05  0.304E-03    0.53       6.6  T
   7    -42.6400558 -0.142932E-06  0.109E-03    0.54      18.3  T
   8    -42.6400558 -0.108274E-07  0.335E-04    0.54      59.6  T
   9    -42.6400558 -0.642402E-09  0.184E-04    0.54     108.7  T
     SCC iter.                  ...        0 min,  0.011 sec
     gradient                   ...        0 min,  0.011 sec
 * total energy  :   -42.1062186 Eh     change       -0.5985097E-03 Eh
   gradient norm :     0.0173001 Eh/α   predicted    -0.8884740E-03 (  48.45%)
   displ. norm   :     0.1874447 α      lambda       -0.9103357E-03
   maximum displ.:     0.1388570 α      in ANC's #5, #11, #3, ...
 * RMSD in coord.:     1.0571933 α      energy gain  -0.1378735E+00 Eh

generating ANC from model Hessian ...
Using Lindh-Hessian (1995)
 Shifting diagonal of input Hessian by    9.9942875270724527E-003
 Lowest  eigenvalues of input Hessian
    0.000000    0.000000    0.000000    0.000000    0.000000    0.000000
    0.010000    0.010617    0.012227    0.014557    0.014721    0.017237
    0.020204    0.020442    0.023119    0.023414    0.027554    0.034936
 Highest eigenvalues
    2.078542    2.172408    2.329201    2.452059    2.605889    8.971099


........................................................................
.............................. CYCLE   43 ..............................
........................................................................

 iter      E             dE          RMSdq      gap      omega  full diag
   1    -42.6363559 -0.426364E+02  0.129E-01    0.51       0.0  T
   2    -42.6363882 -0.323706E-04  0.712E-02    0.51       1.0  T
   3    -42.6363601  0.281081E-04  0.637E-02    0.52       1.0  T
   4    -42.6364143 -0.541969E-04  0.260E-02    0.51       1.0  T
   5    -42.6364310 -0.166520E-04  0.120E-02    0.52       1.7  T
   6    -42.6364349 -0.388632E-05  0.322E-03    0.51       6.2  T
   7    -42.6364350 -0.106509E-06  0.196E-03    0.51      10.2  T
   8    -42.6364350 -0.737553E-07  0.569E-04    0.51      35.2  T
   9    -42.6364350 -0.372839E-08  0.251E-04    0.51      79.7  T
     SCC iter.                  ...        0 min,  0.011 sec
     gradient                   ...        0 min,  0.011 sec
 * total energy  :   -42.1063862 Eh     change       -0.1675295E-03 Eh
   gradient norm :     0.0279373 Eh/α   predicted     0.0000000E+00 (-100.00%)
   displ. norm   :     0.1157040 α      lambda       -0.7172080E-03
   maximum displ.:     0.0835469 α      in ANC's #3, #11, #12, ...

........................................................................
.............................. CYCLE   44 ..............................
........................................................................

 iter      E             dE          RMSdq      gap      omega  full diag
   1    -42.6373532 -0.426374E+02  0.597E-02    0.51       0.0  T
   2    -42.6373319  0.212523E-04  0.521E-02    0.52       1.0  T
   3    -42.6373330 -0.107599E-05  0.386E-02    0.50       1.0  T
   4    -42.6373650 -0.320011E-04  0.109E-02    0.51       1.8  T
   5    -42.6373673 -0.227489E-05  0.542E-03    0.51       3.7  T
   6    -42.6373684 -0.108052E-05  0.115E-03    0.51      17.3  T
   7    -42.6373684 -0.784862E-08  0.552E-04    0.51      36.2  T
   8    -42.6373684 -0.236732E-08  0.140E-04    0.51     142.7  T
     SCC iter.                  ...        0 min,  0.010 sec
     gradient                   ...        0 min,  0.011 sec
 * total energy  :   -42.1068521 Eh     change       -0.4658959E-03 Eh
   gradient norm :     0.0196617 Eh/α   predicted    -0.3640350E-03 ( -21.86%)
   displ. norm   :     0.1865566 α      lambda       -0.4992990E-03
   maximum displ.:     0.1534247 α      in ANC's #3, #11, #12, ...

........................................................................
.............................. CYCLE   45 ..............................
........................................................................

 iter      E             dE          RMSdq      gap      omega  full diag
   1    -42.6373662 -0.426374E+02  0.741E-02    0.50       0.0  T
   2    -42.6373343  0.318689E-04  0.614E-02    0.52       1.0  T
   3    -42.6373119  0.224578E-04  0.528E-02    0.50       1.0  T
   4    -42.6373824 -0.705312E-04  0.942E-03    0.51       2.1  T
   5    -42.6373836 -0.124663E-05  0.425E-03    0.51       4.7  T
   6    -42.6373843 -0.638403E-06  0.162E-03    0.51      12.4  T
   7    -42.6373843 -0.443500E-07  0.551E-04    0.51      36.3  T
   8    -42.6373843 -0.311773E-08  0.148E-04    0.51     134.7  T
     SCC iter.                  ...        0 min,  0.010 sec
     gradient                   ...        0 min,  0.011 sec
 * total energy  :   -42.1071561 Eh     change       -0.3040498E-03 Eh
   gradient norm :     0.0073053 Eh/α   predicted    -0.2583578E-03 ( -15.03%)
   displ. norm   :     0.1415228 α      lambda       -0.1819075E-03
   maximum displ.:     0.1278103 α      in ANC's #3, #11, #12, ...

........................................................................
.............................. CYCLE   46 ..............................
........................................................................

 iter      E             dE          RMSdq      gap      omega  full diag
   1    -42.6376670 -0.426377E+02  0.402E-02    0.51       0.0  T
   2    -42.6376615  0.546838E-05  0.298E-02    0.52       1.0  T
   3    -42.6376412  0.203044E-04  0.319E-02    0.50       1.0  T
   4    -42.6376689 -0.277060E-04  0.686E-03    0.51       2.9  T
   5    -42.6376707 -0.174497E-05  0.229E-03    0.51       8.7  T
   6    -42.6376709 -0.174077E-06  0.796E-04    0.51      25.1  T
   7    -42.6376709 -0.551747E-08  0.267E-04    0.51      74.9  T
     SCC iter.                  ...        0 min,  0.009 sec
     gradient                   ...        0 min,  0.011 sec
 * total energy  :   -42.1072940 Eh     change       -0.1379399E-03 Eh
   gradient norm :     0.0043722 Eh/α   predicted    -0.9295006E-04 ( -32.62%)
   displ. norm   :     0.1141218 α      lambda       -0.1094041E-03
   maximum displ.:     0.1044641 α      in ANC's #3, #1, #12, ...

........................................................................
.............................. CYCLE   47 ..............................
........................................................................

 iter      E             dE          RMSdq      gap      omega  full diag
   1    -42.6380704 -0.426381E+02  0.278E-02    0.52       0.0  T
   2    -42.6380706 -0.255043E-06  0.179E-02    0.52       1.1  T
   3    -42.6380621  0.852138E-05  0.169E-02    0.51       1.2  T
   4    -42.6380710 -0.883094E-05  0.596E-03    0.52       3.4  T
   5    -42.6380717 -0.790194E-06  0.258E-03    0.52       7.7  T
   6    -42.6380720 -0.246055E-06  0.651E-04    0.52      30.7  T
   7    -42.6380720 -0.309687E-08  0.258E-04    0.52      77.6  T
     SCC iter.                  ...        0 min,  0.009 sec
     gradient                   ...        0 min,  0.011 sec
 * total energy  :   -42.1073757 Eh     change       -0.8167512E-04 Eh
   gradient norm :     0.0022830 Eh/α   predicted    -0.5541479E-04 ( -32.15%)
   displ. norm   :     0.0872595 α      lambda       -0.5238223E-04
   maximum displ.:     0.0773554 α      in ANC's #3, #1, #9, ...

........................................................................
.............................. CYCLE   48 ..............................
........................................................................

 iter      E             dE          RMSdq      gap      omega  full diag
   1    -42.6383689 -0.426384E+02  0.198E-02    0.52       0.0  T
   2    -42.6383692 -0.283663E-06  0.116E-02    0.52       1.7  T
   3    -42.6383685  0.640886E-06  0.494E-03    0.52       4.0  T
   4    -42.6383689 -0.331953E-06  0.367E-03    0.52       5.5  T
   5    -42.6383693 -0.387824E-06  0.715E-04    0.52      28.0  T
   6    -42.6383693 -0.740007E-08  0.462E-04    0.52      43.3  T
     SCC iter.                  ...        0 min,  0.008 sec
     gradient                   ...        0 min,  0.011 sec
 * total energy  :   -42.1074180 Eh     change       -0.4231068E-04 Eh
   gradient norm :     0.0023957 Eh/α   predicted    -0.2639070E-04 ( -37.63%)
   displ. norm   :     0.0824593 α      lambda       -0.3940869E-04
   maximum displ.:     0.0669771 α      in ANC's #3, #1, #9, ...

   *** GEOMETRY OPTIMIZATION CONVERGED AFTER 48 ITERATIONS ***

------------------------------------------------------------------------
 total energy gain   :       -38.3202736 Eh   -24046.3347 kcal/mol
 total RMSD          :         1.5518858 a0        0.8212 Å
 total power (kW/mol):     -2096.0388435 (step)********** (real)
------------------------------------------------------------------------

 ANCopt (total)                0 d,  0 h,  0 min,  1.355 sec
 optimizer setup                ...        0 min,  0.000 sec (  0.025%)
 model hessian                  ...        0 min,  0.015 sec (  1.093%)
 ANC generation                 ...        0 min,  0.002 sec (  0.156%)
 coordinate transformation      ...        0 min,  0.000 sec (  0.032%)
 single point calculation       ...        0 min,  1.323 sec ( 97.662%)
 optimization log               ...        0 min,  0.005 sec (  0.334%)
 hessian update                 ...        0 min,  0.001 sec (  0.047%)
 rational function              ...        0 min,  0.007 sec (  0.498%)

================
 final structure:
================
25
 xtb: 6.6.1 (8d0f1dd)
C            3.06467872429208        0.61656819139705        0.05393387595107
N            2.42285142008126       -0.70586842074102       -0.01038972839719
C            3.37306323117915       -1.78486631265819       -0.02317042242304
N            3.34569853597508       -3.03420629908339       -0.04985526042084
C           -0.06522724899399       -0.08662935249232       -0.01891835965838
C            1.11096074444468       -0.71679010588696       -0.02598110055056
C           -0.51427925360586        1.45004386877194       -0.03607839638901
O            0.24003482610553        2.37667461113331       -0.05412705507476
N           -1.85802584791698        1.39611300787080       -0.01654174634358
C           -2.71864556004475        2.55836792367233       -0.01982475598951
C           -2.36162770839080        0.09314068365481        0.00906890425867
O           -3.51219268387128       -0.22589246745439        0.02826774719595
N           -1.26784600588051       -0.75667001431801        0.00786626990778
C           -1.42020551513784       -2.18503716427679        0.02574478885610
H            3.62948888997609        0.71021794488651        0.98277348834656
H            3.73746208405899        0.73883015032769       -0.79625932707886
H            2.31161291252680        1.40441232459304        0.01913746078278
H            4.37049339972809       -1.35101143327688        0.00147013131755
H           -2.10087575446464        3.45363021995406       -0.02174680921213
H           -3.35632272334252        2.54131395831807       -0.90495947522602
H           -3.35595002960880        2.54398213316842        0.86557285537913
H           -0.94906079565472       -2.60839266844943        0.91467362928656
H           -0.96812416022815       -2.62671986794549       -0.86424933080866
H           -2.48714867445530       -2.40568667477493        0.03959144479278
H            2.48961870732497       -3.57728569478228       -0.07482721059929

 Bond Distances (Angstroems)
 ---------------------------
C1-N2=1.4714         C1-H15=1.0911        C1-H16=1.0911        C1-H17=1.0904        N2-C1=1.4714         N2-C3=1.4378         
N2-C6=1.3120         C3-N2=1.4378         C3-N4=1.2499         C3-H18=1.0880        N4-C3=1.2499         N4-H25=1.0141        
C5-C6=1.3344         C5-C7=1.6010         C5-N13=1.3769        C6-N2=1.3120         C6-C5=1.3344         C7-C5=1.6010         
C7-O8=1.1950         C7-N9=1.3450         O8-C7=1.1950         N9-C7=1.3450         N9-C10=1.4462        N9-C11=1.3971        
C10-N9=1.4462        C10-H19=1.0877       C10-H20=1.0910       C10-H21=1.0910       C11-N9=1.3971        C11-O12=1.1941       
C11-N13=1.3851       O12-C11=1.1941       N13-C5=1.3769        N13-C11=1.3851       N13-C14=1.4366       C14-N13=1.4366       
C14-H22=1.0915       C14-H23=1.0916       C14-H24=1.0896       H15-C1=1.0911        H16-C1=1.0911        H17-C1=1.0904        
H18-C3=1.0880        H19-C10=1.0877       H20-C10=1.0910       H21-C10=1.0910       H22-C14=1.0915       H23-C14=1.0916       
H24-C14=1.0896       H25-N4=1.0141        
 C  H  Rav=1.0903 sigma=0.0013  Rmin=1.0877  Rmax=1.0916    10
 C  C  Rav=1.4677 sigma=0.1333  Rmin=1.3344  Rmax=1.6010     2
 N  H  Rav=1.0141 sigma=0.0000  Rmin=1.0141  Rmax=1.0141     1
 N  C  Rav=1.3858 sigma=0.0648  Rmin=1.2499  Rmax=1.4714    10
 O  C  Rav=1.1946 sigma=0.0004  Rmin=1.1941  Rmax=1.1950     2

 selected bond angles (degree)
 --------------------
H15-C1-N2=109.89               H16-C1-N2=109.61               H16-C1-H15=109.54              H17-C1-N2=110.29               
H17-C1-H15=108.82              H17-C1-H16=108.66              C3-N2-C1=112.74                C6-N2-C1=116.37                
C6-N2-C3=130.88                N4-C3-N2=137.38                H18-C3-N2=107.84               H18-C3-N4=114.78               
H25-N4-C3=123.66               C7-C5-C6=134.46                N13-C5-C6=122.69               N13-C5-C7=102.84               
C5-C6-N2=151.33                O8-C7-C5=124.57                N9-C7-C5=103.98                N9-C7-O8=131.45                
C10-N9-C7=124.21               C11-N9-C7=113.44               C11-N9-C10=122.35              H19-C10-N9=108.87              
H20-C10-N9=109.70              H20-C10-H19=110.08             H21-C10-N9=109.58              H21-C10-H19=110.12             
H21-C10-H20=108.47             

 selected dihedral angles (degree)
 ---------------------------------
C3-N2-C1-H15=297.59           C3-N2-C1-H16= 58.02           C3-N2-C1-H17=177.62           C6-N2-C1-H15=116.61           
C6-N2-C1-H16=237.04           C6-N2-C1-H17=356.64           N4-C3-N2-C1=178.75            N4-C3-N2-C6=359.91            
H18-C3-N2-C1=359.02           H18-C3-N2-C6=180.19           H25-N4-C3-N2=  0.30           H25-N4-C3-H18=180.02          
C5-C6-N2-C1=  0.58            C5-C6-N2-C3=179.39            N2-C6-C5-C7=  3.13            N2-C6-C5-N13=183.10           
O8-C7-C5-C6=359.60            O8-C7-C5-N13=179.62           N9-C7-C5-C6=179.98            N9-C7-C5-N13=  0.00           
C10-N9-C7-C5=179.88           C10-N9-C7-O8=  0.30           C11-N9-C7-C5=359.94           C11-N9-C7-O8=180.36           
H19-C10-N9-C7=358.97          H19-C10-N9-C11=178.90         H20-C10-N9-C7=119.49          H20-C10-N9-C11=299.42         
H21-C10-N9-C7=238.47          H21-C10-N9-C11= 58.40         
           -------------------------------------------------
          |                Final Singlepoint                |
           -------------------------------------------------

          ...................................................
          :                      SETUP                      :
          :.................................................:
          :  # basis functions                  67          :
          :  # atomic orbitals                  67          :
          :  # shells                           39          :
          :  # electrons                        74          :
          :  max. iterations                   250          :
          :  Hamiltonian                  GFN2-xTB          :
          :  restarted?                      false          :
          :  GBSA solvation                  false          :
          :  PC potential                    false          :
          :  electronic temp.         5000.0000000     K    :
          :  accuracy                    1.0000000          :
          :  -> integral cutoff          0.2500000E+02      :
          :  -> integral neglect         0.1000000E-07      :
          :  -> SCF convergence          0.1000000E-05 Eh   :
          :  -> wf. convergence          0.1000000E-03 e    :
          :  Broyden damping             0.4000000          :
          ...................................................

 iter      E             dE          RMSdq      gap      omega  full diag
   1    -42.6383693 -0.426384E+02  0.214E-04    0.52       0.0  T
   2    -42.6383693  0.481585E-09  0.223E-04    0.52      89.7  T
   3    -42.6383693 -0.146258E-08  0.613E-05    0.52     326.1  T

   *** convergence criteria satisfied after 3 iterations ***

         #    Occupation            Energy/Eh            Energy/eV
      -------------------------------------------------------------
         1        2.0000           -0.8989176             -24.4608
       ...           ...                  ...                  ...
        31        1.9964           -0.6262993             -17.0425
        32        1.9908           -0.6113971             -16.6370
        33        1.9867           -0.6054978             -16.4764
        34        1.9632           -0.5891494             -16.0316
        35        1.9439           -0.5823039             -15.8453
        36        1.8633           -0.5675333             -15.4434
        37        1.4141           -0.5401229             -14.6975 (HOMO)
        38        0.8376           -0.5209821             -14.1766 (LUMO)
        39        0.0107           -0.4434578             -12.0671
        40        0.0005           -0.3932731             -10.7015
        41        0.0000           -0.3471485              -9.4464
        42        0.0000           -0.3223424              -8.7714
       ...           ...                  ...                  ...
        67                          0.6307751              17.1643
      -------------------------------------------------------------
                  HL-Gap            0.0191408 Eh            0.5208 eV
             Fermi-level           -0.5261697 Eh          -14.3178 eV

 SCC (total)                   0 d,  0 h,  0 min,  0.020 sec
 SCC setup                      ...        0 min,  0.000 sec (  0.946%)
 Dispersion                     ...        0 min,  0.000 sec (  0.830%)
 classical contributions        ...        0 min,  0.000 sec (  0.331%)
 integral evaluation            ...        0 min,  0.004 sec ( 20.060%)
 iterations                     ...        0 min,  0.004 sec ( 21.716%)
 molecular gradient             ...        0 min,  0.011 sec ( 55.493%)
 printout                       ...        0 min,  0.000 sec (  0.587%)

         :::::::::::::::::::::::::::::::::::::::::::::::::::::
         ::                     SUMMARY                     ::
         :::::::::::::::::::::::::::::::::::::::::::::::::::::
         :: total energy             -42.107418034510 Eh    ::
         :: gradient norm              0.002402380791 Eh/a0 ::
         :: HOMO-LUMO gap              0.520848121144 eV    ::
         ::.................................................::
         :: SCC energy               -42.638369273442 Eh    ::
         :: -> isotropic ES            0.130605893675 Eh    ::
         :: -> anisotropic ES         -0.006331051910 Eh    ::
         :: -> anisotropic XC          0.019481087638 Eh    ::
         :: -> dispersion             -0.020386358286 Eh    ::
         :: repulsion energy           0.530828092733 Eh    ::
         :: add. restraining           0.000074680200 Eh    ::
         :: total charge               1.000000000017 e     ::
         :::::::::::::::::::::::::::::::::::::::::::::::::::::

           -------------------------------------------------
          |                Property Printout                |
           -------------------------------------------------

    * Orbital Energies and Occupations

         #    Occupation            Energy/Eh            Energy/eV
      -------------------------------------------------------------
         1        2.0000           -0.8989176             -24.4608
       ...           ...                  ...                  ...
        25        1.9995           -0.6567015             -17.8698
        26        1.9994           -0.6535163             -17.7831
        27        1.9992           -0.6495069             -17.6740
        28        1.9985           -0.6402764             -17.4228
        29        1.9985           -0.6400010             -17.4153
        30        1.9979           -0.6349275             -17.2773
        31        1.9964           -0.6262993             -17.0425
        32        1.9908           -0.6113971             -16.6370
        33        1.9867           -0.6054978             -16.4764
        34        1.9632           -0.5891494             -16.0316
        35        1.9439           -0.5823039             -15.8453
        36        1.8633           -0.5675333             -15.4434
        37        1.4141           -0.5401229             -14.6975 (HOMO)
        38        0.8376           -0.5209821             -14.1766 (LUMO)
        39        0.0107           -0.4434578             -12.0671
        40        0.0005           -0.3932731             -10.7015
        41        0.0000           -0.3471485              -9.4464
        42        0.0000           -0.3223424              -8.7714
        43                         -0.2174308              -5.9166
        44                         -0.1881210              -5.1190
        45                         -0.1766450              -4.8068
        46                         -0.0925558              -2.5186
        47                         -0.0903624              -2.4589
        48                         -0.0600565              -1.6342
       ...                                ...                  ...
        67                          0.6307751              17.1643
      -------------------------------------------------------------
                  HL-Gap            0.0191408 Eh            0.5208 eV
             Fermi-level           -0.5261697 Eh          -14.3178 eV

     #   Z          covCN         q      C6AA      α(0)
     1   6 C        3.717    -0.085    22.242     6.737
     2   7 N        2.725     0.047    20.429     6.713
     3   6 C        2.759     0.121    25.320     8.240
     4   7 N        1.771    -0.197    26.058     7.559
     5   6 C        2.929     0.019    27.588     8.614
     6   6 C        1.929     0.026    30.424     8.908
     7   6 C        2.812     0.282    22.239     7.726
     8   8 O        0.856    -0.302    19.817     5.968
     9   7 N        2.774    -0.055    22.300     7.014
    10   6 C        3.692    -0.060    21.844     6.688
    11   6 C        2.797     0.322    21.535     7.602
    12   8 O        0.857    -0.320    20.144     6.017
    13   7 N        2.781    -0.023    21.692     6.917
    14   6 C        3.692    -0.070    22.024     6.715
    15   1 H        0.924     0.108     1.713     2.047
    16   1 H        0.924     0.110     1.699     2.038
    17   1 H        0.924     0.116     1.645     2.006
    18   1 H        0.925     0.120     1.611     1.985
    19   1 H        0.925     0.110     1.694     2.035
    20   1 H        0.924     0.110     1.699     2.038
    21   1 H        0.924     0.110     1.697     2.037
    22   1 H        0.924     0.096     1.824     2.112
    23   1 H        0.924     0.096     1.824     2.112
    24   1 H        0.925     0.122     1.599     1.977
    25   1 H        0.860     0.197     1.122     1.659

 Mol. C6AA /au·bohr⁶  :       6577.612336
 Mol. C8AA /au·bohr⁸  :     151048.223883
 Mol. α(0) /au        :        123.465634


Wiberg/Mayer (AO) data.
largest (>0.10) Wiberg bond orders for each atom

 ---------------------------------------------------------------------------
     #   Z sym  total        # sym  WBO       # sym  WBO       # sym  WBO
 ---------------------------------------------------------------------------
     1   6 C    3.849 --    17 H    0.961    15 H    0.955    16 H    0.954
                             2 N    0.933
     2   7 N    3.492 --     6 C    1.371     3 C    1.024     1 C    0.933
     3   6 C    3.917 --     4 N    1.917     2 N    1.024    18 H    0.923
     4   7 N    2.990 --     3 C    1.917    25 H    0.923
     5   6 C    3.759 --     6 C    1.596    13 N    1.144     7 C    0.807
     6   6 C    3.212 --     5 C    1.596     2 N    1.371
     7   6 C    3.858 --     8 O    1.748     9 N    1.211     5 C    0.807
     8   8 O    2.079 --     7 C    1.748     9 N    0.140
     9   7 N    3.537 --     7 C    1.211    11 C    1.048    10 C    0.968
                             8 O    0.140    12 O    0.105
    10   6 C    3.888 --    19 H    0.970     9 N    0.968    21 H    0.955
                            20 H    0.954
    11   6 C    3.941 --    12 O    1.721    13 N    1.086     9 N    1.048
    12   8 O    2.015 --    11 C    1.721    13 N    0.107     9 N    0.105
    13   7 N    3.418 --     5 C    1.144    11 C    1.086    14 C    0.991
                            12 O    0.107
    14   6 C    3.910 --    13 N    0.991    24 H    0.965    22 H    0.956
                            23 H    0.956
    15   1 H    0.971 --     1 C    0.955
    16   1 H    0.971 --     1 C    0.954
    17   1 H    0.983 --     1 C    0.961
    18   1 H    0.969 --     3 C    0.923
    19   1 H    0.983 --    10 C    0.970
    20   1 H    0.973 --    10 C    0.954
    21   1 H    0.973 --    10 C    0.955
    22   1 H    0.972 --    14 C    0.956
    23   1 H    0.972 --    14 C    0.956
    24   1 H    0.983 --    14 C    0.965
    25   1 H    0.950 --     4 N    0.923
 ---------------------------------------------------------------------------

Topologies differ in total number of bonds
Writing topology from bond orders to xtbtopo.mol

molecular dipole:
                 x           y           z       tot (Debye)
 q only:        1.517      -0.744       0.020
   full:        1.310      -0.616       0.021       3.679
molecular quadrupole (traceless):
                xx          xy          yy          xz          yz          zz
 q only:       15.355     -12.579       2.890       0.385       0.179     -18.245
  q+dip:       11.939     -10.235       1.036       0.526       0.216     -12.975
   full:        9.684      -9.806       1.013       0.534       0.212     -10.696

           -------------------------------------------------
          |                Geometry Summary                 |
           -------------------------------------------------

      molecular mass/u    :      195.1988581
   center of mass at/Å    :       -0.0325830      -0.0556738      -0.0084002
  moments of inertia/u·Å² :        0.3984596E+03   0.1195123E+04   0.1583682E+04
rotational constants/cm⁻¹ :        0.4230700E-01   0.1410536E-01   0.1064458E-01

 * 22 selected distances

     #   Z          #   Z                                           value/Å
     1   6 C        2   7 N                                       1.4713663 (max)
     3   6 C        4   7 N                                       1.2499246
     2   7 N        6   6 C                                       1.3120289
     5   6 C        6   6 C                                       1.3343804
     7   6 C        8   8 O                                       1.1949729
     7   6 C        9   7 N                                       1.3449704
     9   7 N       10   6 C                                       1.4462067
     9   7 N       11   6 C                                       1.3971428
    11   6 C       12   8 O                                       1.1941318
     5   6 C       13   7 N                                       1.3769401
    11   6 C       13   7 N                                       1.3851131
    13   7 N       14   6 C                                       1.4365814
     1   6 C       15   1 H                                       1.0911114
     1   6 C       16   1 H                                       1.0910610
     1   6 C       17   1 H                                       1.0904208
     3   6 C       18   1 H                                       1.0879818
    10   6 C       19   1 H                                       1.0877215 (min)
    10   6 C       20   1 H                                       1.0910484
    10   6 C       21   1 H                                       1.0910055
    14   6 C       22   1 H                                       1.0915136
    14   6 C       23   1 H                                       1.0915818
    14   6 C       24   1 H                                       1.0896081

 * 4 distinct bonds (by element types)

   Z      Z             #   av. dist./Å        max./Å        min./Å
   1 H    6 C          10     1.0903054     1.0915818     1.0877215
   6 C    6 C           1     1.3343804     1.3343804     1.3343804
   6 C    7 N           9     1.3800305     1.4713663     1.2499246
   6 C    8 O           2     1.1945524     1.1949729     1.1941318


optimized geometry written to: xtbopt.xyz


           -------------------------------------------------
          | TOTAL ENERGY              -42.107418034510 Eh   |
          | GRADIENT NORM               0.002402380791 Eh/α |
          | HOMO-LUMO GAP               0.520848121144 eV   |
           -------------------------------------------------

------------------------------------------------------------------------
 * finished run on 2024/06/05 at 20:00:09.695     
------------------------------------------------------------------------
 total:
 * wall-time:     0 d,  0 h,  0 min,  1.438 sec
 *  cpu-time:     0 d,  0 h,  0 min,  1.418 sec
 * ratio c/w:     0.986 speedup
 SCF:
 * wall-time:     0 d,  0 h,  0 min,  0.033 sec
 *  cpu-time:     0 d,  0 h,  0 min,  0.033 sec
 * ratio c/w:     0.994 speedup
 ANC optimizer:
 * wall-time:     0 d,  0 h,  0 min,  1.379 sec
 *  cpu-time:     0 d,  0 h,  0 min,  1.374 sec
 * ratio c/w:     0.996 speedup

