25
 energy: -42.107492714745 gnorm: 0.034787913181 xtb: 6.6.1 (8d0f1dd)
C            3.06467872429208        0.61656819139705        0.05393387595107
N            2.42285142008126       -0.70586842074102       -0.01038972839719
C            3.37306323117915       -1.78486631265819       -0.02317042242304
N            3.34569853597508       -3.03420629908339       -0.04985526042084
C           -0.06522724899399       -0.08662935249232       -0.01891835965838
C            1.11096074444468       -0.71679010588696       -0.02598110055056
C           -0.51427925360586        1.45004386877194       -0.03607839638901
O            0.24003482610553        2.37667461113331       -0.05412705507476
N           -1.85802584791698        1.39611300787080       -0.01654174634358
C           -2.71864556004475        2.55836792367233       -0.01982475598951
C           -2.36162770839080        0.09314068365481        0.00906890425867
O           -3.51219268387128       -0.22589246745439        0.02826774719595
N           -1.26784600588051       -0.75667001431801        0.00786626990778
C           -1.42020551513784       -2.18503716427679        0.02574478885610
H            3.62948888997609        0.71021794488651        0.98277348834656
H            3.73746208405899        0.73883015032769       -0.79625932707886
H            2.31161291252680        1.40441232459304        0.01913746078278
H            4.37049339972809       -1.35101143327688        0.00147013131755
H           -2.10087575446464        3.45363021995406       -0.02174680921213
H           -3.35632272334252        2.54131395831807       -0.90495947522602
H           -3.35595002960880        2.54398213316842        0.86557285537913
H           -0.94906079565472       -2.60839266844943        0.91467362928656
H           -0.96812416022815       -2.62671986794549       -0.86424933080866
H           -2.48714867445530       -2.40568667477493        0.03959144479278
H            2.48961870732497       -3.57728569478228       -0.07482721059929
25
 energy: -42.112745767344 gnorm: 0.023613521444 xtb: 6.6.1 (8d0f1dd)
C            3.05742044148719        0.64566526844745        0.05610411332203
N            2.42037385255887       -0.67569605005435       -0.00982084211140
C            3.35221167940472       -1.74969578756964       -0.02555173621410
N            3.26995049540533       -2.98847718656749       -0.05331018534071
C           -0.06369394667299       -0.11499025111988       -0.01853514860429
C            1.11477794233941       -0.72153703174473       -0.02349303451751
C           -0.47924170386273        1.40699473186508       -0.03807564575948
O            0.28614277224205        2.32521280633907       -0.05588124406025
N           -1.82866368926031        1.37712787827245       -0.01787333117259
C           -2.68571706673294        2.54564619610435       -0.02062933114198
C           -2.35195168600777        0.08182172011570        0.00823536958190
O           -3.50668466385932       -0.22310989208676        0.02809074563746
N           -1.26733912330308       -0.77920006813542        0.00835094006143
C           -1.42674083675715       -2.20460489706445        0.02708680502811
H            3.62456791792129        0.73330786089492        0.98409697592096
H            3.72922166477611        0.76514437884339       -0.79515304040516
H            2.30175766810189        1.43026427904268        0.02365392392614
H            4.36271221152165       -1.34606268173607       -0.00015408609713
H           -2.07002925518759        3.44216480456308       -0.02260537733640
H           -3.32717718895920        2.53178538191792       -0.90380872927695
H           -3.32647408558769        2.53430342892464        0.86305435017427
H           -0.95626198954511       -2.62630951350160        0.91688637372079
H           -0.97461479933732       -2.64547466237296       -0.86311237062942
H           -2.49487703079888       -2.41838046884380        0.04056073017100
H            2.40076193421024       -3.50766170292565       -0.07694460697363
25
 energy: -42.117062600620 gnorm: 0.013874899020 xtb: 6.6.1 (8d0f1dd)
C            3.05225454682185        0.69525975130787        0.06066857756979
N            2.42554006666264       -0.62676640471172       -0.00828443759333
C            3.32807549667157       -1.70017979577976       -0.02767833142314
N            3.15342230216839       -2.93171239301579       -0.05899846350233
C           -0.06541521080951       -0.15524607880129       -0.01858636095087
C            1.12559277374111       -0.73042730982659       -0.02234334787680
C           -0.43409835223401        1.34280336196095       -0.04047407980459
O            0.34246954761051        2.25545865091233       -0.05969586795723
N           -1.79096662649958        1.35101084700227       -0.01972478078994
C           -2.63721932118150        2.52777990474118       -0.02253815725692
C           -2.34128354329877        0.06696795070657        0.00814368320066
O           -3.50148352191023       -0.21713342808247        0.02839268410597
N           -1.27100932915431       -0.81271179917158        0.00966714182897
C           -1.43897490303729       -2.23579414324864        0.02946431933435
H            3.62165688161901        0.77777796902546        0.98731782869555
H            3.72217248085653        0.81464110609400       -0.79155332974349
H            2.29350046218404        1.47595314551924        0.03166578034380
H            4.35946234307140       -1.34694950285132       -0.00550726163018
H           -2.01712143433775        3.42098614385409       -0.02457973942941
H           -3.28000809668749        2.51625130009562       -0.90539038940222
H           -3.27876720019038        2.51864362507744        0.86119782017987
H           -0.97104923345302       -2.65919607662002        0.91978131635379
H           -0.98874423270098       -2.67966277245795       -0.86027089713454
H           -2.50817921651812       -2.44239356219995        0.04265449294546
H            2.26060483470276       -3.40712194792210       -0.08215658216012
25
 energy: -42.118175546795 gnorm: 0.012243632615 xtb: 6.6.1 (8d0f1dd)
C            3.05140250691999        0.72841855252723        0.06616270409193
N            2.43254824312022       -0.59617145887729       -0.00555185433395
C            3.31646284269248       -1.67730857898635       -0.03314230846648
N            3.08423990399149       -2.90163636167231       -0.06798425777003
C           -0.06628698409743       -0.17834800498863       -0.01656634309263
C            1.13481024531297       -0.73872862621562       -0.01674435780540
C           -0.41507791355495        1.30841695675834       -0.04395196886646
O            0.36055579154608        2.22420369259117       -0.06539976540571
N           -1.77347125977973        1.33439492837814       -0.02209950625294
C           -2.60575830643806        2.51769059119883       -0.02504726569398
C           -2.33464714061081        0.05583222628720        0.00776670130156
O           -3.49710395414875       -0.21794136753303        0.02835159640135
N           -1.27197445339168       -0.83509273883329        0.01127294103748
C           -1.44764794900454       -2.25797809937433        0.03238913179698
H            3.62319982440877        0.81233070015341        0.99106900861241
H            3.71872281091398        0.85526644174531       -0.78699355543825
H            2.29023698602872        1.50709241020158        0.04162620171480
H            4.35871242402886       -1.35974529453749       -0.01208092958351
H           -1.97361227714823        3.40266182772939       -0.02747571480332
H           -3.24658444025928        2.51060165622505       -0.90894573503410
H           -3.24480409071033        2.51331656770386        0.86014338734017
H           -0.98429606341953       -2.68553947086325        0.92335291743383
H           -1.00073733011632       -2.70759157351932       -0.85637590915177
H           -2.51801078030751       -2.46007283188825        0.04493474135849
H            2.16955287812070       -3.33583360260255       -0.08753824148739
25
 energy: -42.118586023148 gnorm: 0.008387923339 xtb: 6.6.1 (8d0f1dd)
C            3.05087287258418        0.74440130566069        0.07297610967493
N            2.43655222330997       -0.58118833138036       -0.00218679573331
C            3.31256353238133       -1.67044158428662       -0.03785612976623
N            3.05440937487179       -2.88766476360244       -0.07808341727324
C           -0.06510061788926       -0.18928417259768       -0.01493751048373
C            1.14032969743351       -0.74608237408912       -0.01335254217082
C           -0.41173736085083        1.29467626384085       -0.04683432371174
O            0.35771537705069        2.21657831395606       -0.07212483392065
N           -1.76916118904865        1.32407525325233       -0.02425388311469
C           -2.58838351039331        2.51350021899552       -0.02836140329032
C           -2.33112468661991        0.04716984070165        0.00828861105392
O           -3.49391393583142       -0.22448184898175        0.02906452413670
N           -1.26998318728864       -0.84759021239099        0.01373677771492
C           -1.45207232361759       -2.27043401130302        0.03621520345606
H            3.62434458822683        0.82994230623352        0.99682947766901
H            3.71644416783110        0.87866139968158       -0.78066570322365
H            2.28753952539631        1.52156333789470        0.05194310910556
H            4.35759856230398       -1.37152249640577       -0.02164303373568
H           -1.94272880866438        3.38930162203012       -0.03145999881163
H           -3.22735615105172        2.51352075104287       -0.91310850441116
H           -3.22541443239181        2.51736699681151        0.85779369955334
H           -0.99287493668655       -2.70152092011207        0.92781398840929
H           -1.00865775767038       -2.72506522270218       -0.85194129690460
H           -2.52370606824334       -2.46816630634908        0.04835441096674
H            2.12427655895546       -3.28907682429260       -0.09503491728591
