72
 energy: -99.250935811401 gnorm: 0.003496259177 xtb: 6.6.1 (8d0f1dd)
N           -1.87151312264675        2.84730318154650        2.23947342223829
C           -1.82434159367085        2.13735309923163        1.21287904323482
C           -2.97123169356354        1.92623039159146        0.26368343802936
C           -3.43418758235606        0.47916585434265        0.33687618171014
C           -4.34961559200736       -0.00337039787573       -0.60079298005187
C           -4.82004819346007       -1.30470268580262       -0.55033574766037
O           -5.71126376857181       -1.84494651857645       -1.40781218925703
C           -6.31217820688481       -1.02635104705935       -2.38329619277087
C           -4.35515723049999       -2.17781201915844        0.46961987986410
O           -4.86099900908223       -3.42769738307178        0.43879122988516
C           -4.52249324204032       -4.32836743344668        1.46718253452719
C           -3.44702857018193       -1.69303605024055        1.39683758782100
C           -2.99552628063729       -0.38041185904349        1.33167439354709
C           -2.41260622320088        2.23588615283032       -1.15009618305137
C           -1.48174237951722        1.15075336438261       -1.72129210157823
C           -0.14868240741451        1.10864422539662       -1.07991584809020
N            0.49232501880984        0.00533693246019       -0.70619702220205
C            1.88273428864830        0.05835291456639       -0.32236013090999
C            2.80521571503373       -0.45406357425427       -1.44597156575333
C            4.24446816368542       -0.26579959831586       -1.05630893146194
C            4.93091925911586        0.88803103507706       -1.44661085522122
C            6.23525208325233        1.05426954172976       -1.07630813579564
C            6.89766310406480        0.11843234590985       -0.30716713268071
O            8.18316492737837        0.25595933071799        0.10762399809815
C            8.91625084732364        1.25099172766728       -0.30424018220820
C            6.21569734093088       -1.05913621872429        0.11145539162150
O            6.93957023383445       -1.92005622217655        0.85207148702482
C            6.34880556592034       -3.11951759000839        1.29377097642281
C            4.89269716285827       -1.22074031831293       -0.27799897780372
C           -0.13444971151406       -1.29431559251856       -0.74518125946015
C           -4.19540514451491        2.84227382304045        0.56216993276730
C           -4.82811079455726        2.50777627300734        1.91098816166323
C           -3.86140333605963        4.33025149574416        0.50445460042839
H           -4.71151675931972        0.65510027071707       -1.37279264352566
H           -6.83806002594234       -0.18116719088696       -1.92901811024397
H           -7.03041977230703       -1.66310765730536       -2.89602327495288
H           -5.57853866051558       -0.65628648190350       -3.10708020874570
H           -4.81305567214604       -3.94315838428537        2.44903055705080
H           -5.08299639719294       -5.23683760231152        1.25575973703709
H           -3.45154647197243       -4.55581276272011        1.46595063806129
H           -3.09068864262193       -2.32712031380842        2.19237800189768
H           -2.31397823229833       -0.03014410424851        2.09141655862578
H           -3.24893767804052        2.35758801248517       -1.83756594183716
H           -1.87479636944006        3.18406787777074       -1.11521122840833
H           -1.97913758994903        0.18346344739170       -1.67953935227110
H           -1.32414551743475        1.39987925500556       -2.77908380669580
H           -0.90940282636933        1.61958806434928        0.86418385750968
H            0.41707137949752        2.02810231648936       -1.04619977456085
H            2.03237648732721       -0.54721099607300        0.57597097562950
H            2.15354348847813        1.08994610124092       -0.08815025181408
H            2.59214834205077        0.10716893035943       -2.35731776137864
H            2.60314457285801       -1.50946327474656       -1.63545374990505
H            4.43275871159578        1.63183654861236       -2.05052039811703
H            7.26333109629519        3.16058741891963        1.11885526534901
H            7.89665922529540        2.79022680002868        0.81312044233765
H            8.58676673859319        1.88781195975039       -1.11208669989510
H            9.90692902978902        1.29192631889009        0.11118152703078
H            7.12408602557532       -3.63537571960596        1.85731342013289
H            5.49305604077659       -2.92775928253819        1.94839639747361
H            6.03575506397700       -3.74567392430015        0.45275276071286
H            4.35272912227809       -2.10874582538461        0.01344907761494
H           -0.29918517855964       -1.62508875874170       -1.77311169039787
H           -1.09539924830509       -1.26936368573645       -0.22548905091810
H            0.50807853205192       -2.01673457110066       -0.24801929307789
H           -4.93637738635444        2.63172238351137       -0.21756926095915
H           -4.12910925031387        2.72144376575788        2.71302412100869
H           -5.11554209030789        1.46040162626445        1.96190890910948
H           -5.71824382828476        3.11423140888498        2.05587541661493
H           -3.10534191431510        4.57627935518029        1.24356311677742
H           -3.51316389435959        4.63096732434612       -0.48013037989441
H           -4.75606078790629        4.90455512590206        0.73030512248612
H           -1.02305369365530        2.93960856569067        2.78952499481283
