72
 energy: -99.293805282024 gnorm: 0.004013739708 xtb: 6.6.1 (8d0f1dd)
N           -1.97033595601359        2.87937235135683        2.22996147268216
C           -1.91699603021567        2.16721495802000        1.20646979553205
C           -3.06395356246571        1.94866668716813        0.25853385280913
C           -3.51259432315985        0.49651948166525        0.33293455565081
C           -4.45179009177659        0.01565465914270       -0.58162820233430
C           -4.91457815544637       -1.28859160859026       -0.52695671473356
O           -5.83027404628642       -1.82531433249180       -1.35775292321628
C           -6.46418027706812       -1.00422317921664       -2.31041214784822
C           -4.41221170152995       -2.16841367473255        0.47099103356961
O           -4.91369338167464       -3.41783423735924        0.44731903593057
C           -4.52225204425507       -4.33465471058112        1.44287942293818
C           -3.47614335243214       -1.68570880149293        1.37215164618951
C           -3.03701642132273       -0.36974655013981        1.30562673823833
C           -2.51805952566664        2.26188394045670       -1.15952086473162
C           -1.57035421815111        1.19084094889140       -1.72550981708651
C           -0.22264372437727        1.21794443526987       -1.11664412007882
N            0.49555903607722        0.15384199752214       -0.79479031568648
C            1.87795184130937        0.29285188809382       -0.39925039006538
C            2.83801613201235       -0.05004081988602       -1.55357642302907
C            4.25913862238913        0.14072125149269       -1.09631642793575
C            4.91604656114317        1.35546580349632       -1.32184245920207
C            6.21462175801273        1.55346182438779       -0.88004464595714
C            6.89298980007364        0.56108631401833       -0.19150339434565
O            8.13705246161599        0.64477771465971        0.28085523755824
C            8.88924474953197        1.82223060701469        0.09556809612515
C            6.24097758997889       -0.72859770081360        0.08091819260214
O            6.81532588608530       -1.63103609556008        0.70402599972106
C            6.96057317995763       -5.27560023149789        2.01420616192204
C            4.90428974370068       -0.86307624013656       -0.41668504538414
C           -0.02798503868582       -1.18645176036973       -0.90791558581685
C           -4.29322668286585        2.85643024523997        0.56167006492550
C           -4.92686002623664        2.51048358148878        1.90684322455504
C           -3.96828155486637        4.34676616641936        0.51302452724177
H           -4.83953953263480        0.67738302572106       -1.33804776982432
H           -6.98230404289305       -0.16585187683186       -1.83518270828494
H           -7.19245338351120       -1.64236678762888       -2.80688521377540
H           -5.75364809861909       -0.62455348825727       -3.05178877296797
H           -4.78237572161336       -3.97527173563985        2.44288647879853
H           -5.07551337073000       -5.24768059627469        1.23231984104534
H           -3.44869952326043       -4.54319198873683        1.39685781178599
H           -3.09016540862286       -2.32451810561947        2.14982876026120
H           -2.33485186790807       -0.02341518709930        2.04804436062146
H           -3.36107706879097        2.36410018760039       -1.84162250165057
H           -1.99829484551945        3.22020306509146       -1.13322314704254
H           -2.03262840021764        0.20856939304457       -1.63936594923323
H           -1.44823972368900        1.40730219681226       -2.79509085346488
H           -1.00000322636793        1.64946635076320        0.86410174152247
H            0.27339034522479        2.17515235535831       -1.04781897662940
H            2.07927846738554       -0.36997253680634        0.44627591141699
H            2.06096860527540        1.32062712136817       -0.07912569991405
H            2.62337337350975        0.60183991610918       -2.40218184962491
H            2.68444936906582       -1.08469811089975       -1.86219829683715
H            4.41403028861933        2.14585420862344       -1.85910506133439
H            6.69690118012544        2.49749892772446       -1.08286727435417
H            8.40455443701661        2.68375141718357        0.56536238588278
H            9.04959386156696        2.02945502867273       -0.96676168754682
H            9.84747696808068        1.63674422518668        0.57791967919902
H            7.87408569341831       -4.73713718494504        2.17476084194587
H            6.18749829543609       -5.24979906815124        2.75242830961007
H            6.80705462022307       -5.80676858448339        1.09939985601010
H            4.42597655153307       -1.81386595280320       -0.23469330554750
H           -0.22524279878247       -1.44579528659549       -1.94985631132019
H           -0.95740400783184       -1.28233497843112       -0.34144315117733
H            0.69689705579640       -1.88949851417837       -0.50654541531600
H           -5.03194452668811        2.64760050427685       -0.22045699873244
H           -4.23256519046612        2.72626262443025        2.71247467807499
H           -5.20578134069827        1.46052585175314        1.95242225523262
H           -5.82231129051373        3.10900248736490        2.05156299481676
H           -3.22326428529024        4.59544712033201        1.26231005125845
H           -3.61008105967388        4.65375270465930       -0.46593791487000
H           -4.86953053939241        4.91413511749955        0.72955450091586
H           -1.12945150894895        2.97926076338607        2.78932366292171
