25
 energy: -42.252643035701 gnorm: 0.160504147117 xtb: 6.6.1 (8d0f1dd)
C            3.23720193040000        1.16630930800000        0.08434470430000
N            2.29877838710000        0.07527477770000        0.03981603410000
C            2.58028234130000       -1.21425413710000        0.03006176310000
N            1.43813971430000       -1.93419289900000        0.00098261770000
C            0.39035692070000       -1.05887482460000       -0.00790371910000
C            0.93510065040000        0.21347821430000        0.01709077650000
C            0.09450144770000        1.40504316940000       -0.00410947070000
O            0.49712756140000        2.54126737940000       -0.00342325720000
N           -1.25076651640000        1.06271889340000       -0.03085478510000
C           -2.21907232570000        2.15522119830000       -0.05001257450000
C           -1.81739503910000       -0.20012727850000       -0.04692819010000
O           -2.99983914590000       -0.37846420530000       -0.07008878880000
N           -0.92618594800000       -1.30210227680000       -0.03682761920000
C           -1.46982278550000       -2.64643126740000       -0.06029821020000
H            3.71247298800000        1.21471466430000        1.06488859030000
H            4.00791534790000        1.03430818410000       -0.67357700620000
H            2.69910032210000        2.09770137690000       -0.09130155730000
H            3.56654153700000       -1.63683007790000        0.04233140460000
H           -1.67107976570000        3.09322879970000       -0.02552707170000
H           -2.82428979800000        2.09428644210000       -0.95318091790000
H           -2.87644055860000        2.07745744900000        0.81450075090000
H           -1.17062007260000       -3.19584920310000        0.83242240160000
H           -1.14560268040000       -3.17511639750000       -0.95688284700000
H           -2.55549816150000       -2.55660008040000       -0.07459040490000
H            1.38130868000000       -2.94313879340000       -0.01389874310000
25
 energy: -42.274104553332 gnorm: 0.074980869923 xtb: 6.6.1 (8d0f1dd)
C            3.25468478183793        1.18657813496052        0.09215085243038
N            2.31581172374393        0.10498047858627        0.04224421546285
C            2.61096119084397       -1.22164267903019        0.03468168745608
N            1.44112962987469       -1.93371545230266        0.00314914262714
C            0.40308278521759       -1.05634960408567       -0.00875087797943
C            0.93541278921485        0.22493420662849        0.01687971412576
C            0.09904758221252        1.39285365460404       -0.00629282325721
O            0.49413215196669        2.56009943266077       -0.00335616064864
N           -1.26652757997321        1.04058131146784       -0.03404536297124
C           -2.21151235174157        2.14929570335481       -0.05365951168344
C           -1.82946894098887       -0.22066796373281       -0.04943356995309
O           -3.02458846076999       -0.45438304993285       -0.08362652049525
N           -0.93145492834251       -1.30539151278748       -0.03684372477514
C           -1.51002337976555       -2.63384434834013       -0.05838644190322
H            3.74196741847440        1.22624780467715        1.07032436413753
H            4.01937337181978        1.05708411883619       -0.67572173436068
H            2.71117836437509        2.11452169006853       -0.07362735624752
H            3.59141472915499       -1.64350925834151        0.05053814666927
H           -1.64169967394954        3.07726504754851       -0.06483805987963
H           -2.83843366773930        2.08386976747336       -0.94055576257378
H           -2.84429587529406        2.10836048772754        0.83116553195831
H           -1.15234279229024       -3.20749459939257        0.79683577905913
H           -1.21799876501030       -3.15113104442117       -0.96018647898178
H           -2.61849395057338       -2.57217753788470       -0.05093730431866
H            1.38085887860209       -2.93733637274227       -0.01067386379771
25
 energy: -42.312290630391 gnorm: 0.095604589418 xtb: 6.6.1 (8d0f1dd)
C            3.29114498648454        1.22529248602130        0.11138216806518
N            2.34578357865518        0.15800830482830        0.04970721307837
C            2.66457800914577       -1.22329177933555        0.04838673702867
N            1.45420003247525       -1.92266217150156        0.01031374276003
C            0.42615944604911       -1.05491046437924       -0.00913810522546
C            0.93615273318818        0.24396672536179        0.01756091860869
C            0.10454421789828        1.36137166867918       -0.01009078170646
O            0.47056753346707        2.57112820484795       -0.00234085308343
N           -1.30218680394091        0.99404786067109       -0.04372943593458
C           -2.19328110483838        2.14042908823741       -0.06394375883253
C           -1.85109746584873       -0.26571656238976       -0.06096081713863
O           -3.05371428639685       -0.62274543675842       -0.12064434662809
N           -0.93964363429845       -1.31433525580207       -0.03584485115960
C           -1.59628150304702       -2.61257179650041       -0.05487346847222
H            3.81289464375316        1.24822775925860        1.07888896386469
H            4.04323914214609        1.11480055020576       -0.67883365360120
H            2.74472453575077        2.15514972813218       -0.02405014463241
H            3.63845046402709       -1.64042992297733        0.07340414138998
H           -1.57073650149543        3.04208289313156       -0.17520947954474
H           -2.88271513968045        2.05484585300133       -0.90374590337356
H           -2.75715525287619        2.19794435899286        0.87698546934836
H           -1.10782108394332       -3.24648597412900        0.70865521027451
H           -1.41404912282767       -3.09688680175714       -0.99161373415850
H           -2.74880588540697       -2.59785053328146        0.02851688524322
H            1.39726349245983       -2.92038036695738       -0.00174823607029
25
 energy: -42.354524603366 gnorm: 0.201956938144 xtb: 6.6.1 (8d0f1dd)
C            3.33069982889886        1.26698255141196        0.13300336643658
N            2.37640806814793        0.21399932051646        0.05900074809405
C            2.72031356365128       -1.22136312272357        0.06523669369754
N            1.47276023092016       -1.90828985066296        0.02100600610770
C            0.44973686574748       -1.05690378386017       -0.00602968218100
C            0.93719707337341        0.26190443002118        0.02022015856612
C            0.11096067558176        1.32829019779063       -0.01170862659295
O            0.44419746613659        2.57659954838213       -0.00039268703305
N           -1.34373652520864        0.94602889113350       -0.05660908366378
C           -2.17150005615455        2.13535103943831       -0.07689148716279
C           -1.87736622560665       -0.31300651530510       -0.08123806421746
O           -3.08346197675494       -0.80466151176217       -0.16839160469406
N           -0.94967562755441       -1.32718240823843       -0.03156379790043
C           -1.68822497452295       -2.59801927376989       -0.04654458940849
H            3.89319920206672        1.26961702529189        1.08615467086877
H            4.06786716758516        1.18253244437873       -0.68283585378675
H            2.78484751050008        2.20268250054231        0.03605527886839
H            3.69008815201483       -1.62996461373459        0.10065750855773
H           -1.49598338512546        3.00459271705441       -0.30854659209065
H           -2.93854276018132        2.02238898414725       -0.85439775867464
H           -2.64673274554083        2.30883053899064        0.92742205803853
H           -1.05186032209088       -3.29985775978145        0.59874312092940
H           -1.65298653731814       -3.03180299420746       -1.03269863862726
H           -2.89228092841408       -2.63769901660375        0.12781603055108
H            1.42629129074852       -2.90202092284988        0.00956670541743
25
 energy: -42.398520268895 gnorm: 0.255288651834 xtb: 6.6.1 (8d0f1dd)
C            3.36434967042943        1.29608519041523        0.14737509132044
N            2.39830027561019        0.25346726455696        0.06492296072962
C            2.75812125556894       -1.21672689220902        0.07900470815898
N            1.49311807258885       -1.88872678199388        0.03460708649185
C            0.46420087438593       -1.06323678887143        0.00692492002504
C            0.94104420709430        0.27253616228795        0.02611186105528
C            0.12497918532118        1.31068346197882       -0.00326209559176
O            0.42749293601860        2.56659641383870        0.00444594663611
N           -1.38591027659046        0.91992895954650       -0.06913833060231
C           -2.15089197458602        2.14389882642295       -0.08723866367045
C           -1.90815338440521       -0.33829275889619       -0.11991822818806
O           -3.10475184850720       -0.94507480943681       -0.22757991708362
N           -0.96494731695029       -1.33893357781354       -0.01881559846098
C           -1.75034807523580       -2.60858776566870       -0.02093380522875
H            3.96077780678231        1.28354062931809        1.08432955703314
H            4.08855384557356        1.24261518055408       -0.68873381520548
H            2.82563156902050        2.24311439439823        0.08719210130643
H            3.73114441946300       -1.61269120167460        0.12121434957686
H           -1.45910683687154        2.97818770930451       -0.41086125562590
H           -2.98147927843524        2.00757105569576       -0.79713402678775
H           -2.53652813470948        2.40324458128239        0.94898857260544
H           -1.00447392550599       -3.34775604472759        0.48780210144764
H           -1.87049215721101       -2.96453347739661       -1.04553391851109
H           -3.01690106760073       -2.72136022556955        0.20477248154381
H            1.46848518965209       -2.88652108974228        0.01849179712550
25
 energy: -42.457960272243 gnorm: 0.203740689429 xtb: 6.6.1 (8d0f1dd)
C            3.38716569430579        1.30378211963110        0.15492057195182
N            2.40829732420795        0.25761234654562        0.06669380030666
C            2.76177744015999       -1.20631008951673        0.08718867234558
N            1.52158494394289       -1.85779970577654        0.04614793044156
C            0.46735588086146       -1.07586220157392        0.02659362072382
C            0.95794867624733        0.26989547772295        0.03125018755841
C            0.15172859598847        1.32729301962656        0.01307513010732
O            0.41185109909153        2.52872231220061        0.00671368599367
N           -1.43178367631272        0.92448630536314       -0.07356685074845
C           -2.13699028138006        2.16485259409101       -0.09102200452633
C           -1.94422935219575       -0.33471013982994       -0.17025465027887
O           -3.09959477269903       -1.03624282330961       -0.27963246315824
N           -0.97878252548086       -1.34787187805422        0.00146847940281
C           -1.75805195771971       -2.65785517157497        0.02473195678216
H            4.00101107071849        1.28946068668503        1.07393552847533
H            4.10182792543959        1.28805259024006       -0.69020642729310
H            2.86181551891403        2.26884344544618        0.12294482499723
H            3.75313971178927       -1.58685105005335        0.13457950702101
H           -1.47201416800192        2.94657438172146       -0.47663872549489
H           -3.00173551615276        2.00518824327394       -0.72692544728360
H           -2.42846278624636        2.47110762029279        0.92530715335272
H           -0.98436836290830       -3.36515131588251        0.36486335905674
H           -2.05064861825586       -2.88838458026780       -1.01189503157717
H           -3.11448893472191       -2.82428271102156        0.24578282477028
H            1.52786210130833       -2.87552106037932        0.02097824717356
25
 energy: -42.512210281136 gnorm: 0.160497682498 xtb: 6.6.1 (8d0f1dd)
C            3.39964394517566        1.31193775269905        0.16452006145901
N            2.42038012123154        0.25145807259076        0.07681916343266
C            2.76069863718395       -1.18326864126895        0.09424978424725
N            1.55695436607513       -1.84241140981542        0.05646662754017
C            0.46633231480630       -1.08347697905315        0.04240032825354
C            0.98162041510181        0.26025579059992        0.04026957926522
C            0.17795578661806        1.35223268792099        0.01674941679897
O            0.39857034370760        2.52722199367935        0.01261511512740
N           -1.45018665002147        0.90871791866394       -0.07433145890919
C           -2.12583854843070        2.16967781250042       -0.10010104201089
C           -1.97076854184630       -0.35391760942235       -0.17587958839800
O           -3.09573012477222       -1.09467586199048       -0.34053471631232
N           -0.98375549910145       -1.35861135722833        0.02152291028160
C           -1.78317644551650       -2.68763815822396        0.03758256654136
H            4.02567034947251        1.28295097531084        1.07068447059951
H            4.10031141692901        1.31499331381720       -0.68905825178694
H            2.88446400982145        2.28351537280199        0.15559368083376
H            3.76537396479100       -1.54961319867623        0.14808538123978
H           -1.47196050987583        2.91691567226497       -0.58664560668562
H           -3.04749638559168        2.00280579510962       -0.66053954468386
H           -2.31707293903464        2.54720987335071        0.92985749912022
H           -0.92953859516373       -3.40019453721586        0.20460928761931
H           -2.19141829283432       -2.79637738984507       -0.96455209926558
H           -3.24182895952895       -2.92725480613334        0.31790324772700
H            1.58301085170362       -2.86342466683665        0.02874706806566
25
 energy: -42.547515987293 gnorm: 0.188176435043 xtb: 6.6.1 (8d0f1dd)
C            3.39541936372463        1.30832426817143        0.16444480479113
N            2.42670893212096        0.20714159017304        0.09146552442721
C            2.72681388080987       -1.12329332085590        0.09572578524080
N            1.60372520217059       -1.83373825019718        0.06431988704174
C            0.45767727522991       -1.08104057409582        0.05222262172271
C            1.02010372202214        0.24028572571501        0.05127647819550
C            0.20670243862665        1.39233806831861        0.01067724273873
O            0.39229972833863        2.54596523281421        0.01877750539377
N           -1.42653294201070        0.88630712924862       -0.07509737326001
C           -2.11718984313666        2.16066423101546       -0.10714688850496
C           -1.97475313937704       -0.39535780344896       -0.16100566768052
O           -3.05836854065978       -1.09857005910415       -0.32991521595462
N           -0.95376295032122       -1.37310923691446        0.03353018762408
C           -1.76716145731661       -2.71729478952191        0.01604164876298
H            4.02314293543108        1.26261988793499        1.06088980280907
H            4.08136023373870        1.31463457314566       -0.68977102621233
H            2.88997977364571        2.27752595118403        0.17023929581112
H            3.74696653704913       -1.49057620537469        0.15564548198608
H           -1.51494195061513        2.89088908602733       -0.65171208054392
H           -3.06028122196496        2.02144235560130       -0.60580430723665
H           -2.23870625533664        2.56354912897413        0.89424039751457
H           -0.95024543270596       -3.38970770382145        0.05322952575573
H           -2.26449599534841       -2.72665646562117       -0.87344825368653
H           -3.36399118933184       -3.00409597108311        0.34751709842124
H            1.63174592611678       -2.84921843268504        0.04069140494308
25
 energy: -42.574657663226 gnorm: 0.162553663640 xtb: 6.6.1 (8d0f1dd)
C            3.40956430399269        1.32402164011692        0.17165781745507
N            2.44358775665529        0.21899928394305        0.10581987892058
C            2.74101068924546       -1.08456055361139        0.10843961139149
N            1.62540825091712       -1.83149630873518        0.08044844475469
C            0.46461963654409       -1.06940398394588        0.06680363231906
C            1.02924089260680        0.25111009664030        0.06329028299579
C            0.22144135178351        1.38712900010776        0.00854476295161
O            0.40048253078338        2.58381799898272        0.02772768486216
N           -1.41432794960450        0.85994537477966       -0.09341055566890
C           -2.09870937473922        2.15711620376316       -0.12638885422564
C           -1.97737498607911       -0.43636682103708       -0.17029436122627
O           -3.06031644397842       -1.16784262491166       -0.35804946697614
N           -0.93441122463954       -1.38143109529780        0.05752238827908
C           -1.78333911461866       -2.71342959365986        0.02243384631549
H            4.05090162681996        1.25430370087632        1.06155285311656
H            4.08208362798489        1.32981729613156       -0.69413789960449
H            2.90543259473795        2.28711679164199        0.19868004867069
H            3.75735114875515       -1.45643407645826        0.17275119153683
H           -1.52385266527545        2.88598581066323       -0.73699092131572
H           -3.08816289130486        2.02096094929921       -0.56378891431255
H           -2.15169758695872        2.60908504465806        0.88917049329152
H           -0.87219794065826       -3.45858128440104       -0.08213806308525
H           -2.46168658450316       -2.62075295673603       -0.87669942087826
H           -3.51273351321229       -3.12543192694930        0.43558598320499
H            1.65990089564570       -2.83464955026054        0.05850341732764
25
 energy: -42.606096484506 gnorm: 0.174723046534 xtb: 6.6.1 (8d0f1dd)
C            3.40852855390316        1.32811813583067        0.17598443543980
N            2.43906180175275        0.22945128539227        0.11464114505024
C            2.74204258695222       -1.05776074984456        0.11608366361233
N            1.62077546216499       -1.83318841194550        0.08001329775598
C            0.45786106190744       -1.05379426086469        0.05419547693818
C            1.01300797673671        0.26909691871516        0.06478910857820
C            0.20850095092742        1.37411534981425        0.00126814887093
O            0.42817245199827        2.58803661220844        0.03251070165311
N           -1.38734154938279        0.86765358378329       -0.10770993884764
C           -2.08847209192174        2.15983646111268       -0.13067704870462
C           -1.97036942977245       -0.43805868121164       -0.16769999385941
O           -3.07175585458981       -1.12802718561253       -0.31167260315682
N           -0.92012022183464       -1.38208980355746        0.03241620621902
C           -1.76036624003262       -2.70590552503105       -0.00702811906408
H            4.05774555038549        1.24636729145993        1.06353255682980
H            4.07593702125132        1.32823716554084       -0.69742449456639
H            2.90095077573637        2.28778492654305        0.21403330792821
H            3.75110050800669       -1.44397584541676        0.17735606304330
H           -1.51540302746393        2.89712553883432       -0.77974767823792
H           -3.10582223234824        1.99874313993798       -0.54006078518203
H           -2.10960588856074        2.63279218486825        0.91321507329530
H           -0.86766298970933       -3.45721074115668       -0.10119389671894
H           -2.43871212279891       -2.65130891860543       -0.82835414888753
H           -3.61351009065030       -3.23594646565986        0.39959549990099
H            1.65767206824244       -2.83106358953503        0.05896790221003
25
 energy: -42.689870551201 gnorm: 0.257554707969 xtb: 6.6.1 (8d0f1dd)
C            3.40473270438168        1.32391621722755        0.17165666779156
N            2.43173417397421        0.23460923391071        0.12290872418328
C            2.74550162859124       -1.01181971904214        0.12501417833374
N            1.62159145189754       -1.84077086297274        0.07934830872726
C            0.45856820087705       -1.01968516431863        0.03948819289888
C            0.98451745346264        0.30723723266362        0.07041760771799
C            0.15539561082521        1.35288526959338        0.00402113567604
O            0.47962654029647        2.57510408889126        0.03598054913035
N           -1.32733477786801        0.90108130529794       -0.12236357557523
C           -2.08310507226329        2.16409658143409       -0.13618315639482
C           -1.93959344120818       -0.44728330881104       -0.15205500736453
O           -3.07545810728473       -1.08346730321741       -0.24501659663878
N           -0.84967049441485       -1.37772178607656       -0.00751580241930
C           -1.63946355794828       -2.66547030461718       -0.06128537103809
H            4.05001369813822        1.23708557543479        1.05838295097385
H            4.07069834728264        1.31032414572927       -0.70362398163808
H            2.89028082637775        2.27514163398028        0.21112247829111
H            3.73813275400840       -1.43718371997362        0.17322695791248
H           -1.53892712140563        2.91510494077904       -0.75232369420788
H           -3.06547898308715        1.99242546891185       -0.53156762089615
H           -2.11426984619708        2.60473281668660        0.88228744651553
H           -0.86458439624595       -3.43229865581420       -0.12291224941509
H           -2.41602148831506       -2.67281153657017       -0.71699933180234
H           -3.86397514579512       -3.38343460639912        0.34486827146757
H            1.65930407282006       -2.83276912712762        0.06015679787066
25
 energy: -42.788806927464 gnorm: 0.307211546556 xtb: 6.6.1 (8d0f1dd)
C            3.40299151847864        1.31583721821085        0.17106933229034
N            2.42860539244641        0.23739585874835        0.12401686945924
C            2.75614602361192       -0.99864415869990        0.12804366482322
N            1.62258968216325       -1.84660840512645        0.07491779371660
C            0.46960508231187       -0.99194914395563        0.03072058469447
C            0.96546793284650        0.34021871650451        0.07163875665123
C            0.08289374171250        1.34329931396748        0.00720821701961
O            0.50995221973059        2.55543559875793        0.03436385029140
N           -1.27748201191761        0.94905272263394       -0.13009732839556
C           -2.08310661563367        2.17682875002811       -0.13516331845315
C           -1.91375696419391       -0.45498671295826       -0.14645500485800
O           -3.08449224179479       -1.10319283408022       -0.21111813170624
N           -0.77672169263531       -1.37382849676207       -0.04760385997361
C           -1.43946996487227       -2.61317321253562       -0.10860181831156
H            4.03536437376848        1.23428908297908        1.05943956075949
H            4.07222117876273        1.29616284797350       -0.69997521302811
H            2.88196441710639        2.26472155188688        0.20209217136612
H            3.73397638176453       -1.45288068074585        0.16606242806175
H           -1.55416144076410        2.93051751612367       -0.73156372812912
H           -3.04894927863227        1.98134561004783       -0.51002820807490
H           -2.11335105136239        2.59162401843760        0.86751447980171
H           -0.85463290584424       -3.39854704756337       -0.13451280488661
H           -2.40527316542656       -2.68461626464069       -0.56669642955728
H           -4.15647652063997       -3.46926526430587        0.25788034463938
H            1.65831093991310       -2.84000816932580        0.05388167189960
25
 energy: -42.891681499178 gnorm: 0.261500546358 xtb: 6.6.1 (8d0f1dd)
C            3.40654870156907        1.30870740437037        0.16764708639632
N            2.42828467641819        0.24429526948658        0.11646425117002
C            2.76531715009302       -1.03217686452766        0.12558007515415
N            1.61913259904349       -1.83488641015668        0.07267863218348
C            0.48635787393799       -0.98684594912459        0.03515948559024
C            0.97165805971886        0.34975146494310        0.06871758492073
C            0.04022985974989        1.35838235894253        0.01327570446469
O            0.52102322674598        2.53320225490821        0.02655964619329
N           -1.25873876039575        0.99985924159814       -0.12347737984652
C           -2.07894591247491        2.19753862300694       -0.13202955520561
C           -1.91071587298212       -0.43991471455172       -0.14261083525844
O           -3.10344493269871       -1.18382790198746       -0.19960257251662
N           -0.76978360257867       -1.37111252678546       -0.06173064581036
C           -1.31043917300690       -2.55630318762502       -0.13168418873014
H            4.03166461287775        1.24153511467887        1.05654412215085
H            4.07722310395603        1.29040327578508       -0.70085073985094
H            2.88053526440022        2.26549916020869        0.18513316961953
H            3.74148595171293       -1.47316926025275        0.16169886404063
H           -1.56280170959533        2.94654393807384       -0.68578587546963
H           -3.01289609011534        1.97988896533045       -0.51889516970494
H           -2.13930635812168        2.57093187131994        0.84184906902227
H           -0.79164279090843       -3.44766512834621       -0.16862332157992
H           -2.34990278431716       -2.66299013320952       -0.41094359326669
H           -4.42193823373840       -3.46560813003094        0.18059852935753
H            1.65331017160980       -2.84301032045474        0.05136153707610
25
 energy: -42.999999613188 gnorm: 0.241792294122 xtb: 6.6.1 (8d0f1dd)
C            3.41440131246243        1.30577034795380        0.17136637287069
N            2.43701206113237        0.24887231328726        0.11108820352384
C            2.76191957135919       -1.09332599677883        0.11788722802342
N            1.63053195538005       -1.79459785521055        0.06406632183781
C            0.52642051416849       -0.99987081480822        0.03397666396611
C            1.03218059756733        0.32583272165693        0.06048553613057
C            0.08228725020590        1.41781138510251        0.01707947132065
O            0.51942537930759        2.53387245617332        0.03027575178590
N           -1.26931524072069        1.02517327166124       -0.10863578844374
C           -2.06834490771813        2.21251447567810       -0.12127570862177
C           -1.93080872110551       -0.41942070086454       -0.14472906626949
O           -3.12740975786819       -1.37043270122076       -0.22786977787143
N           -0.81364287329268       -1.36804851632430       -0.07791595196602
C           -1.24493139757965       -2.56546304878715       -0.14402892823323
H            4.02691723234708        1.25040282524813        1.06549580758130
H            4.08452808395526        1.28770303540957       -0.69214509952131
H            2.88217844339008        2.27031864939232        0.16806707943373
H            3.75757301781917       -1.47117854412647        0.15878093669879
H           -1.56157685565459        2.96787586501302       -0.68260091028409
H           -3.01839871480549        1.96718531304964       -0.53090640987786
H           -2.14390215075047        2.58483864937597        0.87407303851886
H           -0.73261636141034       -3.42853966881316       -0.16334811983050
H           -2.33086658423220       -2.63971329952749       -0.29171271693507
H           -4.65606280565961       -3.43064430777797        0.09831657392039
H            1.65471598260245       -2.82790743916238        0.04124337234246
25
 energy: -43.108438208153 gnorm: 0.255581752770 xtb: 6.6.1 (8d0f1dd)
C            3.41847853345426        1.30816277280358        0.16852176643136
N            2.44675997150141        0.24569910627913        0.11089600337745
C            2.75778594370571       -1.10640059356205        0.11199201945109
N            1.63606071955885       -1.78627970316458        0.05244708401030
C            0.55695368113125       -0.98289323944132        0.01650128678569
C            1.07378381468304        0.31250135696610        0.04980740100618
C            0.10886739913801        1.43745733685676        0.00941410891380
O            0.54248777098003        2.57561127803610        0.03491911331046
N           -1.24239342108780        1.02331118687931       -0.09926165274940
C           -2.05660197743314        2.22093716452665       -0.10667278171615
C           -1.94417428194594       -0.42714531742226       -0.13886890788111
O           -3.19401361017941       -1.54223781174504       -0.25009321989727
N           -0.81152254070141       -1.33306277550027       -0.08892511299876
C           -1.19653651522088       -2.55501723826768       -0.14592047735118
H            4.01677442904161        1.25794828719411        1.07707847740310
H            4.09921387419718        1.27404485365716       -0.68388097034856
H            2.88350873426037        2.26363322571571        0.14502025328253
H            3.76417210683038       -1.46862406672421        0.15528505156126
H           -1.54795191237666        3.02003824684272       -0.64608780395617
H           -2.98389715030951        1.97379283860299       -0.57344485259443