25
 energy: 0.000000000000 xtb: 6.6.1 (8d0f1dd)
C            3.23720163006194        1.16630919979326        0.08434469647475
N            2.29877817382611        0.07527477071623        0.03981603040599
C            2.58028210190900       -1.21425402444508        0.03006176031096
N            1.43813958087363       -1.93419271955128        0.00098261760884
C            0.39035688448383       -1.05887472636071       -0.00790371836672
C            0.93510056364412        0.21347819449412        0.01709077491437
C            0.09450143893243        1.40504303904423       -0.00410947031874
O            0.49712751527797        2.54126714362870       -0.00342325688240
N           -1.25076640035757        1.06271879480407       -0.03085478223738
C           -2.21907211982101        2.15522099834493       -0.05001256985998
C           -1.81739487048744       -0.20012725993278       -0.04692818574614
O           -2.99983886758376       -0.37846417018721       -0.07008878229737
N           -0.92618586207120       -1.30210215599479       -0.03682761578324
C           -1.46982264913417       -2.64643102187190       -0.06029820460571
H            3.71247264356769        1.21471455160235        1.06488849150277
H            4.00791497605742        1.03430808813993       -0.67357694370751
H            2.69910007168542        2.09770118228144       -0.09130154882931
H            3.56654120610678       -1.63682992603973        0.04233140067262
H           -1.67107961066214        3.09322851271934       -0.02552706933167
H           -2.82428953597071        2.09428624779827       -0.95318082946668
H           -2.87644029173232        2.07745725625962        0.81450067533302
H           -1.17061996399332       -3.19584890659852        0.83242232437030
H           -1.14560257411436       -3.17511610292205       -0.95688275822323
H           -2.55549792440841       -2.55659984320617       -0.07459039797972
H            1.38130855184625       -2.94313852034425       -0.01389874181052
25
 energy: 0.000000000000 xtb: 6.6.1 (8d0f1dd)
C            3.25468447987786        1.18657802487330        0.09215084388090
N            2.31581150888974        0.10498046884649        0.04224421154356
C            2.61096094860668       -1.22164256568978        0.03468168423842
N            1.44112949617093       -1.93371527289824        0.00314914233497
C            0.40308274782076       -1.05634950608067       -0.00875087716755
C            0.93541270243001        0.22493418575976        0.01687971255971
C            0.09904757302318        1.39285352537918       -0.00629282267338
O            0.49413210612256        2.56009919514229       -0.00335616033727
N           -1.26652746246851        1.04058121492577       -0.03404535981261
C           -2.21151214656397        2.14929550394949       -0.05365950670507
C           -1.82946877125613       -0.22066794325989       -0.04943356536679
O           -3.02458818015758       -0.45438300777653       -0.08362651273663
N           -0.93145484192487       -1.30539139167710       -0.03684372135689
C           -1.51002323967003       -2.63384410397981       -0.05838643648630
H            3.74196707130568        1.22624769090949        1.07032426483599
H            4.01937299891416        1.05708402076304       -0.67572167166921
H            2.71117811283995        2.11452149388944       -0.07362734941659
H            3.59141439595411       -1.64350910586156        0.05053814198049
H           -1.64169952163748        3.07726476204892       -0.06483805386415
H           -2.83843340439778        2.08386957413806       -0.94055567531179
H           -2.84429561140867        2.10836029212006        0.83116545484522
H           -1.15234268537927       -3.20749430181067        0.79683570513105
H           -1.21799865200796       -3.15113075206851       -0.96018638989851
H           -2.61849370763722       -2.57217729924564       -0.05093729959285
H            1.38085875049007       -2.93733610022485       -0.01067386280742
25
 energy: 0.000000000000 xtb: 6.6.1 (8d0f1dd)
C            3.29114468114180        1.22529237234227        0.11138215773147
N            2.34578336102029        0.15800829016875        0.04970720846668
C            2.66457776193407       -1.22329166584214        0.04838673253949
N            1.45419989755885       -1.92266199312263        0.01031374180315
C            0.42615940651129       -1.05491036650775       -0.00913810437765
C            0.93615264633469        0.24396670272728        0.01756091697944
C            0.10454420819898        1.36137154237513       -0.01009078077027
O            0.47056748980920        2.57112796630625       -0.00234085286625
N           -1.30218668312785        0.99404776844626       -0.04372943187749
C           -2.19328090135222        2.14042888965470       -0.06394375290002
C           -1.85109729410936       -0.26571653773736       -0.06096081148286
O           -3.05371400308223       -0.62274537898193       -0.12064433543506
N           -0.93964354712108       -1.31433513386192       -0.03584484783402
C           -1.59628135494872       -2.61257155411369       -0.05487346338122
H            3.81289429000403        1.24822764345170        1.07888886376855
H            4.04323876702627        1.11480044677785       -0.67883359062101
H            2.74472428110331        2.15514952818374       -0.02405014240111
H            3.63845012646237       -1.64042977078307        0.07340413457976
H           -1.57073635576712        3.04208261089607       -0.17520946328932
H           -2.88271487223063        2.05484566235878       -0.90374581952668
H           -2.75715499707545        2.19794415507406        0.87698538798423
H           -1.10782098116294       -3.24648567292959        0.70865514452757
H           -1.41404899163636       -3.09688651443710       -0.99161364215950
H           -2.74880563038086       -2.59785029226054        0.02851688259751
H            1.39726336282584       -2.92038009601309       -0.00174823590809
25
 energy: 0.000000000000 xtb: 6.6.1 (8d0f1dd)
C            3.33069951988634        1.26698243386505        0.13300335409692
N            2.37640784767179        0.21399930066223        0.05900074262013
C            2.72031331126860       -1.22136300940910        0.06523668764507
N            1.47276009428180       -1.90828967361745        0.02100600415882
C            0.44973682402222       -1.05690368580375       -0.00602968162158
C            0.93719698642303        0.26190440572246        0.02022015669015
C            0.11096066528716        1.32829007455578       -0.01170862550666
O            0.44419742492526        2.57659930933281       -0.00039268699662
N           -1.34373640054072        0.94602880336373       -0.05660907841176
C           -2.17149985468917        2.13535084132673       -0.07689148002902
C           -1.87736605143014       -0.31300648626528       -0.08123805668043
O           -3.08346169068042       -0.80466143710805       -0.16839158907118
N           -0.94967553944630       -1.32718228510636       -0.03156379497203
C           -1.68822481789441       -2.59801903273331       -0.04654458509022
H            3.89319884086716        1.26961690750056        1.08615457009854
H            4.06786679018043        1.18253233466685       -0.68283579043525
H            2.78484725213013        2.20268229618392        0.03605527552329
H            3.69008780965932       -1.62996446251127        0.10065749921902
H           -1.49598324633253        3.00459243829715       -0.30854656346461
H           -2.93854248755198        2.02238879651596       -0.85439767940613
H           -2.64673249998476        2.30883032478414        0.92742197199504
H           -1.05186022450238       -3.29985745363037        0.59874306537978
H           -1.65298638395892       -3.03180271292571       -1.03269854281652
H           -2.89228066007677       -2.63769877188580        0.12781601869269
H            1.42629115842141       -2.90202065360893        0.00956670452986
25
 energy: 0.000000000000 xtb: 6.6.1 (8d0f1dd)
C            3.36434935829498        1.29608507016826        0.14737507764741
N            2.39830005310295        0.25346724104101        0.06492295470626
C            2.75812099967857       -1.21672677932468        0.07900470082916
N            1.49311793406175       -1.88872660676337        0.03460708328111
C            0.46420083131874       -1.06323669022745        0.00692491938257
C            0.94104411978699        0.27253613700285        0.02611185863270
C            0.12497917372598        1.31068334037747       -0.00326209528911
O            0.42749289635706        2.56659617571744        0.00444594622363
N           -1.38591014800979        0.91992887419820       -0.06913832418786
C           -2.15089177503260        2.14389862751833       -0.08723865557670
C           -1.90815320737236       -0.33829272751038       -0.11991821706240
O           -3.10475156045747       -0.94507472175555       -0.22757989596943
N           -0.96494722742532       -1.33893345359123       -0.01881559671532
C           -1.75034791284366       -2.60858752365161       -0.02093380328657
H            3.96077743931301        1.28354051023497        1.08432945643224
H            4.08855346624958        1.24261506526790       -0.68873375130679
H            2.82563130686673        2.24311418628868        0.08719209321700
H            3.73114407329841       -1.61269105205386        0.12121433833095
H           -1.45910670149991        2.97818743299703       -0.41086121750740
H           -2.98147900182237        2.00757086943923       -0.79713395283200
H           -2.53652789937787        2.40324435831644        0.94898848456108
H           -1.00447383231386       -3.34775573413264        0.48780205619080
H           -1.87049198367226       -2.96453320235593       -1.04553382150953
H           -3.01690078770153       -2.72135997308976        0.20477246254562
H            1.46848505341036       -2.88652082193936        0.01849179540989
25
 energy: 0.000000000000 xtb: 6.6.1 (8d0f1dd)
C            3.38716538005453        1.30378199867003        0.15492055757875
N            2.40829710077322        0.25761232264511        0.06669379411901
C            2.76177718393041       -1.20630997759883        0.08718866425647
N            1.52158480277472       -1.85779953341536        0.04614792616009
C            0.46735583750156       -1.07586210175859        0.02659361825654
C            0.95794858737167        0.26989545268284        0.03125018465911
C            0.15172858191154        1.32729289648422        0.01307512889425
O            0.41185106088120        2.52872207759320        0.00671368537079
N           -1.43178354347605        0.92448621959202       -0.07356684392313
C           -2.13699008311640        2.16485239324236       -0.09102199608158
C           -1.94422917181588       -0.33471010877652       -0.17025463448315
O           -3.09959448512776       -1.03624272717005       -0.27963243721476
N           -0.97878243467230       -1.34787175300264        0.00146847926657
C           -1.75805179461283       -2.65785492498700        0.02473195448760
H            4.00101069951647        1.28946056705267        1.07393542883876
H            4.10182754488408        1.28805247073833       -0.69020636325778
H            2.86181525340322        2.26884323494957        0.12294481359077
H            3.75313936358402       -1.58685090282998        0.13457949453512
H           -1.47201403143278        2.94657410834697       -0.47663868127375
H           -3.00173523766058        2.00518805723848       -0.72692537984160
H           -2.42846256094074        2.47110739103070        0.92530706750545
H           -0.98436827158150       -3.36515100367368        0.36486332520579
H           -2.05064842800272       -2.88838431229199       -1.01189493769653
H           -3.11448864576880       -2.82428244899293        0.24578280196727
H            1.52786195955778       -2.87552079359695        0.02097824522726
25
 energy: 0.000000000000 xtb: 6.6.1 (8d0f1dd)
C            3.39964362976671        1.31193763098133        0.16452004619532
N            2.42037989667580        0.25145804926122        0.07681915630560
C            2.76069838105446       -1.18326853148877        0.09424977550303
N            1.55695422162549       -1.84241123888192        0.05646662230136
C            0.46633227154136       -1.08347687853135        0.04240032431976
C            0.98162032402996        0.26025576645415        0.04026957552913
C            0.17795577010785        1.35223256246482        0.01674941524501
O            0.39857030672942        2.52722175921114        0.01261511395701
N           -1.45018651547742        0.90871783435577       -0.07433145201294
C           -2.12583835120166        2.16967761120410       -0.10010103272381
C           -1.97076835900420       -0.35391757658692       -0.17587957208041
O           -3.09572983755950       -1.09467576042968       -0.34053468471851
N           -0.98375540783151       -1.35861123118037        0.02152290828477
C           -1.78317628007864       -2.68763790887281        0.03758256305456
H            4.02566997598267        1.28295085628243        1.07068437126456
H            4.10031103651419        1.31499319181599       -0.68905818785814
H            2.88446374220937        2.28351516094416        0.15559366639824
H            3.76537361545069       -1.54961305490768        0.14808536750085
H           -1.47196037331167        2.91691540164213       -0.58664555225837
H           -3.04749610285394        2.00280560929520       -0.66053948340095
H           -2.31707272406344        2.54720963702808        0.92985741285078
H           -0.92953850892388       -3.40019422175583        0.20460926863626
H           -2.19141808952099       -2.79637713040541       -0.96455200977728
H           -3.24182865876161       -2.92725453455126        0.31790321823287
H            1.58301070483654       -2.86342440117654        0.02874706539859
25
 energy: 0.000000000000 xtb: 6.6.1 (8d0f1dd)
C            3.39541904870762        1.30832414678896        0.16444478953443
N            2.42670870697805        0.20714157095505        0.09146551594131
C            2.72681362782411       -1.12329321664005        0.09572577635964
N            1.60372505338169       -1.83373808006835        0.06431988107433
C            0.45767723276796       -1.08104047380006        0.05222261687765
C            1.02010362737992        0.24028570342201        0.05127647343822
C            0.20670241944941        1.39233793914159        0.01067724174813
O            0.39229969194222        2.54596499660705        0.01877750365165
N           -1.42653280966118        0.88630704701966       -0.07509736629270
C           -2.11718964671002        2.16066403055540       -0.10714687856419
C           -1.97475295616526       -0.39535776676883       -0.16100565274289
O           -3.05836825691335       -1.09856995718206       -0.32991518534606
N           -0.95376286183390       -1.37310910952143        0.03353018451325
C           -1.76716129336457       -2.71729453741930        0.01604164727468
H            4.02314256217573        1.26261977079284        1.06088970438284
H            4.08135985508212        1.31463445117774       -0.68977096221741
H            2.88997950552190        2.27752573988188        0.17023928001682
H            3.74696618941661       -1.49057606708342        0.15564546754575
H           -1.51494181006328        2.89088881781916       -0.65171202007999
H           -3.06028093804108        2.02144216805783       -0.60580425103191
H           -2.23870604763607        2.56354889113559        0.89424031454958
H           -0.95024534454499       -3.38970738933435        0.05322952081725
H           -2.26449578525514       -2.72665621265001       -0.87344817265057
H           -3.36399087723065       -3.00409569237193        0.34751706617963
H            1.63174577472820       -2.84921816834295        0.04069140116785
25
 energy: 0.000000000000 xtb: 6.6.1 (8d0f1dd)
C            3.40956398766336        1.32402151727809        0.17165780152916
N            2.44358752994642        0.21899926362494        0.10581986910292
C            2.74101043494256       -1.08456045298906        0.10843960133078
N            1.62540810011653       -1.83149613881435        0.08044843729092
C            0.46461959343805       -1.06940388472973        0.06680362612122
C            1.02924079711686        0.25111007334304        0.06329027712390
C            0.22144133123883        1.38712887141402        0.00854476215885
O            0.40048249362779        2.58381775926370        0.02772768228967
N           -1.41432781838732        0.85994529499646       -0.09341054700254
C           -2.09870918002715        2.15711600363227       -0.12638884249965
C           -1.97737480262408       -0.43636678055225       -0.17029434542686
O           -3.06031616005127       -1.16784251656266       -0.35804943375737
N           -0.93441113794762       -1.38143096713269        0.05752238294232
C           -1.78333894916571       -2.71342934191585        0.02243384423414
H            4.05090125098924        1.25430358450572        1.06155275462881
H            4.08208324926119        1.32981717275503       -0.69413783520442
H            2.90543232518047        2.28711657945003        0.19868003023774
H            3.75735080015918       -1.45643394133460        0.17275117550948
H           -1.52385252389689        2.88598554290997       -0.73699085293987
H           -3.08816260479420        2.02096076180041       -0.56378886200588
H           -2.15169738733056        2.60908480259483        0.88917041079690
H           -0.87219785973830       -3.45858096352406       -0.08213805546472
H           -2.46168635611513       -2.62075271359029       -0.87669933954067
H           -3.51273318731122       -3.12543163698093        0.43558594279261
H            1.65990074164498       -2.83464928727010        0.05850341189987
25
 energy: 0.000000000000 xtb: 6.6.1 (8d0f1dd)
C            3.40852823766992        1.32811801261178        0.17598441911248
N            2.43906157546378        0.22945126410446        0.11464113441417
C            2.74204233255358       -1.05776065170863        0.11608365284243
N            1.62077531179422       -1.83318824186768        0.08001329033258
C            0.45786101942844       -1.05379416309676        0.05419547191008
C            1.01300788275281        0.26909689374914        0.06478910256726
C            0.20850093158332        1.37411522232788        0.00126814875327
O            0.42817241227369        2.58803637209803        0.03251069863686
N           -1.38734142066933        0.86765350328495       -0.10770992885463
C           -2.08847189815945        2.15983626072941       -0.13067703658079
C           -1.97036924696738       -0.43805864056985       -0.16769997830070
O           -3.07175556960135       -1.12802708095749       -0.31167257424075
N           -0.92012013646860       -1.38208967533124        0.03241620321154
C           -1.76036607671103       -2.70590527398511       -0.00702811841203
H            4.05774517391981        1.24636717582564        1.06353245815838
H            4.07593664309789        1.32823704231091       -0.69742442986140
H            2.90095050659470        2.28778471428910        0.21403328807083
H            3.75110015999063       -1.44397571144893        0.17735604658873
H           -1.51540288686930        2.89712527004755       -0.77974760589523
H           -3.10582194419920        1.99874295450048       -0.54006073507678
H           -2.10960569283772        2.63279194060555        0.91321498856990
H           -0.86766290921011       -3.45721042040685       -0.10119388733047
H           -2.43871189654238       -2.65130867262480       -0.82835407203527
H           -3.61350975539948       -3.23594616543828        0.39959546282770
H            1.65767191444851       -2.83106332687729        0.05896789673916
25
 energy: 0.000000000000 xtb: 6.6.1 (8d0f1dd)
C            3.40473238850061        1.32391609439850        0.17165665186576
N            2.43173394836508        0.23460921214436        0.12290871278017
C            2.74550137387169       -1.01181962516849        0.12501416673529
N            1.62159130145106       -1.84077069219144        0.07934830136556
C            0.45856815833244       -1.01968506971524        0.03948818923528
C            0.98451736212201        0.30723720415905        0.07041760118485
C            0.15539559640806        1.35288514407667        0.00402113530297
O            0.47962649579813        2.57510384998069        0.03598054579218
N           -1.32733465472180        0.90108122169827       -0.12236356422270
C           -2.08310487899894        2.16409638065558       -0.13618314376015
C           -1.93959326125841       -0.44728326731341       -0.15205499325731
O           -3.07545782195279       -1.08346720269650       -0.24501657390686
N           -0.84967041558492       -1.37772165825559       -0.00751580172201
C           -1.63946340584368       -2.66547005732270       -0.06128536535221
H            4.05001332238988        1.23708546066163        1.05838285278020
H            4.07069796961524        1.31032402416126       -0.70362391635792
H            2.89028055822601        2.27514142289934        0.21112245870379
H            3.73813240719545       -1.43718358663595        0.17322694184099
H           -1.53892697862850        2.91510467032419       -0.75232362440950
H           -3.06547869868104        1.99242528406048       -0.53156757157887
H           -2.11426965004135        2.60473257502716        0.88228736465950
H           -0.86458431603236       -3.43229833737564       -0.12291223801165
H           -2.41602126416370       -2.67281128859459       -0.71699926528125
H           -3.86397478730689       -3.38343429249402        0.34486823947171
H            1.65930391887472       -2.83276886431164        0.06015679228949
25
 energy: 0.000000000000 xtb: 6.6.1 (8d0f1dd)
C            3.40299120275911        1.31583709613135        0.17106931641903
N            2.42860516712756        0.23739583672346        0.12401685795332
C            2.75614576790481       -0.99864406604864        0.12804365294371
N            1.62258953162416       -1.84660823380356        0.07491778676595
C            0.46960503874329       -0.99194905192551        0.03072058184430
C            0.96546784327323        0.34021868494002        0.07163875000480
C            0.08289373402186        1.34329918934013        0.00720821635085
O            0.50995217241873        2.55543536167214        0.03436384710322
N           -1.27748189339659        0.94905263458362       -0.13009731632551
C           -2.08310642236917        2.17682854806835       -0.13516330591310
C           -1.91375678664118       -0.45498667074593       -0.14645499127034
O           -3.08449195562468       -1.10319273172924       -0.21111811211932
N           -0.77672162057336       -1.37382836930231       -0.04760385555706
C           -1.43946983132249       -2.61317297009311       -0.10860180823580
H            4.03536399937926        1.23428896846537        1.05943946246781
H            4.07222080095404        1.29616272771933       -0.69997514808647
H            2.88196414972622        2.26472134177269        0.20209215261660
H            3.73397603533720       -1.45288054595186        0.16606241265497
H           -1.55416129657358        2.93051724423889       -0.73156366025679
H           -3.04894899575974        1.98134542622442       -0.51002816075599
H           -2.11335085529190        2.59162377799436        0.86751439931627
H           -0.85463282655392       -3.39854673225619       -0.13451279240691
H           -2.40527294227240       -2.68461601556990       -0.56669637698085
H           -4.15647613501432       -3.46926494243766        0.25788032071400
H            1.65831078605990       -2.84000790583821        0.05388166690062
25
 energy: 0.000000000000 xtb: 6.6.1 (8d0f1dd)
C            3.40654838551951        1.30870728295235        0.16764707084252
N            2.42828445112909        0.24429524682158        0.11646424036481
C            2.76531689353504       -1.03217676876533        0.12558006350320
N            1.61913244882514       -1.83488623992132        0.07267862544057
C            0.48635782881514       -0.98684585756793        0.03515948232825
C            0.97165796957129        0.34975143249419        0.06871757854531
C            0.04022985601748        1.35838223291582        0.01327570323301
O            0.52102317840698        2.53320201988517        0.02655964372916
N           -1.25873864361368        0.99985914883414       -0.12347736839065
C           -2.07894571959643        2.19753841912578       -0.13202954295630
C           -1.91071569571153       -0.43991467373773       -0.14261082202743
O           -3.10344464477023       -1.18382779215539       -0.19960255399808
N           -0.76978353116041       -1.37111239957768       -0.06173064008317
C           -1.31043905142821       -2.55630295045874       -0.13168417651287
H            4.03166423883178        1.24153499949290        1.05654402412780
H            4.07722272568328        1.29040315606526       -0.70085067482807
H            2.88053499715264        2.26549895002235        0.18513315244342
H            3.74148560458888       -1.47316912357645        0.16169884903869
H           -1.56280156460319        2.94654366470217       -0.68578581184444
H           -3.01289581058772        1.97988878164218       -0.51889512156337
H           -2.13930615964314        2.57093163279645        0.84184899091799
H           -0.79164271746214       -3.44766480848199       -0.16862330593554
H           -2.34990256630010       -2.66298988614514       -0.41094355514055
H           -4.42193782348400       -3.46560780850202        0.18059851260213
H            1.65331001822055       -2.84301005668862        0.05136153231093
25
 energy: 0.000000000000 xtb: 6.6.1 (8d0f1dd)
C            3.41440099568433        1.30577022680827        0.17136635697182
N            2.43701183503357        0.24887229019762        0.11108819321740
C            2.76191931511643       -1.09332589534326        0.11788721708619
N            1.63053180410410       -1.79459768871305        0.06406631589393
C            0.52642046532875       -0.99987072204315        0.03397666081386
C            1.03218050180465        0.32583269142713        0.06048553051890
C            0.08228724257153        1.41781125356215        0.01707946973607
O            0.51942533111683        2.53387222108810        0.03027574897700
N           -1.26931512295736        1.02517317654868       -0.10863577836483
C           -2.06834471582318        2.21251427040752       -0.12127569737017
C           -1.93080854197076       -0.41942066195192       -0.14472905284195
O           -3.12740946771632       -1.37043257407605       -0.22786975673034
N           -0.81364279780529       -1.36804838940079       -0.07791594473721
C           -1.24493128207858       -2.56546281077104       -0.14402891487065
H            4.02691685874156        1.25040270923944        1.06549570872774
H            4.08452770500478        1.28770291594028       -0.69214503530613
H            2.88217817599005        2.27031843875884        0.16806706384096
H            3.75757266920261       -1.47117840763486        0.15878092196756
H           -1.56157671077609        2.96787558966224       -0.68260084695439
H           -3.01839843476735        1.96718513053998       -0.53090636062193
H           -2.14390195184554        2.58483840956225        0.87407295742494
H           -0.73261629344035       -3.42853935072335       -0.16334810467554
H           -2.33086636798126       -2.63971305462267       -0.29171268987082
H           -4.65606237368382       -3.43064398949290        0.09831656479887
H            1.65471582908277       -2.82790717679746        0.04124336851602
25
 energy: 0.000000000000 xtb: 6.6.1 (8d0f1dd)
C            3.41847821629789        1.30816265143609        0.16852175079641
N            2.44675974449823        0.24569908348389        0.11089599308885
C            2.75778568784645       -1.10640049091346        0.11199200906080
N            1.63606056776996       -1.78627953743881        0.05244707914441
C            0.55695362945873       -0.98289314825138        0.01650128525475
C            1.07378371506054        0.31250132797314        0.04980739638520
C            0.10886738903761        1.43745720349370        0.00941410804039
O            0.54248772064961        2.57561103907847        0.03491911007077
N           -1.24239330582220        1.02331109193951       -0.09926164354020
C           -2.05660178662767        2.22093695847464       -0.10667277181936
C           -1.94417410157118       -0.42714527779298       -0.13886889499726
O           -3.19401331384823       -1.54223766866076       -0.25009319669436
N           -0.81152246541074       -1.33306265182263       -0.08892510474855
C           -1.19653640420975       -2.55501700122071       -0.14592046381311
H            4.01677405637711        1.25794817048537        1.07707837747493
H            4.09921349388419        1.27404473545503       -0.68388090690010
H            2.88350846673692        2.26363301570249        0.14502023982798
H            3.76417175760158       -1.46862393046959        0.15528503715437
H           -1.54795176876224        3.02003796665247       -0.64608774401405
H           -2.98389687347232        1.97379265548030       -0.57344479939191
H           -2.20373287223388        2.58035710744199        0.90332168415115
H           -0.60890305114613       -3.44805977183952       -0.13652783348906
H           -2.32210352885892       -2.62608150610301       -0.17260231287453
H           -4.91440020064163       -3.41210121852576        0.00117555586745
H            1.63359989532213       -2.81656220188651        0.03293994211235
25