      -----------------------------------------------------------      
     |                   =====================                   |     
     |                           x T B                           |     
     |                   =====================                   |     
     |                         S. Grimme                         |     
     |          Mulliken Center for Theoretical Chemistry        |     
     |                    University of Bonn                     |     
      -----------------------------------------------------------      

   * xtb version 6.6.1 (8d0f1dd) compiled by 'conda@1efc2f54142f' on 2023-08-01

   xtb is free software: you can redistribute it and/or modify it under
   the terms of the GNU Lesser General Public License as published by
   the Free Software Foundation, either version 3 of the License, or
   (at your option) any later version.
   
   xtb is distributed in the hope that it will be useful,
   but WITHOUT ANY WARRANTY; without even the implied warranty of
   MERCHANTABILITY or FITNESS FOR A PARTICULAR PURPOSE.  See the
   GNU Lesser General Public License for more details.
   
   Cite this work as:
   * C. Bannwarth, E. Caldeweyher, S. Ehlert, A. Hansen, P. Pracht,
     J. Seibert, S. Spicher, S. Grimme, WIREs Comput. Mol. Sci., 2020, 11,
     e01493. DOI: 10.1002/wcms.1493
   
   for GFN2-xTB:
   * C. Bannwarth, S. Ehlert and S. Grimme., J. Chem. Theory Comput., 2019,
     15, 1652-1671. DOI: 10.1021/acs.jctc.8b01176
   for GFN1-xTB:
   * S. Grimme, C. Bannwarth, P. Shushkov, J. Chem. Theory Comput., 2017,
     13, 1989-2009. DOI: 10.1021/acs.jctc.7b00118
   for GFN0-xTB:
   * P. Pracht, E. Caldeweyher, S. Ehlert, S. Grimme, ChemRxiv, 2019, preprint.
     DOI: 10.26434/chemrxiv.8326202.v1
   for GFN-FF:
   * S. Spicher and S. Grimme, Angew. Chem. Int. Ed., 2020, 59, 15665-15673.
     DOI: 10.1002/anie.202004239
   
   for ALPB and GBSA implicit solvation:
   * S. Ehlert, M. Stahn, S. Spicher, S. Grimme, J. Chem. Theory Comput.,
     2021, 17, 4250-4261. DOI: 10.1021/acs.jctc.1c00471
   
   for DFT-D4:
   * E. Caldeweyher, C. Bannwarth and S. Grimme, J. Chem. Phys., 2017,
     147, 034112. DOI: 10.1063/1.4993215
   * E. Caldeweyher, S. Ehlert, A. Hansen, H. Neugebauer, S. Spicher,
     C. Bannwarth and S. Grimme, J. Chem. Phys., 2019, 150, 154122.
     DOI: 10.1063/1.5090222
   * E. Caldeweyher, J.-M. Mewes, S. Ehlert and S. Grimme, Phys. Chem. Chem. Phys.
     2020, 22, 8499-8512. DOI: 10.1039/D0CP00502A
   
   for sTDA-xTB:
   * S. Grimme and C. Bannwarth, J. Chem. Phys., 2016, 145, 054103.
     DOI: 10.1063/1.4959605
   
   in the mass-spec context:
   * V. Asgeirsson, C. Bauer and S. Grimme, Chem. Sci., 2017, 8, 4879.
     DOI: 10.1039/c7sc00601b
   * J. Koopman and S. Grimme, ACS Omega 2019, 4, 12, 15120-15133.
     DOI: 10.1021/acsomega.9b02011
   
   for metadynamics refer to:
   * S. Grimme, J. Chem. Theory Comput., 2019, 155, 2847-2862
     DOI: 10.1021/acs.jctc.9b00143
   
   for SPH calculations refer to:
   * S. Spicher and S. Grimme, J. Chem. Theory Comput., 2021, 17, 1701-1714
     DOI: 10.1021/acs.jctc.0c01306
   
   with help from (in alphabetical order)
   P. Atkinson, C. Bannwarth, F. Bohle, G. Brandenburg, E. Caldeweyher
   M. Checinski, S. Dohm, S. Ehlert, S. Ehrlich, I. Gerasimov, C. Hölzer
   A. Katbashev, J. Koopman, C. Lavigne, S. Lehtola, F. März, M. Müller,
   F. Musil, H. Neugebauer, J. Pisarek, C. Plett, P. Pracht, F. Pultar,
   J. Seibert, P. Shushkov, S. Spicher, M. Stahn, M. Steiner, T. Strunk,
   J. Stückrath, T. Rose, and J. Unsleber
   
 * started run on 2024/06/05 at 19:58:15.848     

           -------------------------------------------------
          |                Calculation Setup                |
           -------------------------------------------------

          program call               : xtb xtbopt.xyz --opt crude --input .xc2 --gfn2
          hostname                   : n-62-21-71
          coordinate file            : xtbopt.xyz
          omp threads                :                     1

   ID    Z sym.   atoms
    1    6 C      1, 3, 5-7, 10, 11, 14
    2    7 N      2, 4, 9, 13
    3    8 O      8, 12
    4    1 H      15-25
########################################################################
[WARNING] Please study the warnings concerning your input carefully
-1- readin_getIntValue: could not parse ''
########################################################################

           -------------------------------------------------
          |                 G F N 2 - x T B                 |
           -------------------------------------------------

        Reference                      10.1021/acs.jctc.8b01176
      * Hamiltonian:
        H0-scaling (s, p, d)           1.850000    2.230000    2.230000
        zeta-weighting                 0.500000
      * Dispersion:
        s8                             2.700000
        a1                             0.520000
        a2                             5.000000
        s9                             5.000000
      * Repulsion:
        kExp                           1.500000    1.000000
        rExp                           1.000000
      * Coulomb:
        alpha                          2.000000
        third order                    shell-resolved
        anisotropic                    true
        a3                             3.000000
        a5                             4.000000
        cn-shift                       1.200000
        cn-exp                         4.000000
        max-rad                        5.000000

q/qsh data taken from xtbrestart
CAMM data taken from xtbrestart

          ...................................................
          :                      SETUP                      :
          :.................................................:
          :  # basis functions                  67          :
          :  # atomic orbitals                  67          :
          :  # shells                           39          :
          :  # electrons                        74          :
          :  max. iterations                   250          :
          :  Hamiltonian                  GFN2-xTB          :
          :  restarted?                       true          :
          :  GBSA solvation                  false          :
          :  PC potential                    false          :
          :  electronic temp.         2500.0000000     K    :
          :  accuracy                    1.0000000          :
          :  -> integral cutoff          0.2500000E+02      :
          :  -> integral neglect         0.1000000E-07      :
          :  -> SCF convergence          0.1000000E-05 Eh   :
          :  -> wf. convergence          0.1000000E-03 e    :
          :  Broyden damping             0.4000000          :
          ...................................................

 iter      E             dE          RMSdq      gap      omega  full diag
   1    -42.6970865 -0.426971E+02  0.114E-05    1.73       0.0  T
   2    -42.6970865 -0.731859E-12  0.702E-06    1.73    2850.0  T
   3    -42.6970865 -0.504485E-12  0.423E-06    1.73    4724.5  T

   *** convergence criteria satisfied after 3 iterations ***

         #    Occupation            Energy/Eh            Energy/eV
      -------------------------------------------------------------
         1        2.0000           -0.9115941             -24.8057
       ...           ...                  ...                  ...
        31        2.0000           -0.6221268             -16.9289
        32        2.0000           -0.6067523             -16.5106
        33        2.0000           -0.5851130             -15.9217
        34        2.0000           -0.5627159             -15.3123
        35        1.9999           -0.5577478             -15.1771
        36        1.9996           -0.5422374             -14.7550
        37        1.9646           -0.5060481             -13.7703 (HOMO)
        38        0.0355           -0.4424751             -12.0404 (LUMO)
        39        0.0004           -0.4071476             -11.0790
        40        0.0000           -0.3729401             -10.1482
        41                         -0.2847139              -7.7475
        42                         -0.2028111              -5.5188
       ...                                ...                  ...
        67                          5.2547552             142.9892
      -------------------------------------------------------------
                  HL-Gap            0.0635730 Eh            1.7299 eV
             Fermi-level           -0.4742578 Eh          -12.9052 eV

 SCC (total)                   0 d,  0 h,  0 min,  0.026 sec
 SCC setup                      ...        0 min,  0.000 sec (  1.178%)
 Dispersion                     ...        0 min,  0.000 sec (  1.425%)
 classical contributions        ...        0 min,  0.000 sec (  0.378%)
 integral evaluation            ...        0 min,  0.007 sec ( 26.012%)
 iterations                     ...        0 min,  0.005 sec ( 20.976%)
 molecular gradient             ...        0 min,  0.013 sec ( 49.392%)
 printout                       ...        0 min,  0.000 sec (  0.562%)

         :::::::::::::::::::::::::::::::::::::::::::::::::::::
         ::                     SUMMARY                     ::
         :::::::::::::::::::::::::::::::::::::::::::::::::::::
         :: total energy             -40.298724550385 Eh    ::
         :: gradient norm             11.296647575949 Eh/a0 ::
         :: HOMO-LUMO gap              1.729908283514 eV    ::
         ::.................................................::
         :: SCC energy               -42.697086468674 Eh    ::
         :: -> isotropic ES            0.128132593348 Eh    ::
         :: -> anisotropic ES         -0.005084511215 Eh    ::
         :: -> anisotropic XC          0.011926930559 Eh    ::
         :: -> dispersion             -0.022191832783 Eh    ::
         :: repulsion energy           2.398259554311 Eh    ::
         :: add. restraining           0.000000000000 Eh    ::
         :: total charge               1.000000000003 e     ::
         :::::::::::::::::::::::::::::::::::::::::::::::::::::

      ----------------------------------------------------------- 
     |                   =====================                   |
     |                        A N C O P T                        |
     |                   =====================                   |
     |               Approximate Normal Coordinate               |
     |                Rational Function Optimizer                |
      ----------------------------------------------------------- 

          ...................................................
          :                      SETUP                      :
          :.................................................:
          :   optimization level             crude          :
          :   max. optcycles                   200          :
          :   ANC micro-cycles                  20          :
          :   degrees of freedom                69          :
          :.................................................:
          :   RF solver                   davidson          :
          :   write xtbopt.log                true          :
          :   linear?                        false          :
          :   energy convergence         0.5000000E-03 Eh   :
          :   grad. convergence          0.1000000E-01 Eh/α :
          :   maxmium RF displ.          1.0000000          :
          :   Hlow (freq-cutoff)         0.1000000E-01      :
          :   Hmax (freq-cutoff)         5.0000000          :
          :   S6 in model hess.         20.0000000          :
          ...................................................

generating ANC from model Hessian ...
Using Lindh-Hessian (1995)
 Shifting diagonal of input Hessian by    7.6174254095919373E-003
 Lowest  eigenvalues of input Hessian
    0.000000    0.000000    0.000000    0.000000    0.000000    0.000000
    0.010000    0.011396    0.012390    0.014724    0.016592    0.019090
    0.019532    0.024120    0.026089    0.028363    0.037607    0.043675
 Highest eigenvalues
    2.182011    2.240899    2.295276    2.511790    3.778163    4.539068


........................................................................
.............................. CYCLE    1 ..............................
........................................................................

 iter      E             dE          RMSdq      gap      omega  full diag
   1    -42.6970865 -0.426971E+02  0.172E-06    1.73       0.0  T
   2    -42.6970865 -0.142109E-12  0.125E-06    1.73   16042.4  T
   3    -42.6970865  0.781597E-13  0.625E-07    1.73   32002.9  T
     SCC iter.                  ...        0 min,  0.005 sec
     gradient                   ...        0 min,  0.013 sec
 * total energy  :   -40.2987246 Eh     change       -0.7105427E-13 Eh
   gradient norm :    11.2966476 Eh/α   predicted     0.0000000E+00 (-100.00%)
   displ. norm   :     0.8462681 α      lambda       -0.9544303E+01
   maximum displ.:     0.7965411 α      in ANC's #68, #69, #57, ...

........................................................................
.............................. CYCLE    2 ..............................
........................................................................

 iter      E             dE          RMSdq      gap      omega  full diag
   1    -42.6472446 -0.426472E+02  0.118E+00    1.70       0.0  T
   2    -42.6540541 -0.680947E-02  0.610E-01    1.69       1.0  T
   3    -42.6542474 -0.193295E-03  0.274E-01    1.81       1.0  T
   4    -42.6545803 -0.332873E-03  0.145E-01    1.68       1.0  T
   5    -42.6548884 -0.308084E-03  0.570E-02    1.75       1.0  T
   6    -42.6549219 -0.335581E-04  0.278E-02    1.73       1.0  T
   7    -42.6549246 -0.268924E-05  0.125E-02    1.74       1.6  T
   8    -42.6549254 -0.747531E-06  0.325E-03    1.74       6.2  T
   9    -42.6549255 -0.153662E-06  0.122E-03    1.74      16.4  T
  10    -42.6549255 -0.706957E-08  0.430E-04    1.74      46.5  T
  11    -42.6549255 -0.143018E-08  0.173E-04    1.74     115.6  T
     SCC iter.                  ...        0 min,  0.015 sec
     gradient                   ...        0 min,  0.013 sec
 * total energy  :   -42.1317365 Eh     change       -0.1833012E+01 Eh
   gradient norm :     0.2247087 Eh/α   predicted    -0.8198560E+01 ( 347.27%)
   displ. norm   :     0.3859199 α      lambda       -0.3989514E-01
   maximum displ.:     0.1647463 α      in ANC's #28, #3, #2, ...

........................................................................
.............................. CYCLE    3 ..............................
........................................................................

 iter      E             dE          RMSdq      gap      omega  full diag
   1    -42.6506397 -0.426506E+02  0.355E-01    1.76       0.0  T
   2    -42.6514023 -0.762571E-03  0.219E-01    1.76       1.0  T
   3    -42.6514490 -0.467131E-04  0.106E-01    1.74       1.0  T
   4    -42.6514574 -0.845676E-05  0.328E-02    1.76       1.0  T
   5    -42.6514710 -0.135837E-04  0.175E-02    1.74       1.1  T
   6    -42.6514773 -0.627506E-05  0.693E-03    1.74       2.9  T
   7    -42.6514774 -0.151115E-06  0.367E-03    1.74       5.4  T
   8    -42.6514775 -0.535065E-07  0.690E-04    1.74      29.0  T
   9    -42.6514775 -0.170518E-08  0.365E-04    1.74      54.8  T
     SCC iter.                  ...        0 min,  0.012 sec
     gradient                   ...        0 min,  0.013 sec
 * total energy  :   -42.1510218 Eh     change       -0.1928531E-01 Eh
   gradient norm :     0.0733011 Eh/α   predicted    -0.2291956E-01 (  18.84%)
   displ. norm   :     0.1623232 α      lambda       -0.2199322E-02
   maximum displ.:     0.0923876 α      in ANC's #4, #10, #23, ...

........................................................................
.............................. CYCLE    4 ..............................
........................................................................

 iter      E             dE          RMSdq      gap      omega  full diag
   1    -42.6528409 -0.426528E+02  0.105E-01    1.74       0.0  T
   2    -42.6528522 -0.113054E-04  0.611E-02    1.75       1.0  T
   3    -42.6528524 -0.206488E-06  0.117E-02    1.74       1.7  T
   4    -42.6528528 -0.454133E-06  0.529E-03    1.75       3.8  T
   5    -42.6528534 -0.554262E-06  0.201E-03    1.74       9.9  T
   6    -42.6528534 -0.569885E-07  0.947E-04    1.74      21.1  T
   7    -42.6528535 -0.415749E-08  0.369E-04    1.74      54.3  T
     SCC iter.                  ...        0 min,  0.010 sec
     gradient                   ...        0 min,  0.013 sec
 * total energy  :   -42.1525877 Eh     change       -0.1565934E-02 Eh
   gradient norm :     0.0620453 Eh/α   predicted    -0.1128644E-02 ( -27.93%)
   displ. norm   :     0.1698947 α      lambda       -0.1237724E-02
   maximum displ.:     0.1050600 α      in ANC's #4, #10, #2, ...

........................................................................
.............................. CYCLE    5 ..............................
........................................................................

 iter      E             dE          RMSdq      gap      omega  full diag
   1    -42.6541147 -0.426541E+02  0.969E-02    1.74       0.0  T
   2    -42.6541247 -0.100573E-04  0.567E-02    1.75       1.0  T
   3    -42.6541251 -0.335973E-06  0.105E-02    1.74       1.9  T
   4    -42.6541254 -0.309675E-06  0.302E-03    1.74       6.6  T
   5    -42.6541255 -0.133631E-06  0.144E-03    1.74      13.9  T
   6    -42.6541256 -0.426928E-07  0.547E-04    1.74      36.6  T
   7    -42.6541256 -0.107079E-08  0.223E-04    1.74      89.9  T
     SCC iter.                  ...        0 min,  0.010 sec
     gradient                   ...        0 min,  0.013 sec
 * total energy  :   -42.1534479 Eh     change       -0.8601973E-03 Eh
   gradient norm :     0.0534658 Eh/α   predicted    -0.6367263E-03 ( -25.98%)
   displ. norm   :     0.1756764 α      lambda       -0.9048861E-03
   maximum displ.:     0.0899602 α      in ANC's #2, #4, #1, ...

........................................................................
.............................. CYCLE    6 ..............................
........................................................................

 iter      E             dE          RMSdq      gap      omega  full diag
   1    -42.6557873 -0.426558E+02  0.868E-02    1.74       0.0  T
   2    -42.6557947 -0.736847E-05  0.512E-02    1.74       1.0  T
   3    -42.6557946  0.930693E-07  0.103E-02    1.74       1.9  T
   4    -42.6557952 -0.652741E-06  0.263E-03    1.74       7.6  T
   5    -42.6557953 -0.819918E-07  0.136E-03    1.74      14.7  T
   6    -42.6557953 -0.330349E-07  0.613E-04    1.74      32.6  T
   7    -42.6557953 -0.171282E-08  0.339E-04    1.74      59.0  T
     SCC iter.                  ...        0 min,  0.010 sec
     gradient                   ...        0 min,  0.013 sec
 * total energy  :   -42.1541676 Eh     change       -0.7196780E-03 Eh
   gradient norm :     0.0463731 Eh/α   predicted    -0.4664241E-03 ( -35.19%)
   displ. norm   :     0.2750206 α      lambda       -0.1510432E-02
   maximum displ.:     0.1502861 α      in ANC's #2, #1, #4, ...

........................................................................
.............................. CYCLE    7 ..............................
........................................................................

 iter      E             dE          RMSdq      gap      omega  full diag
   1    -42.6591407 -0.426591E+02  0.124E-01    1.75       0.0  T
   2    -42.6591561 -0.153217E-04  0.732E-02    1.74       1.0  T
   3    -42.6591547  0.136899E-05  0.169E-02    1.75       1.2  T
   4    -42.6591574 -0.268652E-05  0.545E-03    1.74       3.7  T
   5    -42.6591579 -0.518118E-06  0.269E-03    1.74       7.4  T
   6    -42.6591580 -0.887633E-07  0.125E-03    1.74      16.0  T
   7    -42.6591580 -0.676329E-08  0.593E-04    1.74      33.7  T
   8    -42.6591580 -0.250075E-08  0.163E-04    1.74     122.9  T
     SCC iter.                  ...        0 min,  0.011 sec
     gradient                   ...        0 min,  0.013 sec
 * total energy  :   -42.1552705 Eh     change       -0.1102924E-02 Eh
   gradient norm :     0.0329102 Eh/α   predicted    -0.8123392E-03 ( -26.35%)
   displ. norm   :     0.1951576 α      lambda       -0.1170736E-02
   maximum displ.:     0.0973765 α      in ANC's #2, #3, #1, ...

........................................................................
.............................. CYCLE    8 ..............................
........................................................................

 iter      E             dE          RMSdq      gap      omega  full diag
   1    -42.6632431 -0.426632E+02  0.754E-02    1.74       0.0  T
   2    -42.6632507 -0.763649E-05  0.452E-02    1.74       1.0  T
   3    -42.6632488  0.190511E-05  0.147E-02    1.75       1.4  T
   4    -42.6632514 -0.264534E-05  0.545E-03    1.74       3.7  T
   5    -42.6632521 -0.634154E-06  0.209E-03    1.74       9.6  T
   6    -42.6632521 -0.727101E-08  0.794E-04    1.74      25.2  T
   7    -42.6632521 -0.610475E-08  0.272E-04    1.74      73.6  T
     SCC iter.                  ...        0 min,  0.010 sec
     gradient                   ...        0 min,  0.013 sec
 * total energy  :   -42.1560580 Eh     change       -0.7874762E-03 Eh
   gradient norm :     0.0180874 Eh/α   predicted    -0.6077018E-03 ( -22.83%)
   displ. norm   :     0.0850645 α      lambda       -0.4667782E-03
   maximum displ.:     0.0422593 α      in ANC's #3, #1, #8, ...

........................................................................
.............................. CYCLE    9 ..............................
........................................................................

 iter      E             dE          RMSdq      gap      omega  full diag
   1    -42.6650721 -0.426651E+02  0.308E-02    1.74       0.0  T
   2    -42.6650752 -0.317614E-05  0.188E-02    1.74       1.1  T
   3    -42.6650749  0.293180E-06  0.933E-03    1.74       2.1  T
   4    -42.6650754 -0.507686E-06  0.399E-03    1.74       5.0  T
   5    -42.6650758 -0.304908E-06  0.116E-03    1.74      17.2  T
   6    -42.6650758 -0.125515E-07  0.475E-04    1.74      42.1  T
   7    -42.6650758 -0.105894E-08  0.225E-04    1.74      88.9  T
     SCC iter.                  ...        0 min,  0.010 sec
     gradient                   ...        0 min,  0.013 sec
 * total energy  :   -42.1563618 Eh     change       -0.3038381E-03 Eh
   gradient norm :     0.0088176 Eh/α   predicted    -0.2350897E-03 ( -22.63%)
   displ. norm   :     0.0404427 α      lambda       -0.1433623E-03
   maximum displ.:     0.0204916 α      in ANC's #6, #4, #2, ...

   *** GEOMETRY OPTIMIZATION CONVERGED AFTER 9 ITERATIONS ***

------------------------------------------------------------------------
 total energy gain   :        -1.8576373 Eh    -1165.6850 kcal/mol
 total RMSD          :         0.2608438 a0        0.1380 Å
 total power (kW/mol):      -541.9140022 (step)********** (real)
------------------------------------------------------------------------

 ANCopt (total)                0 d,  0 h,  0 min,  0.267 sec
 optimizer setup                ...        0 min,  0.000 sec (  0.141%)
 model hessian                  ...        0 min,  0.007 sec (  2.511%)
 ANC generation                 ...        0 min,  0.001 sec (  0.319%)
 coordinate transformation      ...        0 min,  0.000 sec (  0.024%)
 single point calculation       ...        0 min,  0.255 sec ( 95.295%)
 optimization log               ...        0 min,  0.002 sec (  0.749%)
 hessian update                 ...        0 min,  0.000 sec (  0.038%)
 rational function              ...        0 min,  0.002 sec (  0.733%)

================
 final structure:
================
25
 xtb: 6.6.1 (8d0f1dd)
C            3.23761655014868        1.06371911966166        0.03680905949522
N            2.29988785474521       -0.02507443126474        0.02318884856388
C            2.57081086756010       -1.31653393241891        0.05362167060037
N            1.42455604515773       -2.03460378869755        0.01990049605509
C            0.38819113065824       -1.15164697097161       -0.03571174360051
C            0.93601570889058        0.12919627422229       -0.03303755381187
C            0.14558669646652        1.31063156622820       -0.03909851062396
O           -1.68579250713563        3.07954009370246        0.93122618534493
N           -1.15641822600543        1.02151798768461       -0.08624129801177
C           -2.07406680567851        2.18357860277992       -0.03688551222543
C           -1.78386470147052       -0.23312161730258       -0.15829019291643
O           -2.96788923298414       -0.36854026284533       -0.26983701919982
N           -0.93234535427761       -1.35818598092935       -0.09435626710884
C           -1.51414196841744       -2.68648900109004       -0.09447350033276
H            3.95505010424992        0.93955153667160        0.84675652265922
H            3.77824421362978        1.11284034131136       -0.90906763807399
H            2.67802121310672        1.98700366196558        0.17611240493501
H            3.55301733343032       -1.74590506480219        0.09912480395815
H           -2.09019664928134        2.63235491552065       -1.03586227399732
H           -3.07035542568470        1.82136222089536        0.22145217050935
H           -0.87406972999020        3.53763783819895        0.66503282070524
H           -1.24712861537942       -3.21708362184213        0.81966881315826
H           -1.18137461531336       -3.24847240234477       -0.96749896863128
H           -2.59635076239612       -2.57116302177001       -0.13828459681539
H            1.36742839007083       -3.04387552096266        0.03692289726423

 Bond Distances (Angstroems)
 ---------------------------
C1-N2=1.4370         C1-H15=1.0891        C1-H16=1.0906        C1-H17=1.0886        N2-C1=1.4370         N2-C3=1.3199         
N2-C6=1.3737         C3-N2=1.3199         C3-N4=1.3530         C3-H18=1.0729        N4-C3=1.3530         N4-C5=1.3626         
N4-H25=1.0110        C5-N4=1.3626         C5-C6=1.3931         C5-N13=1.3379        C6-N2=1.3737         C6-C5=1.3931         
C6-C7=1.4215         C7-C6=1.4215         C7-N9=1.3346         O8-C10=1.3750        O8-H21=0.9693        N9-C7=1.3346         
N9-C10=1.4815        N9-C11=1.4046        C10-O8=1.3750        C10-N9=1.4815        C10-H19=1.0953       C10-H20=1.0911       
C11-N9=1.4046        C11-O12=1.1970       C11-N13=1.4124       O12-C11=1.1970       N13-C5=1.3379        N13-C11=1.4124       
N13-C14=1.4501       C14-N13=1.4501       C14-H22=1.0902       C14-H23=1.0903       C14-H24=1.0892       H15-C1=1.0891        
H16-C1=1.0906        H17-C1=1.0886        H18-C3=1.0729        H19-C10=1.0953       H20-C10=1.0911       H21-O8=0.9693        
H22-C14=1.0902       H23-C14=1.0903       H24-C14=1.0892       H25-N4=1.0110        
 C  H  Rav=1.0886 sigma=0.0058  Rmin=1.0729  Rmax=1.0953     9
 C  C  Rav=1.4073 sigma=0.0142  Rmin=1.3931  Rmax=1.4215     2
 N  H  Rav=1.0110 sigma=0.0000  Rmin=1.0110  Rmax=1.0110     1
 N  C  Rav=1.3879 sigma=0.0504  Rmin=1.3199  Rmax=1.4815    11
 O  H  Rav=0.9693 sigma=0.0000  Rmin=0.9693  Rmax=0.9693     1
 O  C  Rav=1.2860 sigma=0.0890  Rmin=1.1970  Rmax=1.3750     2

 selected bond angles (degree)
 --------------------
H15-C1-N2=110.52               H16-C1-N2=110.45               H16-C1-H15=108.88              H17-C1-N2=107.96               
H17-C1-H15=109.89              H17-C1-H16=109.12              C3-N2-C1=127.39                C6-N2-C1=124.28                
C6-N2-C3=108.34                N4-C3-N2=110.17                H18-C3-N2=125.48               H18-C3-N4=124.35               
C5-N4-C3=107.55                H25-N4-C3=125.26               H25-N4-C5=127.20               C6-C5-N4=107.25                
N13-C5-N4=130.73               N13-C5-C6=122.02               C5-C6-N2=106.69                C7-C6-N2=130.21                
C7-C6-C5=123.06                N9-C7-C6=111.26                H21-O8-C10=110.55              C10-N9-C7=115.67               
C11-N9-C7=129.13               C11-N9-C10=115.19              N9-C10-O8=111.08               H19-C10-O8=112.29              
H19-C10-N9=107.47              H20-C10-O8=107.91              H20-C10-N9=108.24              H20-C10-H19=109.79             

 selected dihedral angles (degree)
 ---------------------------------
C3-N2-C1-H15=309.84           C3-N2-C1-H16= 70.39           C3-N2-C1-H17=189.63           C6-N2-C1-H15=130.23           
C6-N2-C1-H16=250.78           C6-N2-C1-H17= 10.02           N4-C3-N2-C1=180.31            N4-C3-N2-C6=359.97            
H18-C3-N2-C1=  0.35           H18-C3-N2-C6=180.01           C5-N4-C3-N2=  0.07            C5-N4-C3-H18=180.03           
H25-N4-C3-N2=180.26           H25-N4-C3-H18=  0.22          C6-C5-N4-C3=359.92            C6-C5-N4-H25=179.72           
N13-C5-N4-C3=179.46           N13-C5-N4-H25=359.26          C5-C6-N2-C1=179.65            C5-C6-N2-C3=359.97            
C7-C6-N2-C1=357.39            C7-C6-N2-C3=177.72            N2-C6-C5-N4=  0.07            N2-C6-C5-N13=180.48           
C7-C6-C5-N4=182.12            C7-C6-C5-N13=  2.53           N9-C7-C6-N2=180.79            N9-C7-C6-C5=358.21            
C10-N9-C7-C6=177.43           C11-N9-C7-C6=358.38           N9-C10-O8-H21= 71.07          H19-C10-O8-H21=310.70         
H20-C10-O8-H21=189.57         O8-C10-N9-C7=315.25           O8-C10-N9-C11=134.44          H19-C10-N9-C7= 78.45          
H19-C10-N9-C11=257.63         H20-C10-N9-C7=196.96          H20-C10-N9-C11= 16.15         
           -------------------------------------------------
          |                Final Singlepoint                |
           -------------------------------------------------

          ...................................................
          :                      SETUP                      :
          :.................................................:
          :  # basis functions                  67          :
          :  # atomic orbitals                  67          :
          :  # shells                           39          :
          :  # electrons                        74          :
          :  max. iterations                   250          :
          :  Hamiltonian                  GFN2-xTB          :
          :  restarted?                      false          :
          :  GBSA solvation                  false          :
          :  PC potential                    false          :
          :  electronic temp.         2500.0000000     K    :
          :  accuracy                    1.0000000          :
          :  -> integral cutoff          0.2500000E+02      :
          :  -> integral neglect         0.1000000E-07      :
          :  -> SCF convergence          0.1000000E-05 Eh   :
          :  -> wf. convergence          0.1000000E-03 e    :
          :  Broyden damping             0.4000000          :
          ...................................................

 iter      E             dE          RMSdq      gap      omega  full diag
   1    -42.6650758 -0.426651E+02  0.545E-05    1.74       0.0  T
   2    -42.6650758 -0.192486E-10  0.328E-05    1.74     609.7  T
   3    -42.6650758 -0.432010E-11  0.212E-05    1.74     941.2  T

   *** convergence criteria satisfied after 3 iterations ***

         #    Occupation            Energy/Eh            Energy/eV
      -------------------------------------------------------------
         1        2.0000           -0.9132444             -24.8506
       ...           ...                  ...                  ...
        31        2.0000           -0.6236752             -16.9711
        32        2.0000           -0.6102986             -16.6071
        33        2.0000           -0.5861358             -15.9496
        34        2.0000           -0.5685052             -15.4698
        35        1.9999           -0.5561844             -15.1345
        36        1.9998           -0.5484314             -14.9236
        37        1.9654           -0.5087266             -13.8432 (HOMO)
        38        0.0346           -0.4447559             -12.1024 (LUMO)
        39        0.0004           -0.4089691             -11.1286
        40        0.0000           -0.3734919             -10.1632
        41                         -0.2868630              -7.8059
        42                         -0.2020308              -5.4975
       ...                                ...                  ...
        67                          0.5404314              14.7059
      -------------------------------------------------------------
                  HL-Gap            0.0639707 Eh            1.7407 eV
             Fermi-level           -0.4767465 Eh          -12.9729 eV

 SCC (total)                   0 d,  0 h,  0 min,  0.023 sec
 SCC setup                      ...        0 min,  0.000 sec (  0.823%)
 Dispersion                     ...        0 min,  0.000 sec (  0.835%)
 classical contributions        ...        0 min,  0.000 sec (  0.341%)
 integral evaluation            ...        0 min,  0.005 sec ( 21.503%)
 iterations                     ...        0 min,  0.005 sec ( 20.084%)
 molecular gradient             ...        0 min,  0.013 sec ( 55.832%)
 printout                       ...        0 min,  0.000 sec (  0.521%)

         :::::::::::::::::::::::::::::::::::::::::::::::::::::
         ::                     SUMMARY                     ::
         :::::::::::::::::::::::::::::::::::::::::::::::::::::
         :: total energy             -42.156361834290 Eh    ::
         :: gradient norm              0.008817257678 Eh/a0 ::
         :: HOMO-LUMO gap              1.740731694316 eV    ::
         ::.................................................::
         :: SCC energy               -42.665075766127 Eh    ::
         :: -> isotropic ES            0.134753514802 Eh    ::
         :: -> anisotropic ES         -0.006958443676 Eh    ::
         :: -> anisotropic XC          0.011889932911 Eh    ::
         :: -> dispersion             -0.022189844554 Eh    ::
         :: repulsion energy           0.508605091011 Eh    ::
         :: add. restraining           0.000000000000 Eh    ::
         :: total charge               0.999999999993 e     ::
         :::::::::::::::::::::::::::::::::::::::::::::::::::::

           -------------------------------------------------
          |                Property Printout                |
           -------------------------------------------------

    * Orbital Energies and Occupations

         #    Occupation            Energy/Eh            Energy/eV
      -------------------------------------------------------------
         1        2.0000           -0.9132444             -24.8506
       ...           ...                  ...                  ...
        25        2.0000           -0.6655654             -18.1110
        26        2.0000           -0.6577528             -17.8984
        27        2.0000           -0.6413959             -17.4533
        28        2.0000           -0.6380787             -17.3630
        29        2.0000           -0.6300605             -17.1448
        30        2.0000           -0.6245104             -16.9938
        31        2.0000           -0.6236752             -16.9711
        32        2.0000           -0.6102986             -16.6071
        33        2.0000           -0.5861358             -15.9496
        34        2.0000           -0.5685052             -15.4698
        35        1.9999           -0.5561844             -15.1345
        36        1.9998           -0.5484314             -14.9236
        37        1.9654           -0.5087266             -13.8432 (HOMO)
        38        0.0346           -0.4447559             -12.1024 (LUMO)
        39        0.0004           -0.4089691             -11.1286
        40        0.0000           -0.3734919             -10.1632
        41                         -0.2868630              -7.8059
        42                         -0.2020308              -5.4975
        43                         -0.1963117              -5.3419
        44                         -0.1410482              -3.8381
        45                         -0.1186088              -3.2275
        46                         -0.0779746              -2.1218
        47                         -0.0463775              -1.2620
        48                         -0.0446345              -1.2146
       ...                                ...                  ...
        67                          0.5404314              14.7059
      -------------------------------------------------------------
                  HL-Gap            0.0639707 Eh            1.7407 eV
             Fermi-level           -0.4767465 Eh          -12.9729 eV

     #   Z          covCN         q      C6AA      α(0)
     1   6 C        3.693    -0.093    22.473     6.783
     2   7 N        2.837     0.081    19.833     6.614
     3   6 C        3.067     0.060    26.587     8.455
     4   7 N        2.790    -0.062    22.443     7.036
     5   6 C        3.057     0.117    25.367     8.260
     6   6 C        3.139     0.019    27.342     8.557
     7   6 C        1.922    -0.139    35.025     9.558
     8   8 O        1.657    -0.394    20.740     6.148
     9   7 N        2.762    -0.027    21.767     6.929
    10   6 C        3.636     0.129    18.829     6.243
    11   6 C        2.723     0.313    21.680     7.622
    12   8 O        0.859    -0.366    21.006     6.145
    13   7 N        2.739    -0.044    22.100     6.982
    14   6 C        3.696    -0.070    22.026     6.713
    15   1 H        0.925     0.107     1.721     2.051
    16   1 H        0.924     0.110     1.695     2.036
    17   1 H        0.925     0.128     1.552     1.948
    18   1 H        0.926     0.122     1.600     1.978
    19   1 H        0.924     0.066     2.128     2.281
    20   1 H        0.924     0.108     1.715     2.048
    21   1 H        0.804     0.322     0.657     1.274
    22   1 H        0.925     0.081     1.969     2.194
    23   1 H        0.924     0.081     1.970     2.195
    24   1 H        0.925     0.125     1.571     1.960
    25   1 H        0.860     0.226     0.982     1.552

 Mol. C6AA /au·bohr⁶  :       6567.762936
 Mol. C8AA /au·bohr⁸  :     151399.146062
 Mol. α(0) /au        :        123.563504


Wiberg/Mayer (AO) data.
largest (>0.10) Wiberg bond orders for each atom

 ---------------------------------------------------------------------------
     #   Z sym  total        # sym  WBO       # sym  WBO       # sym  WBO
 ---------------------------------------------------------------------------
     1   6 C    3.921 --     2 N    0.987    17 H    0.967    15 H    0.963
                            16 H    0.956
     2   7 N    3.719 --     3 C    1.432     6 C    1.148     1 C    0.987
     3   6 C    3.907 --     2 N    1.432     4 N    1.276    18 H    0.953
     4   7 N    3.605 --     3 C    1.276     5 C    1.191    25 H    0.919
     5   6 C    3.950 --     6 C    1.312    13 N    1.241     4 N    1.191
     6   6 C    3.919 --     5 C    1.312     7 C    1.192     2 N    1.148
     7   6 C    2.842 --     9 N    1.406     6 C    1.192
     8   8 O    2.020 --    10 C    1.058    21 H    0.876
     9   7 N    3.655 --     7 C    1.406    11 C    1.070    10 C    0.920
                            12 O    0.114
    10   6 C    3.926 --     8 O    1.058    20 H    0.954    19 H    0.951
                             9 N    0.920
    11   6 C    3.955 --    12 O    1.726     9 N    1.070    13 N    1.048
    12   8 O    2.077 --    11 C    1.726    13 N    0.137     9 N    0.114
    13   7 N    3.596 --     5 C    1.241    11 C    1.048    14 C    0.974
                            12 O    0.137
    14   6 C    3.929 --    13 N    0.974    22 H    0.971    23 H    0.971
                            24 H    0.965
    15   1 H    0.988 --     1 C    0.963
    16   1 H    0.987 --     1 C    0.956
    17   1 H    0.984 --     1 C    0.967
    18   1 H    0.984 --     3 C    0.953
    19   1 H    0.994 --    10 C    0.951
    20   1 H    0.988 --    10 C    0.954
    21   1 H    0.896 --     8 O    0.876
    22   1 H    0.993 --    14 C    0.971
    23   1 H    0.993 --    14 C    0.971
    24   1 H    0.984 --    14 C    0.965
    25   1 H    0.949 --     4 N    0.919
 ---------------------------------------------------------------------------

Topologies differ in total number of bonds
Writing topology from bond orders to xtbtopo.mol

molecular dipole:
                 x           y           z       tot (Debye)
 q only:        3.300      -1.467      -0.254
   full:        3.603      -2.391      -0.438      11.047
molecular quadrupole (traceless):
                xx          xy          yy          xz          yz          zz
 q only:        7.771      -1.025      12.972       2.350      -2.690     -20.743
  q+dip:        6.170      -3.736      12.602       2.881      -5.384     -18.772
   full:        5.107      -3.259      11.746       2.864      -4.963     -16.853

           -------------------------------------------------
          |                Geometry Summary                 |
           -------------------------------------------------

      molecular mass/u    :      195.1988581
   center of mass at/Å    :       -0.1247200      -0.0021314       0.0244909
  moments of inertia/u·Å² :        0.5117111E+03   0.7900616E+03   0.1270894E+04
rotational constants/cm⁻¹ :        0.3294365E-01   0.2133711E-01   0.1326439E-01

 * 25 selected distances

     #   Z          #   Z                                           value/Å
     1   6 C        2   7 N                                       1.4370081
     2   7 N        3   6 C                                       1.3199217
     3   6 C        4   7 N                                       1.3530195
     4   7 N        5   6 C                                       1.3626291
     2   7 N        6   6 C                                       1.3737207
     5   6 C        6   6 C                                       1.3930824
     7   6 C        9   7 N                                       1.3345510
     8   8 O       10   6 C                                       1.3750435
     9   7 N       10   6 C                                       1.4815196 (max)
     9   7 N       11   6 C                                       1.4046355
    11   6 C       12   8 O                                       1.1969525
     5   6 C       13   7 N                                       1.3378769
    11   6 C       13   7 N                                       1.4124245
    13   7 N       14   6 C                                       1.4501299
     1   6 C       15   1 H                                       1.0891022
     1   6 C       16   1 H                                       1.0905843
     1   6 C       17   1 H                                       1.0885802
     3   6 C       18   1 H                                       1.0729212
    10   6 C       19   1 H                                       1.0952694
    10   6 C       20   1 H                                       1.0911142
     8   8 O       21   1 H                                       0.9693330 (min)
    14   6 C       22   1 H                                       1.0901758
    14   6 C       23   1 H                                       1.0902904
    14   6 C       24   1 H                                       1.0892179
     4   7 N       25   1 H                                       1.0110306

 * 6 distinct bonds (by element types)

   Z      Z             #   av. dist./Å        max./Å        min./Å
   1 H    6 C           9     1.0885840     1.0952694     1.0729212
   6 C    6 C           1     1.3930824     1.3930824     1.3930824
   1 H    7 N           1     1.0110306     1.0110306     1.0110306
   6 C    7 N          11     1.3879488     1.4815196     1.3199217
   1 H    8 O           1     0.9693330     0.9693330     0.9693330
   6 C    8 O           2     1.2859980     1.3750435     1.1969525


optimized geometry written to: xtbopt.xyz


           -------------------------------------------------
          | TOTAL ENERGY              -42.156361834290 Eh   |
          | GRADIENT NORM               0.008817257678 Eh/α |
          | HOMO-LUMO GAP               1.740731694316 eV   |
           -------------------------------------------------

------------------------------------------------------------------------
 * finished run on 2024/06/05 at 19:58:16.209     
------------------------------------------------------------------------
 total:
 * wall-time:     0 d,  0 h,  0 min,  0.361 sec
 *  cpu-time:     0 d,  0 h,  0 min,  0.328 sec
 * ratio c/w:     0.909 speedup
 SCF:
 * wall-time:     0 d,  0 h,  0 min,  0.026 sec
 *  cpu-time:     0 d,  0 h,  0 min,  0.026 sec
 * ratio c/w:     0.999 speedup
 ANC optimizer:
 * wall-time:     0 d,  0 h,  0 min,  0.295 sec
 *  cpu-time:     0 d,  0 h,  0 min,  0.290 sec
 * ratio c/w:     0.981 speedup

