25
 energy: 0.000000000000 xtb: 6.6.1 (8d0f1dd)
C            3.23720132972391        1.16630909158653        0.08434468864950
N            2.29877796055224        0.07527476373246        0.03981602671198
C            2.58028186251803       -1.21425391179017        0.03006175752192
N            1.43813944744728       -1.93419254010258        0.00098261751768
C            0.39035684826767       -1.05887462812143       -0.00790371763344
C            0.93510047688824        0.21347817468824        0.01709077332874
C            0.09450143016486        1.40504290868848       -0.00410946993748
O            0.49712746915594        2.54126690785742       -0.00342325656480
N           -1.25076628431515        1.06271869620815       -0.03085477937476
C           -2.21907191394203        2.15522079838987       -0.05001256521996
C           -1.81739470187490       -0.20012724136556       -0.04692818139228
O           -2.99983858926755       -0.37846413507442       -0.07008877579474
N           -0.92618577614240       -1.30210203518959       -0.03682761236648
C           -1.46982251276835       -2.64643077634382       -0.06029819901142
H            3.71247229913541        1.21471443890471        1.06488839270555
H            4.00791460421487        1.03430799217987       -0.67357688121503
H            2.69909982127087        2.09770098766290       -0.09130154035862
H            3.56654087521359       -1.63682977417947        0.04233139674524
H           -1.67107945562430        3.09322822573871       -0.02552706696334
H           -2.82428927394145        2.09428605349656       -0.95318074103337
H           -2.87644002486466        2.07745706351925        0.81450059976605
H           -1.17061985538665       -3.19584861009707        0.83242224714061
H           -1.14560246782873       -3.17511580834413       -0.95688266944647
H           -2.55549768731684       -2.55659960601237       -0.07459039105944
H            1.38130842369251       -2.94313824728853       -0.01389874052104
25
 energy: -5.280496684838 xtb: 6.6.1 (8d0f1dd)
C            3.23864758871426        1.17420535727976        0.09701566249123
N            2.30188459875840        0.10525207883590        0.03759188089021
C            2.60242541205250       -1.24206278065861        0.03180239938605
N            1.41860420111705       -1.93924794822489       -0.00359129410254
C            0.40018258481595       -1.05652012277810       -0.01107341281654
C            0.91386962823539        0.23914482481702        0.01606375064552
C            0.09836988968229        1.40443643478334       -0.00286105512026
O            0.42724237721505        2.59696796519403       -0.00830287918044
N           -1.27834970312750        1.04747411199686       -0.02738559028005
C           -2.19286651556955        2.18385048430261       -0.06024030474327
C           -1.82370536674702       -0.20325197407131       -0.03841391352227
O           -3.02142904263452       -0.39823206100787       -0.06237596984903
N           -0.93850029606040       -1.30608482850344       -0.03621201078439
C           -1.46434853386516       -2.65297570096151       -0.06500831028124
H            3.70048801175320        1.22768908811255        1.08719948565347
H            4.01946346577217        1.03084581068060       -0.65275222271090
H            2.69191089174725        2.09425439704986       -0.09825768481773
H            3.57845096958759       -1.65968192545712        0.03952690631229
H           -1.64029599559042        3.13721314802149       -0.13067941932716
H           -2.87190981524266        2.06383440727394       -0.90099909920815
H           -2.79235820991067        2.18057586458255        0.84336109889156
H           -1.15676957525523       -3.21161460983500        0.82260370507688
H           -1.13719593858960       -3.18238289277178       -0.96359705311057
H           -2.55052208417304       -2.57488767412055       -0.07592502580358
H            1.36332610658016       -2.94482433196236       -0.02209772989325
25
 energy: -2.248839562555 xtb: 6.6.1 (8d0f1dd)
C            3.23245979680423        1.16944704691303        0.10706273539164
N            2.29505083704069        0.09782872806520        0.03841674173142
C            2.60146155166171       -1.25244259446725        0.03173925807296
N            1.41193919485045       -1.94281155393101       -0.00978591649509
C            0.39603509027705       -1.05578268157674       -0.01654028369450
C            0.90491985577083        0.24905289348483        0.01760440436447
C            0.08573606447996        1.42143966836926        0.00894590351789
O            0.35987442344960        2.62973138889332       -0.00831237634537
N           -1.29169329765932        1.04540801677069       -0.02925269823671
C           -2.17238036035786        2.21622481019571       -0.07397107952492
C           -1.83278027636375       -0.21087330741345       -0.03189863749061
O           -3.02928085588799       -0.41456446650334       -0.05360811319364
N           -0.94192529450540       -1.31304412037035       -0.03678418826305
C           -1.45856422093717       -2.66455126197466       -0.07053984998001
H            3.67937454841399        1.23525988167590        1.10424705302389
H            4.02623595454956        1.02322146407225       -0.62962472548335
H            2.68468688525228        2.08464764596314       -0.10749223755987
H            3.57810693106193       -1.67397850378756        0.03665978272788
H           -1.62571596055966        3.17916732473140       -0.24507731207358
H           -2.92133378849860        2.03273607066431       -0.84154363105317
H           -2.70194811075196        2.28462782652716        0.86977740292120
H           -1.14500232528764       -3.22799701549405        0.81249474508281
H           -1.13115365843067       -3.19003376527727       -0.97184583695815
H           -2.54527083222855       -2.59610671748559       -0.07769715203933
H            1.35227994383703       -2.94905234838517       -0.03228753132965
25
 energy: 2.483142310043 xtb: 6.6.1 (8d0f1dd)
C            3.22535933104528        1.16358274591733        0.11680098829979
N            2.28772892419780        0.08861259933639        0.03661537383344
C            2.59842882505119       -1.26414204438104        0.03109452736027
N            1.40302223214088       -1.94659162713795       -0.01650374155349
C            0.38874883845415       -1.05475131891074       -0.02014470395111
C            0.89364475971305        0.25785258458377        0.01679154359332
C            0.06928556638684        1.43899850173836        0.00401391799904
O            0.29470133156155        2.66122495601743       -0.00398804957330
N           -1.30653810615807        1.05320851497410       -0.04920890135950
C           -2.16052171103110        2.25234504843487       -0.09524975278357
C           -1.84127485595263       -0.21440392509699       -0.03921075196433
O           -3.03607996912702       -0.42973728363199       -0.04713742277315
N           -0.94716982568729       -1.31830944225494       -0.03983627226649
C           -1.45334769113950       -2.67516777020511       -0.07601966307074
H            3.65680924473360        1.24102050453830        1.12092443303280
H            4.03262747327270        1.01586409959827       -0.60605631336755
H            2.67800044207223        2.07484058909104       -0.11628311605191
H            3.57621226388668       -1.68846768716923        0.03139292453276
H           -1.63087649928643        3.22098222143498       -0.36420773458937
H           -2.97242286763431        2.00744598411992       -0.77923442931914
H           -2.60741141378186        2.38642521397131        0.88729031710665
H           -1.13273413111773       -3.24293503718697        0.80244982178575
H           -1.12623069745336       -3.19772295266526       -0.97983277140501
H           -2.54032869873315       -2.61710362963134       -0.07813250651153
H            1.34246520547587       -2.95344418357049       -0.04387173652820
25
 energy: 8.953511224094 xtb: 6.6.1 (8d0f1dd)
C            3.21795886373250        1.15659856490460        0.12469414221750
N            2.28060738030433        0.07745957252176        0.04148356457887
C            2.59324376187417       -1.27867043612245        0.03382554374636
N            1.39335847844603       -1.95330135164113       -0.02128198780263
C            0.38115046837086       -1.05582044454278       -0.02377202814593
C            0.88180018989537        0.26211116355171        0.01869291175616
C            0.05034589045379        1.45133575670260       -0.01177209090146
O            0.22714157396693        2.68620095278971        0.01755104083883
N           -1.32152917610567        1.06132089944413       -0.08016551459064
C           -2.16036390333240        2.29019198588869       -0.12106304047034
C           -1.85059578301801       -0.21679274468637       -0.05255767901401
O           -3.04267611064672       -0.44557006519848       -0.04077341044306
N           -0.95269760710727       -1.32345784029704       -0.04362694519744
C           -1.44795866839588       -2.68538883591646       -0.08394766537555
H            3.63572145082301        1.25060368747278        1.13406948591554
H            4.03767451162273        1.00674870067839       -0.58491953532769
H            2.67081517096606        2.06278032913575       -0.12962509515050
H            3.57282432451237       -1.70530643180653        0.02805632795599
H           -1.65944294421829        3.27136444077928       -0.47094246317301
H           -3.02740543802965        1.98959877411005       -0.71145114406544
H           -2.51234122781447        2.48129921178700        0.89688683497123
H           -1.12152160041876       -3.25875803964888        0.78951405245914
H           -1.11911141609535       -3.20265461210476       -0.99090804273611
H           -2.53501424731256       -2.63747383946967       -0.08280315616318
H            1.33484670906740       -2.96074297528749       -0.05387412484763
25
 energy: 14.559859127028 xtb: 6.6.1 (8d0f1dd)
C            3.21001660374005        1.15192703015845        0.13558835386023
N            2.27610946765605        0.06869999360991        0.05539506360424
C            2.58828047057155       -1.28797908883064        0.03616498406688
N            1.39117781764632       -1.96108082684275       -0.02776502671879
C            0.37759467487549       -1.06438196121740       -0.03086798878288
C            0.87517338192805        0.25209499038725        0.02291349139271
C            0.03278192015727        1.43525210411819       -0.02795018791340
O            0.17693137789062        2.67089405186052        0.02736764603348
N           -1.33806075980244        1.05651777840813       -0.11753611596136
C           -2.17624737354226        2.31382311154958       -0.13988703965599
C           -1.86236372168021       -0.22675559678706       -0.06788969140845
O           -3.05112303683316       -0.46634335660472       -0.03708429786059
N           -0.95664411721636       -1.33302074040472       -0.04941609785466
C           -1.44233162477842       -2.69871531584072       -0.08903087865273
H            3.61116156379732        1.25999935110395        1.15086310545327
H            4.04292771534051        0.99913419337447       -0.55936068271225
H            2.66437906208605        2.05307842472620       -0.14097561316714
H            3.56848329912840       -1.71934532410920        0.01995890312033
H           -1.72297191209134        3.32662625302826       -0.55285256970767
H           -3.07890806404650        1.96920643787336       -0.64265805086372
H           -2.42170647752621        2.56486359320774        0.90003605513671
H           -1.10717543253061       -3.27342498919428        0.78068811135878
H           -1.11452021428571       -3.21338969350553       -0.99820763978151
H           -2.52949488379666       -2.66059598603837       -0.08073062210494
H            1.33656898387441       -2.96919843814330       -0.06879817804882
25
 energy: 19.433934285587 xtb: 6.6.1 (8d0f1dd)
C            3.20665552155859        1.15284906751493        0.14599017990025
N            2.27260506934947        0.07525857614199        0.05919186502359
C            2.58694854064995       -1.28107224255810        0.04852255943174
N            1.39705678397465       -1.96115608863795       -0.02897719720282
C            0.38114119640548       -1.06856748799582       -0.03684625792044
C            0.87115265478768        0.25063861986517        0.00918374839013
C            0.02343278097936        1.43278580216547       -0.05947768618581
O            0.17418908542320        2.67445233049466       -0.05266941295269
N           -1.34406185548599        1.05350566598834       -0.14610437593156
C           -2.18204640423315        2.32077191623757       -0.13694683569798
C           -1.86413116483257       -0.23643844053934       -0.08266080437706
O           -3.05045077494803       -0.48360499804188       -0.03020187211087
N           -0.95387163630650       -1.34197168020839       -0.05380340118958
C           -1.43460445134341       -2.71038886444428       -0.09459956895907
H            3.59236441307503        1.26600247900204        1.16705175380941
H            4.05019996606958        0.99286351135676       -0.53496953072070
H            2.66463658080649        2.05033323686130       -0.14815765491421
H            3.56398228794793       -1.72491236295655        0.00634857621147
H           -1.78535948344544        3.37123306501125       -0.64205821010918
H           -3.12485764673918        1.95295307791359       -0.55027850908424
H           -2.32218832428929        2.64055902149087        0.90189488014348
H           -1.09436722012177       -3.28779723016832        0.77169874210691
H           -1.10699127614122       -3.22187224234467       -1.00586531524206
H           -2.52226860718340       -2.68122162413118       -0.08225729648808
H            1.34686174661653       -2.97078989655693       -0.07411781461274
25
 energy: 26.778537735018 xtb: 6.6.1 (8d0f1dd)
C            3.20007145499997        1.15441873950960        0.15187772168783
N            2.26294833777413        0.08454393311924        0.06376850112954
C            2.57972454244889       -1.26885393052298        0.05732666318697
N            1.39810773388083       -1.96272299830624       -0.02799693217411
C            0.38242895769080       -1.07158318396925       -0.03539369667750
C            0.86186607614673        0.25244018073998        0.00697683354036
C            0.01873028458503        1.44437272174680       -0.06260260683167
O            0.18741633191913        2.70070770334924       -0.08202524093592
N           -1.34339833312221        1.05457721064729       -0.14610917651684
C           -2.18294468041017        2.32056577392012       -0.11710004324585
C           -1.85947562270325       -0.24300927672378       -0.07522199604256
O           -3.04505584435224       -0.49667571100396       -0.02033578900105
N           -0.95108124499952       -1.35067244761794       -0.05379437604474
C           -1.42647699874470       -2.72152240860038       -0.10101661051515
H            3.57034096365867        1.27740964898708        1.17809082389886
H            4.05334836397801        0.98313521068147       -0.51501745219884
H            2.66293051280367        2.04669080115635       -0.16344524482089
H            3.55433871849243       -1.71708826860451       -0.01097419390326
H           -1.84716817118164        3.43238906601727       -0.67288654661873
H           -3.14134353102255        1.94120709729927       -0.47493402691509
H           -2.23295171043675        2.71054243368937        0.90116607736013
H           -1.07960990296818       -3.30426362315671        0.75933731450484
H           -1.09790992529603       -3.22569725086916       -1.01634207493375
H           -2.51454445111775       -2.70287571558051       -0.08462411379803
H            1.35923862143885       -2.97189987631529       -0.08225631863608
25
 energy: 38.858760719246 xtb: 6.6.1 (8d0f1dd)
C            3.19188756778820        1.15552503216090        0.15506373643813
N            2.25302616775583        0.09312760122814        0.06066296841244
C            2.57606052606855       -1.26040766164896        0.07149556505539
N            1.40025694871466       -1.96252817303368       -0.02798800380364
C            0.38506352686605       -1.07130733045030       -0.04527826434209
C            0.85242852708223        0.25971713933108       -0.01270681408824
C            0.00518027749082        1.45751172320166       -0.07187183811845
O            0.12728111950077        2.73360220943245       -0.04965464459562
N           -1.34816802084688        1.04416367064740       -0.14438966694692
C           -2.18066904167679        2.30677195061322       -0.09352031250483
C           -1.85596823892489       -0.25831839689160       -0.07988202858117
O           -3.04020750297664       -0.51479699118504       -0.01286878462967
N           -0.94587555997915       -1.35996753586555       -0.06579172357495
C           -1.41642788730521       -2.73381605513693       -0.10298458796507
H            3.53677709583742        1.29125439633179        1.18901787669162
H            4.06006674964097        0.97234896716567       -0.48946719650944
H            2.66254944947672        2.04133099414516       -0.18680973111487
H            3.55099454679014       -1.69959855331022       -0.00314139925592
H           -1.89908167182197        3.49395192933200       -0.68174417032843
H           -3.15262508820031        1.95453825192502       -0.40219534029805
H           -2.12525464162202        2.75704853535334        0.88866136741082
H           -1.06069320889479       -3.31443852162577        0.75530252954723
H           -1.08977223108564       -3.23739514032946       -1.01912118964784
H           -2.50489302018931       -2.72451685804142       -0.07953002093036
H            1.36960440776244       -2.97126256265408       -0.08166054786432
25
 energy: 63.507170203749 xtb: 6.6.1 (8d0f1dd)
C            3.18914376377527        1.15405247334999        0.16106718819002
N            2.25087508527146        0.09616379606967        0.06290212063883
C            2.58145631010365       -1.25980232399543        0.07130333967047
N            1.40807959257233       -1.96679705585574       -0.02594449393014
C            0.39146854239748       -1.07597969810581       -0.03744274777275
C            0.85190318824563        0.26224907754425        0.00292191439595
C           -0.00288393578918        1.46099810878427       -0.04892083242455
O            0.08424425215691        2.75268098520601       -0.05792577454555
N           -1.35572858594935        1.02900756671883       -0.12144198929033
C           -2.18885014956057        2.27695412761898       -0.06065274401812
C           -1.85221189302745       -0.27837835705648       -0.06750845213328
O           -3.03560819538338       -0.53892682291212       -0.00698605865764
N           -0.93972112786757       -1.37188550830404       -0.07050620331073
C           -1.40755083361465       -2.74771904764320       -0.11051775459673
H            3.52019874888187        1.29844253664409        1.19726203629337
H            4.06492216185170        0.96509119993241       -0.47005248702610
H            2.66496826615364        2.03631934328870       -0.19415130005217
H            3.55698075685330       -1.68413291345031       -0.00640691006245
H           -1.95548810612385        3.67066506905794       -0.68740262393408
H           -3.18155227659072        1.94292472673455       -0.29924390935256
H           -2.02134413961954        2.80876262051949        0.85933600483592
H           -1.04834526742993       -3.33381579941669        0.74247278003333
H           -1.08387892829789       -3.24620692652446       -1.03057874192981
H           -2.49656883681336       -2.74345476204281       -0.08221057664635
H            1.38026105524965       -2.97485823030443       -0.07792055113294
25
 energy: 99.007398020986 xtb: 6.6.1 (8d0f1dd)
C            3.18379503985352        1.14877671107141        0.16552635494169
N            2.24970054889015        0.08763482926783        0.05932436836955
C            2.58155798535142       -1.26399061089049        0.06302292164519
N            1.41182837806417       -1.97329720284536       -0.02269291979924
C            0.39214357885519       -1.08173309976464       -0.03406549615504
C            0.85500222719178        0.26406341551836        0.00836172921303
C           -0.00328849381814        1.47205570778702       -0.03626932679992
O            0.02717480533780        2.77359664495519       -0.04883940426826
N           -1.35691808620293        0.99620901010264       -0.08237844796201
C           -2.20056149494606        2.14768129562766        0.02845222222129
C           -1.84708934814662       -0.31437816092616       -0.06456171024101
O           -3.03225196222963       -0.56533292919566       -0.01522498382122
N           -0.93424097123381       -1.38982149375359       -0.08075888318979
C           -1.39809461081503       -2.76611909994614       -0.11491785642803
H            3.49408799451130        1.30577212809772        1.20426955792647
H            4.06922539242308        0.95625086243851       -0.44839137232400
H            2.66437198991649        2.02564390555092       -0.20763363108310
H            3.55937602138697       -1.68451790421076        0.00573836499395
H           -1.98505510987854        3.99139939978284       -0.70033695641902
H           -3.21127589176780        1.91769818886380       -0.21449939251858
H           -1.90429292892024        2.84387860697269        0.79400282457056
H           -1.03318306566200       -3.35143187332967        0.73512878325925
H           -1.07773087814706       -3.25913231703860       -1.03803210319438
H           -2.48767674194484       -2.76431384685875       -0.08035713918722
H            1.37483541249202       -2.98263651384802       -0.07156551788560
25
 energy: 115.304790825458 xtb: 6.6.1 (8d0f1dd)
C            3.17919202558567        1.14169916828788        0.17059418655674
N            2.25252562737252        0.07152785542335        0.05856561368865
C            2.58617611386824       -1.27210002783456        0.05326911822206
N            1.42063707296919       -1.97859825456958       -0.01922749109965
C            0.39138607884418       -1.08933408369815       -0.02955487021905
C            0.85886345379801        0.26319675019868        0.01967799000271
C           -0.00738484399902        1.47867126138793       -0.00614355249488
O           -0.02635393207876        2.79886852623140       -0.03392112501700
N           -1.35805866960446        0.96819069105396       -0.04650776494696
C           -2.21433896148992        2.04437344224018        0.08893007659376
C           -1.84245093116333       -0.34630820731540       -0.05851119838975
O           -3.03294331927743       -0.58175512927645       -0.03096616384860
N           -0.93133505355032       -1.40629153202147       -0.08385375910437
C           -1.38951902553917       -2.78319761805969       -0.11849953233205
H            3.46787195600915        1.30771045896244        1.21231181456493
H            4.07362558464167        0.94705493284899       -0.42665451839387
H            2.66517009347465        2.01424717709859       -0.22165151336046
H            3.56558806221828       -1.69793983437427        0.01179170659472
H           -2.00680293342530        4.23423087594844       -0.67304759540928
H           -3.23547674607120        1.89458615734490       -0.14218645422177
H           -1.82331852243561        2.85833057934314        0.66913986025506
H           -1.01772838501793       -3.36847385146459        0.72763390544066
H           -1.07202370440181       -3.27076186783393       -1.04499514994407
H           -2.47939489911077       -2.78497568377493       -0.07799416726797
H            1.37377911644972       -2.99014650700840       -0.06315864596030
25
 energy: 126.119956306114 xtb: 6.6.1 (8d0f1dd)
C            3.17653482122752        1.13954877930400        0.17740940954346
N            2.25700514685388        0.05872288835586        0.05759079051503
C            2.59029338019696       -1.28193868418118        0.04599596258639
N            1.42746034243772       -1.98139494237073       -0.01940019179454
C            0.39190562188650       -1.09569449750520       -0.02591099130577
C            0.86311258366283        0.26463153488963        0.02723815853155
C            0.00004726063752        1.48966263079721        0.01304780781878
O           -0.06424063982071        2.82916280551856       -0.03172831965923
N           -1.35601022219368        0.95386032229131       -0.01133097269939
C           -2.20150941011877        2.00631749611784        0.14626419530742
C           -1.83909514403085       -0.36799961087501       -0.05019653326819
O           -3.03266266693510       -0.59285683317530       -0.04673979089389
N           -0.92956673374429       -1.41926131453337       -0.07935895436259
C           -1.38092333865803       -2.79850567515286       -0.12140154555714
H            3.44310985570801        1.30845942149900        1.22280858831782
H            4.07676637917311        0.93938709977623       -0.40549345526941
H            2.66498648505102        2.01045195593881       -0.22240153752273
H            3.57248939480110       -1.70868492652593        0.01689369284794
H           -1.97807616576997        4.40240923157082       -0.63197394782240
H           -3.22557387168919        1.90280269358168       -0.06635361239743
H           -1.74356782411710        2.87530464130009        0.62648886699156
H           -1.00121135258492       -3.38675778337528        0.71906795724220
H           -1.06595108621267       -3.28039726652894       -1.05222132964747
H           -2.47067508071580       -2.80740590575391       -0.07518469635950
H            1.37333145634436       -2.99595197285382       -0.05849887334802
25
 energy: 150.448641550437 xtb: 6.6.1 (8d0f1dd)
C            3.16734021865391        1.12851623820532        0.18206616403693
N            2.26323857128769        0.02177439518266        0.06165142701577
C            2.59893964041401       -1.30698479720712        0.04238838400746
N            1.44927104661566       -2.02404079767548       -0.02477911279846
C            0.40050139858546       -1.16866938571288       -0.02310217851642
C            0.87688119614366        0.16160250930986        0.04639664221649
C            0.05401214108069        1.30360050692817        0.05688915341715
O           -0.72004712492781        3.68965020435752       -0.19384290349466
N           -1.30587907922584        0.91635050602703        0.01909574710874
C           -2.15519621648635        1.94043813118395        0.20362915853556
C           -1.83069905978184       -0.39719757388561       -0.05798231411101
O           -3.02821481925285       -0.60617754268453       -0.06954846106456
N           -0.92728740427742       -1.45207958579587       -0.07203038261004
C           -1.38014370637336       -2.82325920744040       -0.12566664182076
H            3.41560642190391        1.30538805449851        1.22911099974362
H            4.07608383418851        0.92645286419976       -0.38639120551347
H            2.65627195041562        2.00323492833811       -0.21176129596619
H            3.58575927292223       -1.72709393985940        0.01990809590949
H           -1.58808950061938        4.36238794181086       -0.48503016804005
H           -3.18944564548388        1.89956638208763       -0.02254018420913
H           -1.64585587096451        2.87255535056025        0.54246752606350
H           -0.98698425381601       -3.40804105025162        0.71067610666244
H           -1.06534900289411       -3.29174355539471       -1.06345786301273
H           -2.46779629094092       -2.83205781084109       -0.07103552752738
H            1.39954637498931       -3.03331038626608       -0.06238958684996
25
 energy: 145.026909496644 xtb: 6.6.1 (8d0f1dd)
C            3.16068184099703        1.12584439052586        0.18311430499244
N            2.26345699977830        0.01018110345290        0.05954405428823
C            2.59428064825529       -1.31191591126456        0.04085465394973
N            1.45211898848654       -2.03074495916216       -0.03088708061507
C            0.39745654809420       -1.17962663285226       -0.02088263051603
C            0.87482146682449        0.15080108100185        0.04803424840198
C            0.06954933272475        1.29980297664090        0.06258591428314
O           -0.74871171692588        3.77328617085701       -0.15316337836295
N           -1.29779898024132        0.91723621724679        0.01855851946435
C           -2.16289967611972        1.90678824745536        0.21235252184442
C           -1.83020042204808       -0.41101756061007       -0.05536856751612
O           -3.02850522413433       -0.60919009778214       -0.07174119802507
N           -0.92841190211497       -1.46514132566837       -0.06530039695882
C           -1.37507408703633       -2.83922035003627       -0.12833128196829
H            3.38869062603769        1.31325201327811        1.23623302138333
H            4.07712752072810        0.92129792838399       -0.36987391407372
H            2.64944038555719        2.00427633143553       -0.20464594775635
H            3.58637879874491       -1.73089554341439        0.01350620676013
H           -1.53889894946569        4.47549342735100       -0.43585749105107
H           -3.21669952762884        1.86809846157116        0.06071020881566
H           -1.61535441077301        2.89229384536231        0.38684449889399
H           -0.96698126993061       -3.42349844643071        0.69994788119929
H           -1.06513878664233       -3.30193838282113       -1.06929927081822
H           -2.46066013082326       -2.85572460528885       -0.06633860430036
H            1.41370342748492       -3.03982210718566       -0.06647499413162
25