25
 energy: 0.000000000000 xtb: 6.6.1 (8d0f1dd)
C            3.23720163006194        1.16630919979326        0.08434469647475
N            2.29877817382611        0.07527477071623        0.03981603040599
C            2.58028210190900       -1.21425402444508        0.03006176031096
N            1.43813958087363       -1.93419271955128        0.00098261760884
C            0.39035688448383       -1.05887472636071       -0.00790371836672
C            0.93510056364412        0.21347819449412        0.01709077491437
C            0.09450143893243        1.40504303904423       -0.00410947031874
O            0.49712751527797        2.54126714362870       -0.00342325688240
N           -1.25076640035757        1.06271879480407       -0.03085478223738
C           -2.21907211982101        2.15522099834493       -0.05001256985998
C           -1.81739487048744       -0.20012725993278       -0.04692818574614
O           -2.99983886758376       -0.37846417018721       -0.07008878229737
N           -0.92618586207120       -1.30210215599479       -0.03682761578324
C           -1.46982264913417       -2.64643102187190       -0.06029820460571
H            3.71247264356769        1.21471455160235        1.06488849150277
H            4.00791497605742        1.03430808813993       -0.67357694370751
H            2.69910007168542        2.09770118228144       -0.09130154882931
H            3.56654120610678       -1.63682992603973        0.04233140067262
H           -1.67107961066214        3.09322851271934       -0.02552706933167
H           -2.82428953597071        2.09428624779827       -0.95318082946668
H           -2.87644029173232        2.07745725625962        0.81450067533302
H           -1.17061996399332       -3.19584890659852        0.83242232437030
H           -1.14560257411436       -3.17511610292205       -0.95688275822323
H           -2.55549792440841       -2.55659984320617       -0.07459039797972
H            1.38130855184625       -2.94313852034425       -0.01389874181052
25
 energy: -1.277705800813 xtb: 6.6.1 (8d0f1dd)
C            3.22494149234890        1.17758186057595        0.07350806276351
N            2.29680599037183        0.08998212197930        0.03167115232153
C            2.59602079065396       -1.23461938307178        0.03119769367136
N            1.42968380379160       -1.95012333539936        0.00633096627622
C            0.39258645277032       -1.07185029400012       -0.00735035167277
C            0.92002656437224        0.20894363594181        0.01089663657972
C            0.09360235200920        1.38165227841871       -0.00840749964863
O            0.48860571300214        2.54682098239806       -0.01477900891633
N           -1.26626976961563        1.04799889340684       -0.03211394266206
C           -2.17661386498777        2.20015402717823       -0.02958458453142
C           -1.82880232584410       -0.21499812174252       -0.05399003029785
O           -3.02396109707609       -0.40829927798532       -0.07159058173677
N           -0.93682054493163       -1.32009723196739       -0.03612315053035
C           -1.45827595514478       -2.67223121830694       -0.05142498402958
H            3.70011042904843        1.23269315694655        1.05607666948878
H            3.99470791474587        1.04137298516375       -0.68707840344798
H            2.67321121310365        2.09781364905040       -0.10976051390726
H            3.57701500619456       -1.65167279462667        0.04556633769911
H           -1.66998846385633        3.20679394845257        0.05720063443271
H           -2.72002055014865        2.23341945912811       -0.93555007103585
H           -2.95240362140736        2.02910118258894        0.72226114040538
H           -1.15003689188771       -3.21696165603799        0.84388977190715
H           -1.11981038702095       -3.20738809676538       -0.94167674928892
H           -2.54466711110050       -2.60257532074707       -0.06935978536452
H            1.37256752854504       -2.95448284840674       -0.00277551232791
25
 energy: 10.028407080655 xtb: 6.6.1 (8d0f1dd)
C            3.20370711537984        1.18672379157527        0.05510532621918
N            2.28812638726958        0.10039181390622        0.01744516308360
C            2.60785315362524       -1.25617422780359        0.03337843572485
N            1.41811391227183       -1.96571276605941        0.01437649895916
C            0.39303181674358       -1.09042987385575       -0.00516186826863
C            0.89873917141314        0.19910239461709        0.00079279064365
C            0.09121110534464        1.34610587736520       -0.01904249534066
O            0.46839382188350        2.53380840385636       -0.03939931350923
N           -1.29089126530997        1.03472064190172       -0.02806524025995
C           -2.12845767923148        2.25863721153572        0.00462403425671
C           -1.84249757871583       -0.23122929339575       -0.05210970226027
O           -3.04330746531631       -0.45124155602819       -0.06916564806386
N           -0.95041517884799       -1.34049213760309       -0.03234969870798
C           -1.43953066751579       -2.70610908236809       -0.03789137576445
H            3.67942209998767        1.25808105430435        1.03869648129830
H            3.97507122683135        1.05143551129203       -0.70613459983165
H            2.63704503583317        2.09573000010962       -0.13805068801193
H            3.58468231069310       -1.66201075842971        0.04996876274232
H           -1.66198950045325        3.34399365898617        0.20831005662972
H           -2.54853573519842        2.46601035031081       -0.94483441204328
H           -3.06881397700888        1.95150827477598        0.58093996502393
H           -1.11913526407616       -3.24363155226584        0.86138202970845
H           -1.08111534231507       -3.25070462601292       -0.91871647876358
H           -2.52736012276687       -2.67184880001754       -0.06095461346266
H            1.36886728741560       -2.96763570852474        0.01389048614554
25
 energy: 26.274310962331 xtb: 6.6.1 (8d0f1dd)
C            3.17993899869382        1.19204033293937        0.03811264925237
N            2.27618230187846        0.10028023633115        0.00470298793604
C            2.61010858004213       -1.27192873685684        0.03500396863199
N            1.41107193433541       -1.97906560003393        0.02096073929216
C            0.39028585150414       -1.11070726607430       -0.00302673401051
C            0.88048790582455        0.18528519390810       -0.00880763704802
C            0.08111358814867        1.31930237732313       -0.03352537944247
O            0.44268927146208        2.51662212748559       -0.06744109537394
N           -1.31959748088345        1.02818836234860       -0.01715546260149
C           -2.10421839755785        2.30229537723905        0.04009021195978
C           -1.85730591337089       -0.24671320918426       -0.04061548349288
O           -3.05610637076336       -0.49563553565024       -0.06229541658446
N           -0.96068352344136       -1.35879672069064       -0.02791545389894
C           -1.42000890535336       -2.73792753143728       -0.02713699872512
H            3.65480951953142        1.28102554640878        1.02200409111921
H            3.95455420484422        1.06202113801607       -0.72157935114884
H            2.60187980744242        2.09321516131636       -0.16370083256862
H            3.58858925425813       -1.66625528614985        0.05312364735230
H           -1.66103986911363        3.44808102020835        0.34989514270288
H           -2.36283661269828        2.69341582943228       -0.94414038825904
H           -3.15274539314420        1.91067660151362        0.43184149538140
H           -1.08910604714613       -3.26711853207891        0.87589077735381
H           -1.04188169717669       -3.28701035928349       -0.89977674247626
H           -2.50862122928590       -2.74056960324802       -0.05599372986775
H            1.37465488990588       -2.98169232161087        0.02851889066364
25
 energy: 39.650999289159 xtb: 6.6.1 (8d0f1dd)
C            3.15813822243802        1.19244367905975        0.02824731912230
N            2.26402139392303        0.09097718698348       -0.00323919381975
C            2.60381158083392       -1.28051142591390        0.03588411010522
N            1.40809010071656       -1.98826266366802        0.02440252276660
C            0.38479028304359       -1.12808506310463       -0.00213165710277
C            0.86832509281905        0.17072411357466       -0.01586093106369
C            0.06832852949688        1.30473261512698       -0.04860447760702
O            0.41812450192986        2.49856164231244       -0.09371527766140
N           -1.34420597189246        1.03146908203417       -0.00147952278168
C           -2.10036538504914        2.33145765021926        0.06261657076748
C           -1.87008316375567       -0.25643109796178       -0.02269247037291
O           -3.06040231734826       -0.53074508113463       -0.05384273257873
N           -0.96710509611650       -1.37125913417467       -0.02517258448196
C           -1.40395104994873       -2.76198433012738       -0.02391829827617
H            3.63001812535533        1.29588087524533        1.01223280793348
H            3.93691784202939        1.07050913726802       -0.72825020943795
H            2.57269793916097        2.08907347985117       -0.17942714974150
H            3.58763646112103       -1.66540044072011        0.05485314966860
H           -1.68151919929809        3.53539196523415        0.43278432784001
H           -2.20597382936360        2.82516893238588       -0.88614838706690
H           -3.17349569747847        1.92087752695107        0.29188804122690
H           -1.06675670341525       -3.28495096254109        0.88147418450206
H           -1.00870382493386       -3.30989272746206       -0.89086901054367
H           -2.49179190422932       -2.79718053331282       -0.05918063894657
H            1.38566873789792       -2.99353582395346        0.03718340369728
25
 energy: 45.745717647725 xtb: 6.6.1 (8d0f1dd)
C            3.14810005745154        1.18971928223951        0.01932692417817
N            2.25750538135013        0.07989968242280       -0.00901042696156
C            2.59349859986822       -1.27622154278471        0.03146431424818
N            1.41180800386871       -1.98981398098236        0.02504443277976
C            0.37896496844343       -1.13611727679498       -0.00112033266502
C            0.86581140941061        0.16237323395769       -0.01604060004869
C            0.05490296237690        1.30479003523836       -0.04571928517241
O            0.39776619104866        2.49002214191601       -0.10512298202484
N           -1.35643733732376        1.03305671368266        0.02170392397678
C           -2.12780708015440        2.32181650146393        0.06949475347216
C           -1.87876693761268       -0.26377896470692       -0.01007333753159
O           -3.05991450756976       -0.54931061649634       -0.04426620543269
N           -0.96696486520025       -1.37708355162266       -0.02192264924936
C           -1.39996185023502       -2.77031588723926       -0.01955452352731
H            3.61821272314836        1.29701706476571        1.00226398640682
H            3.92751866780254        1.07075787702875       -0.73593188348441
H            2.56215257917679        2.08560578505370       -0.18979397465974
H            3.58310476657025       -1.65707647870848        0.04751047972648
H           -1.72310958353388        3.57995166661178        0.51157500258196
H           -2.04782909959627        2.87599171716377       -0.84125006799697
H           -3.17985702746428        1.93016220123223        0.15499352877106
H           -1.06178887285675       -3.28811852040750        0.88748680374710
H           -0.99940952927406       -3.31201728191330       -0.88577760340300
H           -2.48429693377896       -2.81519853563225       -0.05721501483832
H            1.39901198202017       -2.99708266331634        0.03896863325466
25
 energy: 51.900636854646 xtb: 6.6.1 (8d0f1dd)
C            3.14778892745382        1.18651992512974        0.01138978517669
N            2.25542114832139        0.07398291464585       -0.01493101270951
C            2.58443443088851       -1.26411453619243        0.02317993249257
N            1.41633644944372       -1.98565757513636        0.02128940408702
C            0.37420717848843       -1.13470670198846        0.00194969627087
C            0.86748243474900        0.16199480869577       -0.01163413981493
C            0.04799074089088        1.30873305055807       -0.02765831280399
O            0.39019845592211        2.48799610458877       -0.10541693077838
N           -1.35420361615101        1.02780844642935        0.06184681211133
C           -2.15459443806905        2.29426914534694        0.06550836210094
C           -1.88282043053302       -0.26898909341822        0.01258619061296
O           -3.05928617868910       -0.55159922723406       -0.02823400699175
N           -0.96435441263757       -1.37831175673694       -0.01418193099086
C           -1.40411914313246       -2.76902230560593       -0.01661185047764
H            3.61858854832029        1.28981472247094        0.99311320958291
H            3.92536884138000        1.06567441484744       -0.74455960803984
H            2.56471637404462        2.08374855158086       -0.19568044538352
H            3.57624963945842       -1.64662639045468        0.03391448556696
H           -1.77689243762393        3.61253126448513        0.56305100180946
H           -1.89659006664387        2.86956220793183       -0.79473734887994
H           -3.21006731409196        1.91930722875561        0.01066241377241
H           -1.06562885581656       -3.28701363069976        0.88865747638746
H           -1.00647280855350       -3.30438842475170       -0.88595186994582
H           -2.48727275052131       -2.80917747698476       -0.05206769467629
H            1.40573395103842       -2.99330706409119        0.03155027766811
25
 energy: 58.357964877432 xtb: 6.6.1 (8d0f1dd)
C            3.14764651746941        1.18710602575116        0.01163381231419
N            2.25279389203239        0.07466824142209       -0.01675632097395
C            2.57956240471057       -1.25324544463821        0.02141050505637
N            1.41867527824241       -1.98196499424274        0.01987801577219
C            0.37070956468573       -1.13136025475190        0.00291193647824
C            0.86573112289563        0.16472558233142       -0.01119789527854
C            0.03940134272863        1.30927510518908       -0.02294041223151
O            0.38404462607572        2.48739968317506       -0.10878812698625
N           -1.35357938629024        1.01615243352442        0.08324365699233
C           -2.16844289212355        2.27259518178775        0.05230501145699
C           -1.88708733572224       -0.27685849245073        0.02157992112851
O           -3.06364544383547       -0.55256146981786       -0.02228751349965
N           -0.96345976584872       -1.38136168948656       -0.01156655026134
C           -1.40707636063572       -2.77054722186376       -0.01801315227247
H            3.61827786518554        1.28612602621355        0.99384745059453
H            3.92550704429740        1.06383769651733       -0.74346686425104
H            2.56700485358375        2.08565310325537       -0.19417943770417
H            3.57112926566505       -1.63997206816455        0.03045068812734
H           -1.81313906358249        3.63649286886831        0.55234390070653
H           -1.83418004355168        2.85533804503656       -0.73056795429105
H           -3.17002929228622        1.92396892896424       -0.05232934728271
H           -1.06906986564464       -3.29048096094024        0.88563673876794
H           -1.01218926103701       -3.30367037942280       -0.88982753613464
H           -2.49160510762824       -2.80303055880065       -0.05284192185903
H            1.40523470855024       -2.98925678528460        0.02655529177844
25
 energy: 63.548411295878 xtb: 6.6.1 (8d0f1dd)
C            3.15084010173123        1.18896824609088        0.00557590344373
N            2.25261952687519        0.08036842461591       -0.02215636684965
C            2.58145636894914       -1.24756125450519        0.01572455103942
N            1.42082910781903       -1.98069171828142        0.01783415642441
C            0.37137800580355       -1.12897184105551        0.00566206060947
C            0.86329524199317        0.16859840114364       -0.00862186083591
C            0.03175389566170        1.30685058333817       -0.00940441298322
O            0.37719701158747        2.49007492307818       -0.10410836652165
N           -1.35580159884238        1.00122275172498        0.11408864905999
C           -2.17818019504061        2.25126889519926        0.04942677557872
C           -1.88930797503641       -0.28665754068112        0.03161843789873
O           -3.06906402204364       -0.55807687617281       -0.01352393561060
N           -0.96225565859630       -1.38568285662406       -0.00539383461414
C           -1.41052788829771       -2.77147216253743       -0.01316873829031
H            3.62501371108522        1.28274552989829        0.98709114742675
H            3.92638480917915        1.06129146278262       -0.75160936219518
H            2.57264790698895        2.08888055166427       -0.19783045804172
H            3.57110277909365       -1.63771148956523        0.01974368020756
H           -1.85153744868233        3.66769746848761        0.57956143087221
H           -1.72061586116379        2.88032031005615       -0.70685262352626
H           -3.20619576537360        1.89331272660120       -0.14395220969265
H           -1.07291537592043       -3.29384113099368        0.88910056785111
H           -1.02305133873505       -3.30413456169876       -0.88859912613023
H           -2.49630606964534       -2.79096573462733       -0.04430315517508
H            1.40345539854642       -2.98680450576689        0.02113098620172
25
 energy: 62.901798207473 xtb: 6.6.1 (8d0f1dd)
C            3.15199170177219        1.18803134516746        0.00750049851540
N            2.25446369824100        0.08032192586619       -0.01993380770114
C            2.58520544254974       -1.25465393517880        0.01835093625901
N            1.41922153452150       -1.98334348974986        0.01908493347216
C            0.37435657704461       -1.12945775597759        0.00446786627673
C            0.86485956912700        0.16782193600273       -0.00953210646647
C            0.03830767789063        1.30718392067267       -0.01464481913257
O            0.38802616355111        2.48972383819121       -0.09958258769430
N           -1.35314702293909        1.00873152336024        0.09975727417444
C           -2.16755929063951        2.26375113723544        0.04738437723527
C           -1.88355642674272       -0.28036046106355        0.02305904516000
O           -3.06464860964217       -0.55141430420302       -0.02073555699594
N           -0.96202435445960       -1.38304650685725       -0.00799390824424
C           -1.40868287981845       -2.76958271884400       -0.01405804150952
H            3.62602015720960        1.28395625813654        0.98912265222375
H            3.92757890473391        1.06186357009511       -0.75003549443777
H            2.57238045736798        2.08746239537729       -0.19644425149921
H            3.57378357511445       -1.64490742372741        0.02341461875671
H           -1.84474900193152        3.67450115528586        0.56693319960261
H           -1.77889484341819        2.86052615310187       -0.71178589763405
H           -3.21354417995662        1.89054076044234       -0.10622971226085
H           -1.07145336547641       -3.29210983512711        0.88862537749484
H           -1.02072906029859       -3.30495138319258       -0.88811543766008
H           -2.49474164660107       -2.79205190779609       -0.04544614673285
H            1.39974989073645       -2.98950759504599        0.02387088494528
25
 energy: 63.178848357706 xtb: 6.6.1 (8d0f1dd)
C            3.15125448778457        1.18924337612262        0.00853873908316
N            2.25353131413187        0.08230696427963       -0.01864570107655
C            2.58695950540292       -1.25625012982751        0.02019898228533
N            1.41893333178441       -1.98425702261520        0.01982621865920
C            0.37522029942057       -1.13051028573233        0.00346468603863
C            0.86304400792512        0.16741562091784       -0.01086178590280
C            0.03506322144324        1.30509465901489       -0.01909107706703
O            0.38561867783451        2.48869727354737       -0.09696760617904
N           -1.35768768601899        1.00595041824451        0.09127379078315
C           -2.17179241937769        2.25993601811983        0.04283119583110
C           -1.88357780930112       -0.28398431525297        0.01793550313924
O           -3.06563562699689       -0.55533636401201       -0.02610004604921
N           -0.96239455929197       -1.38547496072339       -0.00936589372979
C           -1.40751513855565       -2.77211035894503       -0.01385487777434
H            3.62565084323057        1.28598155297326        0.99010560070272
H            3.92692524942549        1.06300864271897       -0.74913022367680
H            2.57158804624786        2.08860602869255       -0.19591558947602
H            3.57514865259188       -1.64612382111370        0.02590469451580
H           -1.84431434503556        3.68144210225395        0.55988001723868
H           -1.78530191921024        2.87584775851520       -0.71580796162686
H           -3.19353388069166        1.89718606264116       -0.08009850384022
H           -1.06992877796867       -3.29361898680041        0.88937761666238
H           -1.01968252770851       -3.30884164899207       -0.88732649559344
H           -2.49387190463332       -2.79487800318596       -0.04479889878990
H            1.39851362550349       -2.99030197866944        0.02566151198985
25
 energy: 67.089274142863 xtb: 6.6.1 (8d0f1dd)
C            3.15177125013826        1.18932115439384        0.00780464517378
N            2.25274052424709        0.08384809608839       -0.01884300712151
C            2.58809525102846       -1.25593356696690        0.01948547130622
N            1.41956063470485       -1.98459580037520        0.01881170900852
C            0.37605797332353       -1.13078214095721        0.00366726193860
C            0.86194199944257        0.16740119351453       -0.01056449733796
C            0.03188881875451        1.30357555492927       -0.01764629030802
O            0.38441792582780        2.48787486708726       -0.09305310350510
N           -1.35964910055365        1.00107282409237        0.09518305465408
C           -2.17661371981440        2.24997789278593        0.03374561786068
C           -1.88259827559511       -0.28882729253938        0.02012241887130
O           -3.06596298375792       -0.55766365559603       -0.02567758791768
N           -0.96192900608070       -1.38806911102510       -0.00769618306535
C           -1.40757155454343       -2.77379222170892       -0.01316265516287
H            3.62720649124367        1.28527962027941        0.98904294800137
H            3.92682330145507        1.06230771113718       -0.75052735750127
H            2.57289249128264        2.08928371795862       -0.19597771810330
H            3.57565488421432       -1.64630838076435        0.02392009630190
H           -1.85719852113624        3.71265840873677        0.55852465087877
H           -1.75981317258442        2.87929351806971       -0.69805548240776
H           -3.19681343736777        1.89388670900011       -0.09560179987059
H           -1.06980434002449       -3.29581672160432        0.88955026979938
H           -1.02161010240627       -3.31043465543901       -0.88759002838873
H           -2.49455154677817       -2.79407988944773       -0.04289986683239
H            1.39727888291602       -2.99044922947742        0.02447132987515
25
 energy: 71.261713161399 xtb: 6.6.1 (8d0f1dd)
C            3.15186334837332        1.18914558316573        0.00761001908474
N            2.25203312918556        0.08455267148179       -0.01851168133037
C            2.58887442207730       -1.25616145472114        0.01989041621008
N            1.42021187601747       -1.98517604773470        0.01874825465870
C            0.37676163589458       -1.13175088167501        0.00338970645379
C            0.86105754748666        0.16674186902127       -0.01125435548270
C            0.02986011997108        1.30179054493139       -0.01981995467426
O            0.38380592738679        2.48623988645075       -0.09301215757313
N           -1.36145443725060        0.99729965414768        0.09284329171315
C           -2.17970326357027        2.24069487519962        0.02636595973932
C           -1.88167655206643       -0.29336075951509        0.01923652596949
O           -3.06572703437425       -0.56083548509029       -0.02661454580614
N           -0.96157973680850       -1.39048605312888       -0.00726314777719
C           -1.40744959446855       -2.77556453247325       -0.01253150696816
H            3.62763323564331        1.28509461264876        0.98873159479860
H            3.92677039306350        1.06154411547166       -0.75084463405387
H            2.57358698428032        2.08952317328074       -0.19621545713857
H            3.57622071469282       -1.64624920302069        0.02402291036195
H           -1.86672380175640        3.74779427445949        0.55818817837478
H           -1.74436361896860        2.88598850684351       -0.67887023249693
H           -3.19792168126226        1.88709927817737       -0.10346366949085
H           -1.07000458828583       -3.29721672570877        0.89041144669183
H           -1.02246294087424       -3.31251316621950       -0.88719185855288
H           -2.49464234570031       -2.79418769924540       -0.04194601731616
H            1.39724492924974       -2.99097843457531        0.02513481075199
25
 energy: 76.113813660447 xtb: 6.6.1 (8d0f1dd)
C            3.15199647839319        1.18867852793376        0.00743976043224
N            2.25144612332396        0.08473670270538       -0.01795747487500
C            2.58947931902835       -1.25638686015889        0.02036490121173
N            1.42123582089437       -1.98596811213035        0.01876741275030
C            0.37750211895754       -1.13317976404759        0.00338059491645
C            0.86021825189403        0.16569828670850       -0.01165046564244
C            0.02781264663816        1.29955020228362       -0.02217534038772
O            0.38324498601106        2.48375848225798       -0.09348563896109
N           -1.36329830071447        0.99289120791327        0.08923726718384
C           -2.18370143231612        2.22855432150166        0.01757958922932
C           -1.88061008778743       -0.29884802956936        0.01892778200806
O           -3.06508415134114       -0.56514221728606       -0.02765097080922
N           -0.96093480242109       -1.39344394129504       -0.00653161848209
C           -1.40717994004535       -2.77787403422160       -0.01196194124094
H            3.62812308987059        1.28471458957081        0.98838662257057
H            3.92669301356058        1.06058023784141       -0.75117749210669
H            2.57421185383430        2.08944353483465       -0.19642700201485
H            3.57673343905156       -1.64615625355607        0.02421439540241
H           -1.87956593028526        3.79368487571065        0.55754308777136
H           -1.72783901687739        2.89503548831016       -0.65450524003950
H           -3.19812145411856        1.87932201665499       -0.11445756188027
H           -1.07012360930382       -3.29914096727127        0.89118370324888
H           -1.02322267878786       -3.31505455622706       -0.88686436697805
H           -2.49461602251005       -2.79468410867503       -0.04092434021487
H            1.39781495298711       -2.99174102761678        0.02577823305479
25
 energy: 81.867603596094 xtb: 6.6.1 (8d0f1dd)
C            3.15205465579567        1.18791760560136        0.00727232097901
N            2.25074140303906        0.08447822396356       -0.01718851509486
C            2.59005413661133       -1.25650770011322        0.02110544230609
N            1.42285131176618       -1.98719349740339        0.01907745428057
C            0.37842024934143       -1.13530085436980        0.00330868724634
C            0.85918804789268        0.16400108168651       -0.01240546951017
C            0.02509828720180        1.29645388305244       -0.02594209271575
O            0.38278902054713        2.47971406994279       -0.09440528579280
N           -1.36530469812400        0.98693072837520        0.08306805737379
C           -2.18870907958412        2.21184071896569        0.00691156694372
C           -1.87895856462983       -0.30612466722326        0.01741375624247
O           -3.06377705399223       -0.57113730113686       -0.02953123211235
N           -0.95968417282391       -1.39757078759049       -0.00581051407590
C           -1.40672279756051       -2.78108667495312       -0.01104413392029
H            3.62847209295446        1.28417732388797        0.98802331989784
H            3.92660595934461        1.05918730816991       -0.75140472303152
H            2.57485850778618        2.08911954006671       -0.19680032331149
H            3.57726003188811       -1.64592584013064        0.02491068024331
H           -1.89923358573393        3.85846392335493        0.55669266005859
H           -1.70715211108459        2.90827287593384       -0.61908234239398
H           -3.19636637305588        1.86765270165327       -0.13087137457450
H           -1.07046488200126       -3.30162163755796        0.89256486726989
H           -1.02422400364211       -3.31872431682841       -0.88615728930893
H           -2.49450633228107       -2.79504737249154       -0.03958147428173
H            1.39892461828106       -2.99294073268373        0.02690985342990
25