25
 energy: -43.833744902237 gnorm: 0.109884803586 xtb: 6.6.1 (8d0f1dd)
C            3.24426756187713        1.16574243974692        0.08755820291646
N            2.30558301009323        0.08063763185096        0.03930760391945
C            2.58875386980997       -1.22141856516568        0.03190302336347
N            1.43880765961077       -1.94045423595880        0.00107016409841
C            0.39637000215204       -1.06107243259055       -0.01204499103624
C            0.93591462390538        0.21446376500493        0.00833169315486
C            0.09714306616241        1.39802342327778       -0.01421752378680
O            0.50155191565937        2.54793902857024       -0.01379985701295
N           -1.27171112648591        1.05337773523492       -0.02382861507777
C           -2.24366490129866        2.15820542751668       -0.02083616591330
C           -1.81785089802358       -0.20478691570099       -0.05722085907029
O           -3.00754472149640       -0.38855452626975       -0.08434854184400
N           -0.92499109516749       -1.30537122709360       -0.04548891694089
C           -1.46468016795536       -2.64936401661732       -0.06452487571535
H            3.72362288954229        1.20784361351802        1.06774689087482
H            4.01343384749679        1.03521988006086       -0.67461724522018
H            2.70498060125316        2.09597310507771       -0.08141110864274
H            3.57301779279184       -1.64464537335199        0.04785888713018
H           -1.66601407002158        3.08292432525428       -0.07488555245592
H           -2.86905326411131        2.06741471374312       -0.90380608624856
H           -2.92495296983952        2.18135760114831        0.83954935010937
H           -1.16254406419566       -3.19727766631894        0.82899769150187
H           -1.13887872962871       -3.18032867366261       -0.95944652183890
H           -2.55037610177172       -2.56168900860913       -0.07836462213534
H            1.37910563049303       -2.95019610557868       -0.01082228506432
25
 energy: -43.837901429039 gnorm: 0.039907186675 xtb: 6.6.1 (8d0f1dd)
C            3.24793998979055        1.17556827343621        0.08934966987578
N            2.30879647698506        0.09796014273371        0.03690483242529
C            2.60014796408447       -1.23454985868514        0.03147004796437
N            1.42608265733992       -1.94062664224998        0.00097043082062
C            0.39704846623837       -1.05635996016631       -0.01106875833007
C            0.92707223240886        0.22482078065332        0.01045312063372
C            0.09867780337574        1.39203289683998       -0.00612971192876
O            0.49140851869816        2.56165277184033       -0.01420539396773
N           -1.27825770658879        1.04681774096309       -0.01769584656319
C           -2.23478102324317        2.15102401221400       -0.03798466225174
C           -1.82653315665617       -0.20390651839480       -0.04864623121571
O           -3.02348774802684       -0.39372432601218       -0.08352721351448
N           -0.93510735965309       -1.30204340175732       -0.04352246966442
C           -1.46760680466259       -2.64531611830198       -0.06500825935074
H            3.73128085886446        1.21564327643281        1.06986581144208
H            4.01462221128241        1.04440705809839       -0.67680686413668
H            2.70292399773690        2.10212222201249       -0.07898368624973
H            3.57783802392614       -1.66179180865904        0.04718974362223
H           -1.65383261718217        3.07183184977058       -0.07312355296979
H           -2.86967719067045        2.06685674966617       -0.91933525485356
H           -2.88096606939139        2.14610318227722        0.84378424833166
H           -1.16108207699266       -3.19475016830399        0.82762907901640
H           -1.13767475979481       -3.17732137929069       -0.95972942711307
H           -2.55309112807168       -2.55758081601337       -0.07842903824573
H            1.35854880105426       -2.94490601601680       -0.01076087471141
25
 energy: -43.838732121337 gnorm: 0.018446105092 xtb: 6.6.1 (8d0f1dd)
C            3.24883269728956        1.17098130960233        0.08855004572813
N            2.30804438160777        0.10448210679817        0.03219328406423
C            2.61029703364077       -1.24184830957451        0.03293695524384
N            1.42714840976413       -1.94452977464383        0.00037449037881
C            0.40383067122690       -1.06139758684968       -0.01518918173384
C            0.92064758767674        0.22544387113650        0.00476547974241
C            0.10523801829079        1.38352412453760       -0.00958768477671
O            0.49677989395916        2.55967374834112       -0.01495289015487
N           -1.28328088384979        1.05174184844048       -0.00908508093460
C           -2.24281059938540        2.15818150481805       -0.02824667390426
C           -1.82087321171195       -0.19925110690730       -0.05319332269273
O           -3.01952276647150       -0.39518494447713       -0.08555511395957
N           -0.93513277677356       -1.30211770841137       -0.04852339105369
C           -1.46414778795027       -2.64595368045103       -0.06505232788291
H            3.72594766606007        1.20686956545911        1.07248244549654
H            4.01811987368796        1.03058606282023       -0.67391724079509
H            2.70620726101332        2.09692509253222       -0.08548744420310
H            3.58609923315288       -1.65653665311311        0.05073254792243
H           -1.67395129627175        3.08470536363552       -0.06875179933733
H           -2.87367035910656        2.06996537754542       -0.91024212631023
H           -2.91076409993291        2.17551200268483        0.83670434101261
H           -1.15893391317483       -3.19590146879382        0.82904918981478
H           -1.13461046981020       -3.18371598273429       -0.95764377611253
H           -2.54927276818903       -2.56093694787619       -0.07918828372206
H            1.37006856610920       -2.94725387143261       -0.01051270276495
25
 energy: -43.838963352284 gnorm: 0.009412390601 xtb: 6.6.1 (8d0f1dd)
C            3.24378921351187        1.17266224191582        0.08982202544229
N            2.30424001195333        0.10377278711319        0.03607114249658
C            2.60535858382036       -1.23964395704977        0.03371662071421
N            1.42539079070966       -1.94346154004527        0.00326323341139
C            0.40253962713903       -1.06397436916274       -0.01004828183655
C            0.91868470418452        0.22340156122620        0.00916803320044
C            0.10795494268540        1.38164126072010       -0.01216595093057
O            0.49600322799820        2.55568093239618       -0.01641443247912
N           -1.28051808118507        1.04990640753708       -0.01510034459510
C           -2.23616987781567        2.15517863286542       -0.02922010256672
C           -1.81764098554996       -0.20012666490113       -0.05483234312357
O           -3.01504041716103       -0.39462267795572       -0.08636291224670
N           -0.93557421000550       -1.30361613824617       -0.04472406209694
C           -1.46839491562388       -2.64549432101283       -0.06433826468222
H            3.72910911482788        1.21151294621657        1.06901046729434
H            4.00912317882974        1.04342799616104       -0.67817765989494
H            2.69987369515131        2.09977424718602       -0.07522738616448
H            3.58114363785016       -1.64985202632426        0.04448170417250
H           -1.65581571135114        3.07516380277121       -0.07542139836296
H           -2.86747951699913        2.06651588429909       -0.91048766052868
H           -2.90090178457044        2.16907675829545        0.84045280566580
H           -1.16477274976570       -3.19861827467792        0.82809554766598
H           -1.14136407915657       -3.17852704346444       -0.96028436456778
H           -2.55361936886215       -2.55831330549311       -0.07785903381031
H            1.37437133023630       -2.94750119728331       -0.01075764311157
25
 energy: -43.838968791647 gnorm: 0.007868476042 xtb: 6.6.1 (8d0f1dd)
C            3.24936367731807        1.16796087579831        0.08830928234672
N            2.30475330626215        0.10172958281046        0.03496337535720
C            2.60004066217881       -1.23967775714279        0.03483414418470
N            1.42078690579750       -1.93989558691008        0.00125848494524
C            0.40040916035093       -1.06009538353168       -0.01201820163802
C            0.91950341647302        0.22665198957412        0.00836915992154
C            0.10689799684306        1.38635955992270       -0.01057103419712
O            0.49033164548006        2.55942790416320       -0.01276801115151
N           -1.28246463991421        1.05210098418057       -0.01796628119600
C           -2.24045972192515        2.15340489042444       -0.03104264881847
C           -1.81926233962281       -0.19849414981622       -0.05383910303198
O           -3.01608606400214       -0.39333640380629       -0.08411871317655
N           -0.93620364399859       -1.30016358168388       -0.04538893981676
C           -1.46471190695012       -2.64379983965513       -0.06455579907941
H            3.72971311523941        1.21143336563590        1.06969274415350
H            4.02002292374802        1.03422267401541       -0.67371230809522
H            2.71219514092571        2.09815500694568       -0.08474839767021
H            3.57531484302616       -1.65355730722882        0.04874446509729
H           -1.66274924476661        3.07595182651117       -0.07149177997263
H           -2.87220326614909        2.06693713320976       -0.91306799826091
H           -2.90113718713486        2.15464445045346        0.84238928565219
H           -1.15776783411208       -3.19289593640067        0.82881319451297
H           -1.13431125657107       -3.17686880396670       -0.95912373306775
H           -2.55042514477352       -2.56135546294457       -0.07843238304299
H            1.36873981712887       -2.94487608747163       -0.01186906489049
25
 energy: -43.839079622748 gnorm: 0.003394776596 xtb: 6.6.1 (8d0f1dd)
C            3.24651365536226        1.17012151755551        0.08904591395736
N            2.30652440145721        0.10096760506405        0.03354235497808
C            2.60411272025875       -1.24125704428599        0.03276428561138
N            1.42387089929494       -1.94174445157116        0.00014452388890
C            0.40224238829831       -1.06252106872290       -0.01292545020430
C            0.92047759367319        0.22482760891289        0.00816178204947
C            0.10829093570014        1.38454962799930       -0.00832519013981
O            0.49244202613893        2.55813533539648       -0.01378903103986
N           -1.28278659096156        1.05140107762879       -0.01401996108661
C           -2.23890894489387        2.15603250468612       -0.03193786443333
C           -1.81955288796302       -0.19977836256433       -0.05055876426376
O           -3.01702971470860       -0.39508484118956       -0.08286375221550
N           -0.93564122008032       -1.30191990506884       -0.04536346730153
C           -1.46557939793120       -2.64543679436980       -0.06495454244378
H            3.72686825750411        1.21106443704206        1.07088683141376
H            4.01553951958806        1.03954365381690       -0.67523506643200
H            2.70335146398994        2.09789576590979       -0.08094925857210
H            3.58082952179902       -1.65469615333980        0.04743758192471
H           -1.66310332146007        3.07941497795045       -0.07305266884600
H           -2.87082324978474        2.06954118400643       -0.91391456133086
H           -2.90105096436534        2.16649215303066        0.83916693238558
H           -1.16066288659265       -3.19589699928889        0.82834228958733
H           -1.13683626235638       -3.18095364966767       -0.95883079818927
H           -2.55105104774349       -2.56004578650184       -0.07890567030909
H            1.37225346662791       -2.94668844934198       -0.01120670992343
25
 energy: -43.839071877269 gnorm: 0.003408549992 xtb: 6.6.1 (8d0f1dd)
C            3.24688793101135        1.17078562501036        0.08890092642367
N            2.30658905954706        0.10221593815922        0.03483767977997
C            2.60470458527306       -1.24057538813637        0.03504895420879
N            1.42421903995472       -1.94139282333250        0.00308408978663
C            0.40246926517221       -1.06269809887072       -0.01206173784437
C            0.92006853731513        0.22527577228406        0.00775083355063
C            0.10939097872639        1.38421905432518       -0.01197661449463
O            0.49332114278400        2.55824035117471       -0.01700876953720
N           -1.28265963299960        1.05079293642988       -0.01585499513187
C           -2.23906432748775        2.15450018616612       -0.02855417021683
C           -1.81924167441274       -0.19985078559495       -0.05577188064854
O           -3.01689144861117       -0.39502072387493       -0.08878443479691
N           -0.93585018805500       -1.30198252219712       -0.04659470816430
C           -1.46701405591101       -2.64491643810297       -0.06497235820206
H            3.73014419623887        1.21054789120516        1.06941127087145
H            4.01357345630703        1.03751308434893       -0.67720537551518
H            2.70510803320589        2.09944561474414       -0.08012822502514
H            3.58168707369182       -1.65246998714973        0.04862101354912
H           -1.66276289906403        3.07733352941665       -0.07060435721873
H           -2.87164224276188        2.06732086358196       -0.90951928497346
H           -2.90185971767746        2.16527647150109        0.84233023144150
H           -1.16282299223996       -3.19619219068808        0.82827444392101
H           -1.13891527224584       -3.17960860764881       -0.95948961198229
H           -2.55244414841793       -2.55851213874084       -0.07869928185184
H            1.37329566150832       -2.94628367092375       -0.00837389886409
25
 energy: -43.839092107438 gnorm: 0.001704376339 xtb: 6.6.1 (8d0f1dd)
C            3.24669444860358        1.17027120571264        0.08950877743790
N            2.30602028972965        0.10184238364109        0.03474037149528
C            2.60336386068646       -1.24068385994672        0.03356659011940
N            1.42315234812416       -1.94118597549945        0.00093072399335
C            0.40177216882500       -1.06244076307847       -0.01183265269060
C            0.91958514009955        0.22546395396962        0.00854017757955
C            0.10942656888380        1.38458831767312       -0.00999720290781
O            0.49292292112979        2.55838626694000       -0.01432030591322
N           -1.28283738273119        1.05104162197321       -0.01470281073468
C           -2.23879892308691        2.15474392378604       -0.03057015165790
C           -1.81942308928514       -0.19954029535140       -0.05304330001254
O           -3.01695090884882       -0.39446603362957       -0.08459921866146
N           -0.93622064050793       -1.30167058580624       -0.04512556637646
C           -1.46606883818742       -2.64507952766652       -0.06419714868568
H            3.72857017178715        1.21058368937173        1.07056550264236
H            4.01481290320698        1.03764395925292       -0.67527935569330
H            2.70543649678499        2.09896960284324       -0.08034356345136
H            3.58009716435964       -1.65270998783335        0.04592337318200
H           -1.66151409183165        3.07706064288636       -0.07341350740267
H           -2.86979776826676        2.06680011811234       -0.91262312690553
H           -2.90286845306069        2.16570781039550        0.83944681703574
H           -1.16039634712791       -3.19621463282443        0.82860508711003
H           -1.13723400493538       -3.17853679277234       -0.95916787817643
H           -2.55161268809964       -2.56043793539131       -0.07760792922641
H            1.37215901460018       -2.94617316367131       -0.01234396303424
25
 energy: -43.839069396247 gnorm: 0.003419619328 xtb: 6.6.1 (8d0f1dd)
C            3.24626028595437        1.17005901052545        0.08780023811276
N            2.30657586802820        0.10035987202839        0.03316629598517
C            2.60327686540676       -1.24151888554110        0.03448007990604
N            1.42360438402207       -1.94177527760056        0.00166621012470
C            0.40211771085210       -1.06300056195318       -0.01312133676477
C            0.92023044616692        0.22478331812103        0.00736108036228
C            0.10954978501032        1.38465327278506       -0.00982400609809
O            0.49241820613277        2.55805039492258       -0.01412310818110
N           -1.28294906920271        1.05132318753765       -0.01531232730812
C           -2.23860254038964        2.15584910926168       -0.03082371251538
C           -1.81908434899367       -0.19977303659723       -0.05184217056738
O           -3.01637184576039       -0.39501583952381       -0.08283338607677
N           -0.93554506645804       -1.30188934833255       -0.04629803818309
C           -1.46559049790105       -2.64539380382613       -0.06600616628633
H            3.72593575922830        1.21263948605106        1.06977389256015
H            4.01627993661385        1.04024017513941       -0.67568257574188
H            2.70278401021430        2.09724114756619       -0.08323990729673
H            3.58001405861480       -1.65447327590265        0.05044901085496
H           -1.66273286827485        3.07940854724204       -0.07148268122583
H           -2.87192320646165        2.07150193227976       -0.91209753485916
H           -2.89952995402772        2.16387547317603        0.84158416835904
H           -1.16170944178250       -3.19508494585842        0.82804341184963
H           -1.13612251822529       -3.18145348989841       -0.95929711698618
H           -2.55098588927521       -2.55965460644039       -0.08131599724483
H            1.37239029135947       -2.94698791207522       -0.00836458371376
25
 energy: -43.839093586620 gnorm: 0.001469110500 xtb: 6.6.1 (8d0f1dd)
C            3.24693863905652        1.17008137841260        0.08879695153651
N            2.30673312127788        0.10099982863830        0.03385420753678
C            2.60365553683124       -1.24108875766995        0.03383061172258
N            1.42381498391787       -1.94139610335818        0.00134694881026
C            0.40220832160735       -1.06273752828585       -0.01263504276178
C            0.92015150661659        0.22521731605128        0.00796633722156
C            0.10952766502494        1.38473781351150       -0.00979367377210
O            0.49224949417966        2.55839558053953       -0.01470066422013
N           -1.28315503411188        1.05116015015122       -0.01517993705570
C           -2.23913085807285        2.15524846311136       -0.03085916889286
C           -1.81924006198013       -0.19979413936759       -0.05259327294344
O           -3.01660531858270       -0.39512534165955       -0.08485737934411
N           -0.93564350335779       -1.30177256197646       -0.04591216668567
C           -1.46604446980377       -2.64512554057524       -0.06506585942410
H            3.72834484979593        1.21076341698056        1.07007701299607
H            4.01545905548933        1.03922278913676       -0.67597642883066
H            2.70448214184489        2.09816257100988       -0.08062710618019
H            3.58053545816278       -1.65372574751350        0.04818521503186
H           -1.66327900078913        3.07867053143005       -0.07213750000258
H           -2.87174714969846        2.06929379070947       -0.91232894122089
H           -2.90107191607731        2.16453820337799        0.84073073810833
H           -1.16147678474678       -3.19546646022076        0.82843109638389
H           -1.13761448974572       -3.18059418058931       -0.95903941243054
H           -2.55146805496465       -2.55918425518851       -0.07904045188786
H            1.37266622897769       -2.94651727356890       -0.00981237462990
25
 energy: -43.832560604422 gnorm: 0.081518930911 xtb: 6.6.1 (8d0f1dd)
C            3.25119993817491        1.16499300121201        0.09074198350482
N            2.31254512475870        0.08552529862943        0.03862258214078
C            2.59710582098699       -1.22860311951116        0.03391090429124
N            1.43952508283258       -1.94667861988517        0.00121528656883
C            0.40224237709582       -1.06330446662743       -0.01631503234169
C            0.93579535560750        0.21525686183614       -0.00041061978477
C            0.09964960546577        1.39045935288552       -0.02371389124333
O            0.50457990588324        2.55120126131340       -0.02462901214553
N           -1.29196695812223        1.05350126275939       -0.01142450525375
C           -2.26848398547910        2.16584574218248        0.00664602068909
C           -1.81799417118568       -0.20863426518512       -0.06771096677275
O           -3.01167329427424       -0.39837285079103       -0.09906888943043
N           -0.92374022034747       -1.30801103461507       -0.05424242868828
C           -1.45950646042877       -2.65219378804001       -0.06876792757217
H            3.73462653621185        1.20073991476544        1.07029098297891
H            4.01895382949882        1.03609113623678       -0.67568183832245
H            2.71096733739787        2.09420383800006       -0.07160089686503
H            3.57929871160685       -1.65225622805221        0.05364228588887
H           -1.66358089059098        3.07608256836622       -0.12482458806147
H           -2.91444958296136        2.03917910214433       -0.85595662605422
H           -2.96994150112673        2.28625149300128        0.86521561290448
H           -1.15446034699277       -3.19849175317638        0.82555755465242
H           -1.13216205216301       -3.18554235020075       -0.96202634100501
H           -2.54527680215264       -2.56681149674286       -0.08212091332223
H            1.37960363699667       -2.95639033032369       -0.00691314142549
25
 energy: -43.835201822091 gnorm: 0.036310508473 xtb: 6.6.1 (8d0f1dd)
C            3.25182287317081        1.17335269650540        0.09175257139614
N            2.30981719971234        0.10010134487368        0.03599551970020
C            2.60142373071952       -1.23652423713373        0.03308742678331
N            1.42554535234676       -1.94175762815446        0.00120059666874
C            0.39842593680299       -1.05713597815131       -0.01363282066904
C            0.92391726798839        0.22626029075873        0.00614199367037
C            0.09637203942791        1.38803434851923       -0.00642217126026
O            0.48599586153728        2.56060564465878       -0.02456948871803
N           -1.29484184600149        1.04812847711184       -0.00016650707235
C           -2.25013107252717        2.15802761391378       -0.02764189468426
C           -1.82851373997164       -0.20658930317270       -0.04923986536493
O           -3.02526668234126       -0.40300566026312       -0.09750847240763
N           -0.93532862426993       -1.30265988996263       -0.04974063986542
C           -1.46333346821279       -2.64727215501928       -0.06985324180882
H            3.73991368852238        1.20735850814391        1.07072479173434
H            4.01730477688793        1.04546354273155       -0.67733845181537
H            2.70879249267251        2.10180753277665       -0.06966258774605
H            3.57873107521473       -1.66369928319343        0.05187574627533
H           -1.65542541469590        3.06937070042463       -0.12185595898634
H           -2.91321322488256        2.04025155544636       -0.88413534023272
H           -2.88420729761354        2.21914284857352        0.87126888885035
H           -1.15388569429788       -3.19497546775258        0.82327545478845
H           -1.13211843187983       -3.18070505748003       -0.96348768250401
H           -2.54900002131705       -2.56309268799083       -0.08229899575080
H            1.36006021970007       -2.94644722598238       -0.00733327565034
25
 energy: -43.836777539217 gnorm: 0.013432130229 xtb: 6.6.1 (8d0f1dd)
C            3.25497317919163        1.16834228520075        0.09154623467156
N            2.31105686681882        0.10106223791793        0.03127687421760
C            2.60935063261593       -1.24282805709691        0.03415970553684
N            1.42837851405720       -1.94514907861947       -0.00007248364304
C            0.40413256351885       -1.06125936826526       -0.02011340472806
C            0.92181142390463        0.22558429924376       -0.00201784218199
C            0.09972159302658        1.38359759510380       -0.01284278484116
O            0.49067107588296        2.55715537246954       -0.02632457386741
N           -1.29806965162340        1.05358774021556        0.01041397112320
C           -2.26004014405942        2.16403737680802       -0.01226545247867
C           -1.82520133659704       -0.20228997020974       -0.05644064423333
O           -3.02171029995694       -0.40485000665769       -0.09974141416548
N           -0.93374197667992       -1.30158614907853       -0.05722219848186
C           -1.45931273039260       -2.64741420437614       -0.06986574801097
H            3.73773497819172        1.20105808381588        1.07337910060509
H            4.02312829528586        1.03551363714170       -0.67407571074188
H            2.71307302523749        2.09652894793583       -0.07437132602934
H            3.58608815967298       -1.66332887612561        0.05668225096456
H           -1.67399683041177        3.07533760053839       -0.11614621612968
H           -2.91824766880066        2.03952543335459       -0.86874690171784
H           -2.92173107859081        2.25677680992256        0.85799443514209
H           -1.15109663687483       -3.19369742136686        0.82552519117915
H           -1.12827847572678       -3.18711915726802       -0.96046237350204
H           -2.54475148876805       -2.56523627118543       -0.08318940720769
H            1.36891500777016       -2.94930832923706       -0.00664368614881
25
 energy: -43.836756464135 gnorm: 0.009663515303 xtb: 6.6.1 (8d0f1dd)
C            3.24845611278732        1.17132247403992        0.09251428039428
N            2.30792331854275        0.10169128446297        0.03618978922784
C            2.60846230753267       -1.24206092504434        0.03642264017929
N            1.42876475318200       -1.94648498715267        0.00523795616787
C            0.40502850680069       -1.06633656893342       -0.01312500713090
C            0.91956146793631        0.22246168903702        0.00220151773385
C            0.10446239347460        1.38054591141484       -0.01863810237921
O            0.49578120932599        2.55307578362788       -0.02770084838485
N           -1.29521918768040        1.05282408044875        0.00287488209271
C           -2.25500530416463        2.16402031451719       -0.00779073482586
C           -1.82130212931838       -0.20264992560853       -0.06285465372106
O           -3.01726588898285       -0.40466820013994       -0.10314584709770
N           -0.93372966954065       -1.30443999106156       -0.05313585810054
C           -1.46377275692583       -2.64852953190520       -0.06870975179379
H            3.73836736856022        1.20614750898713        1.07017892282062
H            4.01103149920805        1.04613778887174       -0.67978570335346
H            2.70287830092245        2.09888025841424       -0.06576547530176
H            3.58543351235287       -1.65522332659786        0.04886536590611
H           -1.65551224144721        3.06701214049455       -0.12382154761779
H           -2.91098299861113        2.04028418574003       -0.86563037474671
H           -2.92345807789051        2.25982616183422        0.86340245490929
H           -1.15817443137379       -3.20118084798395        0.82381438322129
H           -1.13599751185548       -3.18284114187544       -0.96354201165309
H           -2.54924530140184       -2.56400096803043       -0.08163159148798
H            1.37637174525936       -2.95177263737553       -0.00598908972760
25
 energy: -43.836935620175 gnorm: 0.005105312781 xtb: 6.6.1 (8d0f1dd)
C            3.25408240774661        1.16705853830136        0.09179779726414
N            2.30830897611047        0.10191757744040        0.03427753558924
C            2.60557437118057       -1.24239157091466        0.03641146580860
N            1.42505126527833       -1.94392601691472        0.00183651608407
C            0.40400846955825       -1.06307962032761       -0.01558277696024
C            0.91935564806867        0.22582087949456        0.00103161583449
C            0.10356053659683        1.38378940114797       -0.01672121598172
O            0.49185280947091        2.55703180290009       -0.02486073913524
N           -1.29730297324162        1.05477007804883        0.00162706930778
C           -2.25986752147557        2.16296454506933       -0.01038455897453
C           -1.82259265266284       -0.20094894326519       -0.06030944167356
O           -3.01847403759360       -0.40385706142645       -0.09917046597824
N           -0.93430151431206       -1.30157374145940       -0.05360532334176
C           -1.46040716843886       -2.64696738679525       -0.06855268159437
H            3.73886101653277        1.20210078845443        1.07190480644077
H            4.02142448744659        1.03600701358499       -0.67496030849954
H            2.71545103100405        2.09761106397713       -0.07265815496540
H            3.58143892192419       -1.65737031926980        0.05244232110897
H           -1.66527268547553        3.07080470009960       -0.12204982458171
H           -2.91566605165771        2.03889485155604       -0.86929923848477