72
 energy: -99.246018500884 gnorm: 0.499470003002 xtb: 6.6.1 (8d0f1dd)
N           -0.62467721671654        1.41600193517004        1.56970588753605
C           -1.46948559329689        2.25448716774266        1.15659138619345
C           -2.62030304194479        1.92389978457773        0.24795168308061
C           -3.14795301410443        0.50150581769460        0.35002425350473
C           -4.05273091795208        0.05661663280834       -0.62015648523875
C           -4.62554462409362       -1.20259013777320       -0.56155106481368
O           -5.49436746899418       -1.70777894462879       -1.46246820587090
C           -5.92737870681552       -0.90379077411603       -2.53384699880136
C           -4.30330095331772       -2.06822328850118        0.51871993236621
O           -4.90927457368445       -3.27158871573324        0.49831094639240
C           -4.71525558495270       -4.15553968302846        1.57762083735544
C           -3.41887354877746       -1.61706788923442        1.48509872937767
C           -2.85287970976695       -0.35097458280643        1.40256942001057
C           -2.13366566873478        2.24255312372754       -1.19280326733809
C           -1.36118252700712        1.11746804296450       -1.93407525452798
C           -0.02672186577982        0.77389872256905       -1.40554943308163
N            0.12573860992576       -0.27505103597893       -0.38390372963972
C            1.53677554943745       -0.43186884940176       -0.05863106265398
C            2.49480907770740       -0.78509893036381       -1.13265023695824
C            3.88834830443263       -0.35249450960869       -0.75073371539376
C            4.28552285954014        0.96679994336426       -0.90715348958491
C            5.56000728753588        1.37166166410399       -0.54324350898674
C            6.46421810112423        0.46526054521350       -0.00554324515291
O            7.72173128193712        0.74400590592931        0.38247691587533
C            8.21241954927163        2.05776792793117        0.24830588300423
C            6.06278925392537       -0.88939368994552        0.16423410375551
O            6.99766240442875       -1.70359324084651        0.68987082414026
C            6.69773063884315       -3.06607105212280        0.88039095052321
C            4.78268895943523       -1.27045746603057       -0.21052296316164
C           -0.46774343946402       -1.57497733688677       -0.83012595891211
C           -3.82197046071349        2.86153219381078        0.61209468100780
C           -4.19822217843776        2.68799984194438        2.08372063304288
C           -3.60367235250572        4.34301145998873        0.30702405950301
H           -4.32836123164155        0.71376063654117       -1.42829995915750
H           -6.43841538288481       -0.00326393557160       -2.18005120741047
H           -6.62991367918393       -1.51825220261902       -3.09328539926553
H           -5.09604975039009       -0.62120779120282       -3.18812109218533
H           -5.02918651697714       -3.70687190106682        2.52461574162600
H           -5.34063525173183       -5.01978717143975        1.36306853305276
H           -3.67069007744298       -4.47417448248941        1.65252798454608
H           -3.16904339158203       -2.24171937738745        2.32703557199186
H           -2.18014582737916       -0.03842431925082        2.18312994518770
H           -3.00063367561346        2.48733862271195       -1.80711932614836
H           -1.49561341656080        3.12666968577397       -1.15923764738772
H           -1.99305503790645        0.23399480801096       -2.00255979758855
H           -1.21629221885722        1.49838576675891       -2.95092922373470
H           -1.39749738623347        3.32065361105009        1.38791654436171
H            0.70306023169612        1.55911298437263       -1.30358398925467
H            1.74335044121251       -0.67830858123279        0.96604785305404
H           -0.25560367852848       -0.03260760599346        0.29691166634793
H            2.18477536054754       -0.28919568518927       -2.05721973834631
H            2.51199968022184       -1.86860564366400       -1.33062234142597
H            3.60223091018848        1.68844998977812       -1.32691847513450
H            5.84495101605819        2.40131043047303       -0.68601466045090
H            7.61598860895591        2.76984011615549        0.82602540593865
H            8.23989613332456        2.36948523247660       -0.79997626017113
H            9.22578942132730        2.03149556781017        0.64369403996480
H            7.60027761181970       -3.50870699874475        1.29724469467538
H            5.87062279745057       -3.19938689554121        1.58484634956816
H            6.45639622311042       -3.55977957751167       -0.06595449169166
H            4.47093457205570       -2.29585690027055       -0.09029532012398
H           -0.12504486168882       -1.80747471145661       -1.83504030461123
H           -1.55276963728468       -1.51691003436062       -0.80958800060417
H           -0.14665312789107       -2.35667183504125       -0.14489200406843
H           -4.67166620445954        2.52707787983013        0.00810146336581
H           -3.39506109538093        3.02459575886988        2.73566994850191
H           -4.41277482103736        1.64704943718341        2.31226155535120
H           -5.08399632466608        3.27579545645716        2.31046157155949
H           -2.78606733875816        4.76648046925919        0.88436577104903
H           -3.41150722396120        4.51967410404363       -0.74723755813057
H           -4.50549960359297        4.88885309359571        0.57407477177341
H            0.11318092021007        1.79341093882532        2.15845972107206
72
 energy: -99.301122388375 gnorm: 0.046708351943 xtb: 6.6.1 (8d0f1dd)
N           -0.62621827389242        1.41816590170513        1.57352267853181
C           -1.46978424304524        2.25592861757362        1.15729117274109
C           -2.62007141978045        1.92387864301832        0.24815587432331
C           -3.14789443510494        0.50150776615193        0.35014782638229
C           -4.05258985225741        0.05663684981172       -0.62014288779804
C           -4.62547323798689       -1.20257956727884       -0.56151777620372
O           -5.49422889779537       -1.70777123434275       -1.46252210899274
C           -5.92737903496067       -0.90371941159931       -2.53383265535544
C           -4.30322312426774       -2.06823739429326        0.51867815078620
O           -4.90925957856955       -3.27159114467116        0.49837967436619
C           -4.71515993109890       -4.15553396140692        1.57770901213495
C           -3.41879095622047       -1.61707444498302        1.48511966814486
C           -2.85291734325448       -0.35098278349286        1.40271468417890
C           -2.13282291049341        2.24193011910278       -1.19262048070767
C           -1.36038653787474        1.11747575601237       -1.93572578154019
C           -0.02015740400331        0.77296242561991       -1.42135575760160
N            0.15017625413604       -0.29232056077353       -0.42997532638896
C            1.54518122076975       -0.43480120382911       -0.06796520690037
C            2.50103461423416       -0.78757713700864       -1.13698732522510
C            3.89079035075450       -0.35282206927880       -0.75161896229535
C            4.28617147291760        0.96682817846538       -0.90714098482344
C            5.56030785707603        1.37189575182487       -0.54306498844852
C            6.46444954390335        0.46530427246467       -0.00550911282556
O            7.72182052545667        0.74404837981979        0.38283799322639
C            8.21236111479711        2.05783079386546        0.24825500876204
C            6.06337045467192       -0.88947007685093        0.16457931897014
O            6.99809596992594       -1.70362763760710        0.69009734592460
C            6.69790736240240       -3.06609422973876        0.88045168832121
C            4.78380748690669       -1.27069701263658       -0.21040384692226
C           -0.46441718363449       -1.58288854961386       -0.84134339007186
C           -3.82190904354531        2.86147609066527        0.61198039427109
C           -4.19838324883574        2.68796895445709        2.08362954990533
C           -3.60361600299396        4.34308975615295        0.30708530731196
H           -4.32822586774693        0.71371542150700       -1.42835215091578
H           -6.43835755063122       -0.00319555742776       -2.17992423126064
H           -6.62998418586976       -1.51815276984095       -3.09322790512139
H           -5.09608437166550       -0.62117203512141       -3.18817562813533
H           -5.02923880366439       -3.70688120381648        2.52464113957733
H           -5.34044942331946       -5.01986279035400        1.36309583062205
H           -3.67057386437392       -4.47406244252608        1.65267237774052
H           -3.16902604799367       -2.24183306644450        2.32702873683502
H           -2.18024719832380       -0.03837826625604        2.18330922132071
H           -3.00010954808527        2.48731686752208       -1.80665465675036
H           -1.49519552006749        3.12645752452442       -1.15911707943193
H           -1.99223842768020        0.23382775544280       -2.00320558519731
H           -1.21845055839315        1.49946134728475       -2.95209664636319
H           -1.39786519153734        3.32185368623663        1.38785916737733
H            0.70396186350374        1.56088529603887       -1.30563267302401
H            1.74126356877270       -0.67873740741684        0.96103040849835
H           -0.31877610118056        0.00392072527156        0.40440615933942
H            2.18735094875526       -0.29045459018871       -2.05944466924623
H            2.51428091983591       -1.87090447028849       -1.33203429999011
H            3.60237422667766        1.68814187397046       -1.32694970406483
H            5.84502551626085        2.40149131804373       -0.68594520878426
H            7.61596556671115        2.76994204481498        0.82626635953028
H            8.23945499777741        2.36947682045617       -0.80016483224143
H            9.22600767395550        2.03172524737798        0.64336707593636
H            7.60041782585952       -3.50871127074184        1.29733330816614
H            5.87073558213172       -3.19943416213956        1.58479641222589
H            6.45662852424014       -3.55973521089228       -0.06594484470133
H            4.47131844787636       -2.29594783036191       -0.09025890265237
H           -0.12588349678988       -1.81714238488861       -1.84408534266641
H           -1.54977019729423       -1.51554411761324       -0.81178612727155
H           -0.14532731571831       -2.35785761952126       -0.14738124609996
H           -4.67164582006144        2.52713559997348        0.00788785772313
H           -3.39518994411649        3.02437403537418        2.73571013762517
H           -4.41292425684531        1.64686824542264        2.31200106882081
H           -5.08413059121972        3.27573661361015        2.31039340739942
H           -2.78606236065038        4.76651011347301        0.88462883935489
H           -3.41126119186180        4.51980649183428       -0.74717840497058
H           -4.50549499854422        4.88891716651634        0.57401550843323
H            0.11345119996924        1.79544268631573        2.15947320883066
72
 energy: -99.303174520915 gnorm: 0.033004717134 xtb: 6.6.1 (8d0f1dd)
N           -0.61763823147030        1.39487687891239        1.54523160400855
C           -1.46477342553736        2.24180444819998        1.14819038379256
C           -2.62074298814954        1.92204546174972        0.24399647190003
C           -3.14792248628778        0.49972649090285        0.34745379452170
C           -4.05299383389678        0.05494311254477       -0.62204395043171
C           -4.62587516164487       -1.20405637618187       -0.56256892060325
O           -5.49492191490223       -1.70890001052584       -1.46335180269770
C           -5.92796178945467       -0.90383093451549       -2.53397352465173
C           -4.30349768635980       -2.06939050897440        0.51776107186221
O           -4.90943644128305       -3.27276506711426        0.49826129513572
C           -4.71467756067094       -4.15582631563169        1.57822748776057
C           -3.41923958564321       -1.61804003809862        1.48405576778091
C           -2.85306602109996       -0.35215084994799        1.40083935415606
C           -2.13265017518643        2.24302638619063       -1.19611343412652
C           -1.36181418250019        1.11877279378069       -1.93976727004843
C           -0.02360879842910        0.77960408207442       -1.41597770658943
N            0.14267806452967       -0.27329861040898       -0.41587266102384
C            1.54043554090737       -0.42720478760398       -0.06639590152730
C            2.50079409081440       -0.78737058835612       -1.13579970349944
C            3.89321197513430       -0.35508825835566       -0.75453342055575
C            4.28822731210299        0.96478744319586       -0.90936622878306
C            5.56141742743166        1.37103000753504       -0.54295503524559
C            6.46555322648260        0.46501084515729       -0.00460035653092
O            7.72271860208607        0.74464502686238        0.38425828842312
C            8.21211410131429        2.05867746397807        0.24806309879593
C            6.06527939575843       -0.88997451869191        0.16530378683189
O            7.00009806576891       -1.70359331325149        0.69166753768267
C            6.70001966637852       -3.06621081126297        0.88118083880637
C            4.78643307429230       -1.27213333437855       -0.21150731059537
C           -0.46898628175087       -1.56739588294760       -0.83040665770891
C           -3.82057727374966        2.86116637286666        0.61127045292212
C           -4.19828703086186        2.68634534836429        2.08250957831574
C           -3.60178153228853        4.34318904201787        0.30808762801867
H           -4.32848645454889        0.71186069005625       -1.43037221235016
H           -6.43815215015233       -0.00316964159638       -2.17919575965495
H           -6.63122769734722       -1.51745184915205       -3.09337710492725
H           -5.09677135439168       -0.62138486856557       -3.18852431634353
H           -5.02954624221970       -3.70693123604177        2.52479578242094
H           -5.33901357562731       -5.02089948197393        1.36388360570175
H           -3.66978946826858       -4.47327411682538        1.65371962555897
H           -3.16996001466355       -2.24230003936813        2.32652323148165
H           -2.18505286782607       -0.03795999927082        2.18489067886328
H           -2.99968752736618        2.49030499169329       -1.80932821817213
H           -1.49361520019203        3.12653772410373       -1.16051962368849
H           -1.99172662418197        0.23356702381823       -2.00318016830283
H           -1.22225449166337        1.49830876438116       -2.95770785000102
H           -1.39145310225234        3.30407728489957        1.39567107186839
H            0.70250241671730        1.56746639018063       -1.30912411466648
H            1.74008266533758       -0.67454263181440        0.95973885820410
H           -0.33167286603143        0.03663902525823        0.43661680433676
H            2.19136288973170       -0.29362554989747       -2.06175880535589
H            2.51545777398313       -1.87150773445419       -1.33069258366040
H            3.60394471090689        1.68588369373196       -1.32876736425343
H            5.84542374778841        2.40096301189895       -0.68514518854559
H            7.61633150630188        2.77060867776118        0.82711288540834
H            8.23654677644272        2.36980218211208       -0.80064663751492
H            9.22675691848424        2.03363660757109        0.64087284766835
H            7.60224449707354       -3.50882617444224        1.29863051190392
H            5.87218873750303       -3.20001872505865        1.58465848260973
H            6.45959656437013       -3.55944599095947       -0.06565446924168
H            4.47403488659308       -2.29733407546596       -0.09090623353527
H           -0.13543051672665       -1.81779578682962       -1.83463356217767
H           -1.55360006172099       -1.50470323225329       -0.80504167093250
H           -0.15060209899947       -2.34448522184767       -0.13873126608023
H           -4.67068858949209        2.52856825042685        0.00674523346751
H           -3.39549569141796        3.02154493259562        2.73572973302048
H           -4.41397327861596        1.64515952743234        2.30948264895416
H           -5.08385420251393        3.27441511979204        2.30915427141635
H           -2.78503444376243        4.76645249819011        0.88687182268032
H           -3.40849660953680        4.52093356869097       -0.74583308135355
H           -4.50401165462696        4.88875219486992        0.57437803033133
H            0.12111014810730        1.76189272074440        2.13980439141498
72
 energy: -99.305036363482 gnorm: 0.018296536785 xtb: 6.6.1 (8d0f1dd)
N           -0.61536460892766        1.35505082601575        1.51385928889000
C           -1.46396954380348        2.21876510598551        1.14382408937229
C           -2.62140912451113        1.91726448386035        0.23877302142498
C           -3.15161253549798        0.49596687579907        0.34347040458653
C           -4.05458635269207        0.05023671684692       -0.62683349759028
C           -4.62797435833663       -1.20841748391426       -0.56604239181623
O           -5.49741558183416       -1.71247138792174       -1.46669704369549
C           -5.93017398451687       -0.90491730485903       -2.53557578636813
C           -4.30619862096498       -2.07288798463140        0.51491712278472
O           -4.91086042375608       -3.27683634841154        0.49673496562802
C           -4.71438521433367       -4.15741910032158        1.57852519234501
C           -3.42501747304402       -1.61995011967476        1.48282069765914
C           -2.86110573258698       -0.35337220601459        1.40033780396566
C           -2.13318811321298        2.24243174559646       -1.20182536528615
C           -1.36186168237065        1.12050550842620       -1.94754581317971
C           -0.02408347274067        0.78848874678348       -1.41641873176397
N            0.13902106058225       -0.24154900503786       -0.40327269850473
C            1.53868617323222       -0.41529335594406       -0.07062030732058
C            2.50106956714428       -0.78751471721272       -1.13885804757482
C            3.89476767298952       -0.35736501576326       -0.75590905253345
C            4.29029394567716        0.96241459536732       -0.91104359376857
C            5.56296707666225        1.36964333507644       -0.54365936177432
C            6.46694196987068        0.46441622212540       -0.00414170660815
O            7.72362453697694        0.74567032000762        0.38648382670736
C            8.21133574764613        2.06004061687463        0.24740594238381
C            6.06752711370530       -0.89075837724431        0.16540533567023
O            7.00265558448566       -1.70336879973174        0.69347587320098
C            6.70374884983348       -3.06635229902864        0.88224991942744
C            4.78894292358267       -1.27374365476981       -0.21215658936305
C           -0.47936718412101       -1.53922290462999       -0.80338233664803
C           -3.81710339790453        2.85970007588594        0.60911208226843
C           -4.19713017553464        2.68207012108604        2.07947417010543
C           -3.59374630125181        4.34203662681112        0.31070023706245
H           -4.32823435559044        0.70679718519979       -1.43596355289340
H           -6.43847950275545       -0.00400833485553       -2.17857844735867
H           -6.63492212842863       -1.51647691967806       -3.09523945316415
H           -5.09904486989054       -0.62262486411714       -3.19028405416917
H           -5.03123714197442       -3.70767053894164        2.52407656389454
H           -5.33615321226174       -5.02455505952280        1.36524185575522
H           -3.66864500337555       -4.47175726140057        1.65548835122656
H           -3.17580633775695       -2.24336542596204        2.32589365680444
H           -2.19994085862100       -0.03900576839469        2.19010527529011
H           -3.00000296918914        2.49459938461389       -1.81343794635097
H           -1.49278304600275        3.12480074056438       -1.16204316301329
H           -1.98864896587729        0.23304049754306       -2.00546728410670
H           -1.22715284808004        1.49674218870887       -2.96717311245892
H           -1.38239601871013        3.27366971053848        1.41732970578865
H            0.70510288261030        1.57717320087126       -1.33044457610219
H            1.74415687412452       -0.66795434059276        0.95270166155530
H           -0.33834031832066        0.10491610715405        0.48200807866076
H            2.19804523945449       -0.30082348856660       -2.07087895759012
H            2.51265208275387       -1.87382166621299       -1.32390158581664
H            3.60638221640769        1.68273426787767       -1.33235872479247
H            5.84599704303877        2.39999952128320       -0.68483595664036
H            7.61742947074858        2.77174156572111        0.82886529223361
H            8.23051046426935        2.37059689929523       -0.80165541659288
H            9.22790821280850        2.03662775579442        0.63546605779392
H            7.60574715974123       -3.50826865951060        1.30094367033325
H            5.87494855810487       -3.20124404019295        1.58436656011440
H            6.46529331339143       -3.55943399606698       -0.06515849313700
H            4.47713354652405       -2.29917687312370       -0.09172783316782
H           -0.15028649396625       -1.80896358832510       -1.80780117934791
H           -1.56353760738518       -1.47635618428823       -0.78203652837107
H           -0.16027279317898       -2.31395416317682       -0.10896010410478
H           -4.66736723642762        2.53081042913624        0.00274785040565
H           -3.39557276914033        3.01486869297616        2.73544730272146
H           -4.41579881825458        1.64092541095866        2.30376713981378
H           -5.08215764382123        3.27119094347025        2.30527727154510
H           -2.77751108245376        4.76183197764205        0.89289431569800
H           -3.39817864363250        4.52266293421563       -0.74229142726483
H           -4.49591814244998        4.88828399112136        0.57610993411688
H            0.13856900015049        1.70632543328345        2.09918444565422
72
 energy: -99.305979629022 gnorm: 0.012427763890 xtb: 6.6.1 (8d0f1dd)
N           -0.61769729975254        1.33128830850124        1.50443925984337
C           -1.46343668626551        2.20469894484174        1.14215198534668
C           -2.62189007627693        1.91147058860269        0.23769732709184
C           -3.15719665263755        0.49133898389312        0.34179990904255
C           -4.05656322310532        0.04462523247141       -0.63120991022655
C           -4.63159839563260       -1.21353376863970       -0.57001875139936
O           -5.50062406455018       -1.71673827016272       -1.47153683679648
C           -5.93316186887721       -0.90689124655803       -2.53876072337246
C           -4.31220563715513       -2.07741974468644        0.51191533939020
O           -4.91434811858109       -3.28257373285456        0.49378490704144
C           -4.71590259075827       -4.16057972754546        1.57744628366825
C           -3.43644040282245       -1.62242313432828        1.48349182915345
C           -2.87458165968989       -0.35524487236542        1.40304802234482
C           -2.13203955914163        2.23885018591286       -1.20320164688452
C           -1.36105227713360        1.12077206359557       -1.95528394714896
C           -0.02011310821048        0.79385689081655       -1.42824383823448
N            0.14605371601241       -0.21742799851514       -0.40635456034378
C            1.54402994337543       -0.40518697821442       -0.08082131766714
C            2.50484494278202       -0.78846253884826       -1.14620936110945
C            3.89802341871934       -0.35928537936041       -0.76051714757257
C            4.29298337892514        0.96073048156147       -0.91444863972014
C            5.56454023178115        1.36892515006850       -0.54462474788133
C            6.46808730930166        0.46423750857466       -0.00376881695698
O            7.72425838544399        0.74678698730628        0.38850250280016
C            8.21085229997337        2.06122991293947        0.24649610297351
C            6.06923660353966       -0.89105339497164        0.16527417868550
O            7.00437611283217       -1.70283403324399        0.69511100642217
C            6.70699337775739       -3.06626327264139        0.88303370950497
C            4.79155946434886       -1.27496223760956       -0.21435603139131
C           -0.48853975396377       -1.51631371783788       -0.77573533855257
C           -3.81420997529221        2.85802720732108        0.60735690643623
C           -4.19767202102693        2.67818854211508        2.07652798481864
C           -3.58321705029074        4.34019064624954        0.31406697945739
H           -4.32602922406887        0.70039763166292       -1.44237335410264
H           -6.43964831664461       -0.00580224076930       -2.17952550643413
H           -6.63941385037997       -1.51633846990471       -3.09875163249486
H           -5.10215443565893       -0.62476100364651       -3.19365144533889
H           -5.03511432198965       -3.70997043740477        2.52185619636536
H           -5.33437758173600       -5.03030508420202        1.36539602403012
H           -3.66907272274454       -4.47094151986616        1.65614833320558
H           -3.18879618700192       -2.24470955963912        2.32772972099575
H           -2.22090513203250       -0.04156095119258        2.19902012469780
H           -2.99974783730325        2.49404213542727       -1.81238511272777
H           -1.49217173660792        3.12159510433920       -1.16055953080449
H           -1.98536029259831        0.23147947274758       -2.01061416270722
H           -1.23200503440041        1.49793515530880       -2.97489010851598
H           -1.37768458452457        3.25232849422401        1.43611502774300
H            0.71135534494091        1.58330960163840       -1.36339507448956
H            1.75058218518949       -0.66163727515794        0.94205151324297
H           -0.32685992693999        0.16923297586278        0.50361838711545
H            2.20657295373771       -0.30908266543761       -2.08318967528723
H            2.51180028976318       -1.87666340242829       -1.31909703864813
H            3.60909659317027        1.68066171189493       -1.33659143413584
H            5.84691089778821        2.39948536265573       -0.68535702577346
H            7.61905495265007        2.77292809141937        0.83020566452349
H            8.22527947189446        2.37127903078649       -0.80280593331722
H            9.22911275551370        2.03873942757036        0.63013995342904
H            7.60891029584571       -3.50707082165995        1.30313052786703
H            5.87728331199644       -3.20251534150507        1.58382112755004
H            6.47081895108364       -3.55950342940101       -0.06486243793060
H            4.48013871988851       -2.30058117735982       -0.09387855116390
H           -0.16648429002480       -1.80591654138724       -1.77797850353495
H           -1.57192459757837       -1.44373879652427       -0.74945898460165
H           -0.17056254637956       -2.28060489766130       -0.06925302079818
H           -4.66481888422735        2.53429985733307       -0.00131635865986
H           -3.39682169820062        3.00771935252271        2.73496675859201
H           -4.41945153844261        1.63716150330056        2.29803979618664
H           -5.08172585205066        3.26897640072015        2.30166506013709
H           -2.76623422251854        4.75385700159123        0.89964804523863
H           -3.38465240909566        4.52383083039117       -0.73780090104936
H           -4.48360422629668        4.88956416728357        0.57916514421555
H            0.14187155938510        1.66899624255625        2.08923061126674
72
 energy: -99.307232454321 gnorm: 0.011220878230 xtb: 6.6.1 (8d0f1dd)
N           -0.62081203319901        1.29636405132006        1.49757557168039
C           -1.46778622212112        2.18077955765283        1.14654237479675
C           -2.62286752230220        1.90110174472299        0.23650435632866
C           -3.16676285484416        0.48339586796302        0.33942326886814
C           -4.05936650964682        0.03502341093604       -0.63888600874805
C           -4.63846120564143       -1.22178679164387       -0.57685637744616
O           -5.50580549246385       -1.72395200699693       -1.48073174626932
C           -5.93832747621643       -0.91109155833407       -2.54566709996777
C           -4.32531385380414       -2.08431163147879        0.50773651025134
O           -4.92233765839427       -3.29209233510585        0.48810341732950
C           -4.72113400031039       -4.16706059241273        1.57393680878804
C           -3.46034058707645       -1.62505731584776        1.48708359268337
C           -2.89973141655692       -0.35746136996481        1.40935596368931
C           -2.13169295073870        2.23245891065595       -1.20519453009833
C           -1.36114909206876        1.12044538918891       -1.96745146977424
C           -0.01395744387154        0.80156745714163       -1.45072106800584
N            0.16389690489990       -0.18176009848871       -0.41795790903179
C            1.55708021903653       -0.38818480135205       -0.09970365796890
C            2.51407325454709       -0.78901614346100       -1.16042811428076