25
 energy: -42.159234415518 gnorm: 0.007045326715 xtb: 6.6.1 (8d0f1dd)
C            3.10302950412533        1.42692083452168       -0.08480285728454
N            2.26549552146402        0.31448763215930       -0.08207503994158
C            2.28572602459785       -2.50472959218301        0.10586614497610
N            1.13319170344533       -2.14810763202418       -0.25961175765081
C            0.38483460908188       -1.08400998291591       -0.06863414301971
C            0.99017764768965        0.23147272185795       -0.07273219553695
C            0.06727542484172        1.41392436985333       -0.05522405853487
O            0.48950987684515        2.54703816635467       -0.07438213840987
N           -1.27002551386809        1.11931544531801       -0.00387667386926
C           -2.22084542218678        2.22400035381624        0.03065299256766
C           -1.83993943781978       -0.14322027749373        0.02486293961309
O           -3.02575268904155       -0.30738247524742        0.08057703209926
N           -0.95197364454047       -1.22672186722221       -0.01217339856475
C           -1.51670073208721       -2.56099678077857        0.01600423734223
H            3.76730688705653        1.36523312073919        0.78281976495557
H            3.73918285345076        1.37026697793246       -0.97415710074362
H            2.56217690367520        2.38317326284631       -0.07162917520070
H            2.76557411542565       -2.11067840102651        0.99711714631290
H           -1.66642659408983        3.15833631862253        0.06687360449604
H           -2.85052746463730        2.19418976401055       -0.85860774347945
H           -2.86033022526017        2.12577512003768        0.90759276807581
H           -1.34817942367176       -3.02861450229547        0.98685781520214
H           -1.04518820064096       -3.16794615222063       -0.75712356405990
H           -2.58789209096435       -2.48348120911297       -0.16177293989372
H            2.79073188120973       -3.29000667394944       -0.43125004155101
