72
 energy: 0.000000000000 xtb: 6.6.1 (8d0f1dd)
N           -1.47310921155849        2.74401293103706        2.22063921685122
C           -1.55658879776851        2.16490285539332        1.13274273951491
C           -2.74549199786261        2.05621232186130        0.23826248438941
C           -3.31377553111525        0.64333411542669        0.32332512650568
C           -4.30230156009016        0.24487110156316       -0.58026161703006
C           -4.85238763031941       -1.02286490450319       -0.53363588718165
O           -5.81419972815119       -1.48606034185536       -1.36157882725342
C           -6.39655633239252       -0.60827000183299       -2.29568474302620
C           -4.39972501531283       -1.94646102182611        0.44396929121966
O           -4.98748311285188       -3.16145997157803        0.41085992006324
C           -4.66362127904578       -4.10093827755394        1.40909127743729
C           -3.42072513477031       -1.54561384810496        1.33436546260297
C           -2.88302799614223       -0.26315800396994        1.27400150770375
C           -2.19303798107274        2.30467000305896       -1.18742977106749
C           -1.26651538239283        1.17243369445008       -1.65249429687285
C            0.01082524939134        1.09745454476277       -0.89354803499847
N            0.61779393476578       -0.02034948052406       -0.57705522512502
C            2.00145210352228       -0.02376006389122       -0.15611399603240
C            2.92554934655222       -0.53865282675074       -1.27700088804721
C            4.35756843073516       -0.43050757231754       -0.83075544324989
C            5.07346135469827        0.73206409086248       -1.03980965825901
C            6.38627986649936        0.84224441421807       -0.60344822702769
C            7.00047264773336       -0.20824756335880        0.05722314418200
O            8.26703657141718       -0.21011313101264        0.52410943644933
C            9.06912227848686        0.92943601033931        0.31863058007678
C            6.27039964270142       -1.40439753960823        0.28033466008274
O            6.94829939911432       -2.38012925705718        0.92751999079483
C            6.31537317745639       -3.61583200086742        1.15217711710877
C            4.96302794628964       -1.49347471867959       -0.16064430359178
C           -0.05511211367372       -1.29906247805359       -0.62085686319744
C           -3.86758037025447        3.07992600430699        0.58498060215443
C           -4.49286159663096        2.77383493050346        1.94313289484366
C           -3.39165179876499        4.52917666589254        0.54797523472093
H           -4.66030026466202        0.94509067363451       -1.31640568823548
H           -6.85037928558380        0.25803162192116       -1.80468845313260
H           -7.17287442604349       -1.18600110843259       -2.79318157561361
H           -5.66836817451085       -0.26952966318766       -3.04040255244073
H           -4.88416720672258       -3.71589460520039        2.40913542187496
H           -5.29223570620378       -4.96637458756866        1.20969236903657
H           -3.61139813139015       -4.39919835331056        1.35529357841967
H           -3.07077796610445       -2.21868765711333        2.10002662693138
H           -2.14562754426994        0.02067850696302        2.01001344383370
H           -3.02188875377605        2.38238012313952       -1.88813545054866
H           -1.65198530896729        3.25146700677685       -1.20556284570283
H           -1.81103374245520        0.23006524641044       -1.62116301628650
H           -0.99335688527853        1.37490212198123       -2.69443256973690
H           -0.67628064361333        1.65183887049447        0.61785727145403
H            0.63525841192517        1.98466369793744       -0.92314021190751
H            2.11132552493482       -0.65949692842762        0.72532613231274
H            2.30680473056284        0.98978251704176        0.11078972794250
H            2.76694198818247        0.06750735147374       -2.17075252200790
H            2.67954581369920       -1.57455627803457       -1.51167743520200
H            4.62169998552446        1.56295612048703       -1.56123579000624
H            6.92357674630170        1.75715815945204       -0.79119596719031
H            8.65159112996149        1.81001823324363        0.81701555159939
H            9.20136171144928        1.14042857828877       -0.74698991949293
H           10.03428838009630        0.69003240176163        0.76064937965836
H            7.05567174969094       -4.23621171795340        1.65347565939075
H            5.43848001056755       -3.50813558175093        1.79970565785717
H            6.02060041905269       -4.09420497120334        0.21253282636366
H            4.40102758497114       -2.40127266373392       -0.00490198249042
H           -0.22071299714579       -1.61775583601871       -1.65116008982042
H           -1.01972258008625       -1.24102717432227       -0.10935206830928
H            0.55899954147532       -2.04486085926761       -0.12333730421426
H           -4.63991875734388        2.95501092798550       -0.18098088071825
H           -3.76095216473977        2.90314704960906        2.73380821053058
H           -4.87457614030224        1.75695641518947        1.97884603101694
H           -5.31925552549014        3.45579210326349        2.12325564252114
H           -2.60025590131176        4.69225046143352        1.27368918226171
H           -3.03987406413880        4.81897652321898       -0.43870975059559
H           -4.22191740670577        5.18069648090034        0.80616693961239
H           -0.59832433787845        2.77744694953323        2.72958984441332
72
 energy: -3.773373460930 xtb: 6.6.1 (8d0f1dd)
N           -1.56319549294756        2.78410068730680        2.24893356870474
C           -1.58326363152492        2.16552865773234        1.16178707631576
C           -2.74692664341312        2.05961932316098        0.23160575833474
C           -3.31741584544042        0.64934271171680        0.31706864522096
C           -4.30700545747178        0.25110109914684       -0.58427452414970
C           -4.85971983494475       -1.01461708523744       -0.53762790939000
O           -5.82871389542635       -1.47780700855779       -1.36789068927960
C           -6.40295929190419       -0.59724821747294       -2.30232002751489
C           -4.41154038747323       -1.93730631068353        0.43849599959927
O           -5.00805450577612       -3.15578937440620        0.40647910318242
C           -4.68229078817680       -4.09281869781116        1.40385641181207
C           -3.43275707440656       -1.53943957879082        1.32896277131761
C           -2.89169439179338       -0.25872277938209        1.26830275997901
C           -2.18469980344408        2.29754298990663       -1.19254574765771
C           -1.25555836374386        1.17370064150588       -1.67368306183314
C            0.01243976375869        1.11566171242194       -0.89177824072762
N            0.63313881531375       -0.04298553253504       -0.55350227927517
C            2.00798742144518       -0.03660170932834       -0.14413453781723
C            2.93625741932496       -0.54074829368671       -1.26691302758695
C            4.36480513865574       -0.43240614760563       -0.83026524117791
C            5.07740030565132        0.73453317262409       -1.03085179800497
C            6.38964399481351        0.84531879986942       -0.59589491047477
C            7.00711017103759       -0.20819198205798        0.05621612645571
O            8.28384142224536       -0.21236432739318        0.51814661656588
C            9.07835845834275        0.92943041269804        0.31070995948261
C            6.28046394850368       -1.40392927792574        0.27659399006082
O            6.96579822495007       -2.38590743728062        0.91831791753470
C            6.33184326567831       -3.62069066995169        1.13785590805933
C            4.97394751969445       -1.49507736737574       -0.16196635818624
C           -0.04799811118511       -1.30957470011861       -0.60541071009303
C           -3.87128997162056        3.07691451494130        0.57734685471223
C           -4.43486394174626        2.76063720263690        1.96225516630239
C           -3.40933524853221        4.52833819612430        0.49737095773025
H           -4.65901832947311        0.95093402103396       -1.32411491878393
H           -6.85291487032371        0.27272928950668       -1.81319446256046
H           -7.18161309930021       -1.17179422823179       -2.80097227791873
H           -5.67191017868693       -0.26137918008263       -3.04567001931117
H           -4.89801492736081       -3.70655922621039        2.40511102213565
H           -5.31377862407846       -4.95726169604805        1.20693698692180
H           -3.63058661405468       -4.39326819402672        1.34803017426617
H           -3.08223104788647       -2.21564489787154        2.09280427704463
H           -2.14676203847690        0.02097904214929        1.99729895066474
H           -3.01206308835429        2.38419689508849       -1.89652095411625
H           -1.63599042301576        3.24054060819946       -1.20673393284534
H           -1.79637780485262        0.22895985882060       -1.62442182223083
H           -1.00708906778021        1.36842966072824       -2.72545086849956
H           -0.68199373958225        1.67400620374815        0.68726531048960
H            0.64970806885900        1.98756759738075       -0.94897571716207
H            2.12278790368536       -0.66794397290018        0.74088481364876
H            2.30180594634649        0.98171042694058        0.12195379819762
H            2.76644775971118        0.06890265346274       -2.15605782243215
H            2.68473759760108       -1.57525627746613       -1.50174091553037
H            4.61990993809333        1.56774865214038       -1.54319611188908
H            6.92553435322809        1.76239523623896       -0.78059982100773
H            8.66208229996678        1.80805279356669        0.81452368500653
H            9.20257540320598        1.14597329743970       -0.75536463383574
H           10.04721508505158        0.69040573056082        0.74534024088260
H            7.07402832801943       -4.24403509845880        1.63350909178644
H            5.45652104763324       -3.51637242072645        1.78819047265735
H            6.03219366331407       -4.09459056363386        0.19705171051273
H            4.41158769064739       -2.40292046839473       -0.00608659119149
H           -0.20997433050097       -1.63188730809145       -1.63839220952157
H           -1.01779864958796       -1.24289926521038       -0.10378284971227
H            0.55778983701786       -2.05509275012900       -0.09824539221056
H           -4.66639714662731        2.93590667448742       -0.16094172131862
H           -3.71558975674438        2.96991456303999        2.73517194025521
H           -4.78709575538327        1.74281885219020        2.02733521118326
H           -5.30012172856510        3.32646632634738        2.23303000898800
H           -2.59140219142577        4.70492154260803        1.18864855218738
H           -3.08768079276536        4.79276600522443       -0.50655152458225
H           -4.23334975451275        5.18440343371974        0.76641809051955
H           -0.70702495862384        2.79592339561517        2.78875002923047
72
 energy: 1.223533095668 xtb: 6.6.1 (8d0f1dd)
N           -1.68923629071774        2.83073877912945        2.27724221515556
C           -1.61045922687986        2.17643958601174        1.19248438576876
C           -2.74777985822846        2.06394915028761        0.22213742239489
C           -3.31932539932143        0.65491341822454        0.30429376100765
C           -4.31329599072703        0.25960003359693       -0.59232277441350
C           -4.87102275297503       -1.00260917248910       -0.54399645671303
O           -5.85006412542054       -1.46429112430356       -1.37683375113200
C           -6.41228959214832       -0.58037658146003       -2.31209020723983
C           -4.42954104002182       -1.92404459253330        0.43024536148684
O           -5.03872054424547       -3.14612863448719        0.40065641519490
C           -4.71019563933267       -4.08010583500246        1.39601145698931
C           -3.44941313333624       -1.53238171020321        1.32033344154070
C           -2.90118965783716       -0.25591686800463        1.25704025532615
C           -2.17248130986036        2.29226951976441       -1.19905048463510
C           -1.24248041407664        1.16893102835546       -1.68724140291904
C            0.01755968262898        1.13203336865192       -0.89142822248934
N            0.64712222064829       -0.06553264425440       -0.52185881242157
C            2.01261260990478       -0.04705835344421       -0.12682453839885
C            2.94836013044201       -0.54227757673129       -1.25063795865952
C            4.37306285165621       -0.43338249225406       -0.82337183747368
C            5.08240332511980        0.73770391115694       -1.01543042789638
C            6.39567939496987        0.84919444807279       -0.58514326220044
C            7.01703652650665       -0.20840130017997        0.05387161821187
O            8.30628865966392       -0.21513300994348        0.50781352347898
C            9.09123954143192        0.92922503546588        0.29867644517827
C            6.29594772348965       -1.40354249886498        0.27014254234218
O            6.99075488517909       -2.39400001705905        0.90329929367298
C            6.35610520643131       -3.62771415461660        1.11623073827546
C            4.98886487676805       -1.49690959737058       -0.16312871621988
C           -0.04120626970893       -1.31852935097732       -0.58500812092018
C           -3.87819986694941        3.07154193347319        0.57346770860159
C           -4.35634147656188        2.74550578260217        1.99249300495486
C           -3.43556530345661        4.52578084470503        0.42378714734293
H           -4.65789262461154        0.96002768448314       -1.33582273229453
H           -6.85738853170400        0.29474739823522       -1.82624079597663
H           -7.19435082330585       -1.14995173818567       -2.81246055204389
H           -5.67739378980463       -0.24935881078086       -3.05412012518906
H           -4.91916275767952       -3.69309576377674        2.39925801787438
H           -5.34590497057475       -4.94302384284962        1.20302124954387
H           -3.65951434421846       -4.38487991601237        1.33701123934684
H           -3.10004869296294       -2.21159894939913        2.08304718314339
H           -2.14977357755446        0.01936035326149        1.98037064604415
H           -2.99767643184493        2.38938585826222       -1.90725407611218
H           -1.61232712348794        3.22942404512500       -1.20857333572991
H           -1.77739858162707        0.22063814678747       -1.62445172851358
H           -1.01996289827527        1.35618188768230       -2.74940061764506
H           -0.68814306822807        1.70193850961770        0.78793633149805
H            0.67288786876513        1.98226100699334       -0.97375098581105
H            2.13902388288896       -0.67688913675010        0.76112425405733
H            2.29740029942970        0.97441903143569        0.14134550839052
H            2.76620264634011        0.07105054836933       -2.13492588207756
H            2.69166360562363       -1.57567871209803       -1.48747287871901
H            4.61718966491575        1.57373103615818       -1.51624982026187
H            6.92853056067442        1.76979102521089       -0.76463083747362
H            8.67831105475752        1.80508347109275        0.81123963851964
H            9.20474971599887        1.15423315140524       -0.76768878851012
H           10.06569332158507        0.69071095441017        0.72207528485332
H            7.10112492494522       -4.25536127273040        1.60322966179457
H            5.48373741963987       -3.52899655206138        1.77166021052517
H            6.04990655043405       -4.09567799291071        0.17395823194758
H            4.42659416673931       -2.40526482699940       -0.00837186502135
H           -0.19369831886775       -1.65189226706994       -1.61960778851437
H           -1.01838076972064       -1.24615602846989       -0.09810097806296
H            0.55357294225126       -2.06406094418508       -0.06240129164267
H           -4.70452725943359        2.90445276863761       -0.12483578366505
H           -3.64949038152444        3.07663797314636        2.73320535612202
H           -4.63844955471741        1.71155913389860        2.09517522620958
H           -5.28640709208471        3.13931896699657        2.38356138381039
H           -2.57931177507633        4.72793525595449        1.06257247826787
H           -3.16249161854680        4.75207808063132       -0.60700331675550
H           -4.24937389853727        5.18780586645696        0.70845988243934
H           -0.85985029077655        2.81891411165688        2.86173896056098
72
 energy: 13.161930849249 xtb: 6.6.1 (8d0f1dd)
N           -1.80013459137606        2.86677361976286        2.30025162291208
C           -1.63489526684521        2.19343414127584        1.22233456670789
C           -2.74959790493256        2.06927043736079        0.21647326046023
C           -3.32056573920387        0.65961752239553        0.29093911506333
C           -4.31903542819058        0.26876679892443       -0.60224441960839
C           -4.88343846469183       -0.98984228704538       -0.55147378860482
O           -5.87135190741850       -1.44846355308494       -1.38576187285671
C           -6.42216785797279       -0.56210119296484       -2.32249752847052
C           -4.44907450622587       -1.91069725322528        0.42166343886202
O           -5.07025754424594       -3.13425681764848        0.39494211589078
C           -4.73990255553455       -4.06639585136233        1.38784784962940
C           -3.46595859474842       -1.52631728389597        1.31096266780277
C           -2.90922755604537       -0.25465482589573        1.24436815936056
C           -2.16092146292739        2.28889068852491       -1.20289383186241
C           -1.23111109142449        1.16235123899818       -1.69449910943609
C            0.02398195378849        1.14202506535555       -0.89552391528875
N            0.65678154754537       -0.08287829509831       -0.49201122345442
C            2.01648490829482       -0.05488071139106       -0.10766798071989
C            2.95841606901060       -0.54311108541163       -1.23353003074710
C            4.38095323558667       -0.43348764169649       -0.81322893501120
C            5.08726894215162        0.74137063817210       -0.99810651370070
C            6.40235297258316        0.85346497919099       -0.57405742866660
C            7.02826473379449       -0.20879618977116        0.05106060255639
O            8.32776833797923       -0.21740179362169        0.49621566796607
C            9.10469165112291        0.92903664755338        0.28589535356532
C            6.31272330155738       -1.40424902019240        0.26309248008795
O            7.01576678702003       -2.40199340087578        0.88669415837264
C            6.38166895854966       -3.63536379460178        1.09328779721393
C            5.00394293776745       -1.49919723269545       -0.16350752167437
C           -0.03506556442656       -1.32652419650116       -0.56397347212003
C           -3.89080771938238        3.06576465736226        0.57731699485072
C           -4.29037815128564        2.73615415065653        2.02764882667225
C           -3.46465408184783        4.52042251529202        0.34837398076792
H           -4.65707635112888        0.97032253099873       -1.34816595858785
H           -6.86259337868127        0.31809117062685       -1.84035684815721
H           -7.20759767710054       -1.12653594770017       -2.82452085856986
H           -5.68342207394045       -0.23669063186721       -3.06351590608312
H           -4.94205270442276       -3.67911887866543        2.39308870572266
H           -5.38005174341870       -4.92751249822362        1.19887529627490
H           -3.69049763098712       -4.37624487392718        1.32532049569231
H           -3.11922091497302       -2.20755558555508        2.07337491528446
H           -2.15288441498579        0.01668299482299        1.96374677327058
H           -2.98163453363068        2.39467770120174       -1.91708177100108
H           -1.58852521725848        3.21914517157021       -1.21027399154041
H           -1.75999070081744        0.21117738630334       -1.62279720891390
H           -1.02836472151265        1.34287997775044       -2.76495083625051
H           -0.69634927867007        1.73285548640542        0.88960295207510
H            0.69548588975696        1.97343020443043       -0.99271332147475
H            2.15493375900653       -0.68516606975848        0.78168548508002
H            2.29534668297263        0.96806906795826        0.16295361969955
H            2.76679611174597        0.07320675756916       -2.11392027410248
H            2.69879627210934       -1.57591003279781       -1.47238725385592
H            4.61460217830575        1.58011231464869       -1.48771387902731
H            6.93147070346562        1.77755401669592       -0.74812566900482
H            8.69599035293281        1.80190276712223        0.80798835756591
H            9.20733122373886        1.16276354597538       -0.78047375724561
H           10.08490474497697        0.69084795811968        0.69733281565943
H            7.12976106190058       -4.26722773122443        1.57101772350143
H            5.51278720512232       -3.54268792194035        1.75452786717144
H            6.06900964479883       -4.09717000430956        0.14959250922939
H            4.44249505915558       -2.40849338559960       -0.01072090295518
H           -0.17534284785150       -1.67216586937726       -1.59903290578301
H           -1.01979512487084       -1.24988495845536       -0.09270580751568
H            0.54856348073581       -2.07198741550042       -0.02494896406476
H           -4.74228475564166        2.87012216817749       -0.08380498860287
H           -3.60432507276133        3.20075073064413        2.72890173846279
H           -4.46187762864444        1.67427644060612        2.16289120560830
H           -5.27304607524149        2.93840186156154        2.52502901028630
H           -2.57004161115413        4.75300322456449        0.92877395815882
H           -3.24442826514585        4.70533811530401       -0.70882120962051
H           -4.26512546695245        5.19142523667188        0.64729047652804
H           -1.00236733610320        2.83987513827681        2.92913364868633
72
 energy: 27.288906197640 xtb: 6.6.1 (8d0f1dd)
N           -1.88236620786484        2.89404331263721        2.31098053706143
C           -1.65212685775116        2.21625072737608        1.25044689522556
C           -2.75042819407078        2.07401519972860        0.21567578304251
C           -3.32105661219486        0.66278143967801        0.27805974386397
C           -4.32436354418610        0.27814082016854       -0.61282578428851
C           -4.89633248846987       -0.97713293248054       -0.55927030213603
O           -5.89130223668933       -1.43144111575184       -1.39403025630515
C           -6.43192705052722       -0.54385469931417       -2.33272657870955
C           -4.46904730444039       -1.89806534540811        0.41342196959050
O           -5.10060331798276       -3.12109831472912        0.38970878598619
C           -4.76939385376282       -4.05261628923763        1.37975539042938
C           -3.48179947672110       -1.52161613218650        1.30191308695111
C           -2.91602965610638       -0.25514691901605        1.23169094760003
C           -2.15024614795441        2.28756029836455       -1.20420926804067
C           -1.22134979053156        1.15375858241886       -1.69610296618658
C            0.03228412487912        1.14487478822678       -0.90662208440241
N            0.66124983645945       -0.09339960342605       -0.46556595599334
C            2.01943510005839       -0.05954368305457       -0.08828672234244
C            2.96627691542411       -0.54358078369727       -1.21687096143919
C            4.38858712885843       -0.43297071332543       -0.80108910795228
C            5.09204145531256        0.74509691133823       -0.98026820695424
C            6.40955744169497        0.85793807022728       -0.56325827434501
C            7.04023221177325       -0.20915173959563        0.04785608566725
O            8.34705276397139       -0.21867747087588        0.48406367629132
C            9.11789435466501        0.92906655617012        0.27302795522096
C            6.33013439549705       -1.40569654532368        0.25570641549692
O            7.03944363776975       -2.40906274970729        0.86960887888614
C            6.40715591270136       -3.64282858029623        1.07028304404037
C            5.01868144751421       -1.50168403240565       -0.16372504064883
C           -0.02967206388858       -1.33291225684704       -0.54375662373469
C           -3.90817624286215        3.05778184159698        0.59076386084661
C           -4.24803870555936        2.73654419571416        2.06742476997985
C           -3.49430900731925        4.50955871045300        0.27685801174795
H           -4.65656487870029        0.98100211503354       -1.36023593981366
H           -6.86814720546774        0.34102743974896       -1.85451632435037
H           -7.22050287386544       -1.10321324491379       -2.83632218119236
H           -5.68962952450658       -0.22431171771674       -3.07308012394158
H           -4.96506543363116       -3.66562705073364        2.38691072658674
H           -5.41387571593899       -4.91185440152216        1.19475791698031
H           -3.72141650567796       -4.36795582562163        1.31367361061571
H           -3.13839224887264       -2.20381619160068        2.06434661725898
H           -2.15571981257581        0.01312008263723        1.94816953447517
H           -2.96503857110183        2.39959301558560       -1.92513661841545
H           -1.56547489960624        3.21000206452554       -1.21181719152217
H           -1.74395829991104        0.20053418817587       -1.62123807193638
H           -1.03386134919343        1.32992396202374       -2.77329385097917
H           -0.70660909249308        1.76244417231529        0.99387628765355
H            0.71752054675774        1.96077902177940       -1.00710702750931
H            2.16986294704659       -0.69282730379439        0.80078652211249
H            2.29548290898665        0.96278204419645        0.18548757441331
H            2.76798115730794        0.07519938620121       -2.09402847377547
H            2.70605239152354       -1.57631752313172       -1.45766170380529
H            4.61231082175427        1.58632343272011       -1.45922826289638
H            6.93426735987855        1.78534508481700       -0.73185271383880
H            8.71409435920018        1.79889862897903        0.80477379189627
H            9.21004352796150        1.17126293307801       -0.79297192861907
H           10.10371198963688        0.69121412243923        0.67238272269768
H            7.15827207831430       -4.27866458365455        1.53861995264060
H            5.54203515700297       -3.55648249665389        1.73761374191646
H            6.08846389245174       -4.09862962439007        0.12534447598219
H            4.45848526909788       -2.41202414912321       -0.01324988053008
H           -0.15619908968327       -1.69208477192407       -1.57765592564582
H           -1.02115922532965       -1.25410714486215       -0.08773244656664
H            0.54321253595011       -2.07856406813799        0.01167394381186
H           -4.77496400571169        2.83749121810309       -0.03927978130744
H           -3.60762631405752        3.32862100712619        2.72284079089101
H           -4.27898495864214        1.65091786899600        2.22204428020299
H           -5.23887641170741        2.73335305886450        2.64935938681956
H           -2.56629659603505        4.77478047278463        0.79409967173244
H           -3.32756059535752        4.65324160403102       -0.80123709504958
H           -4.27780891054479        5.19443981638388        0.58576134164453
H           -1.12762319910291        2.85654264676636        2.98897127503572
72
 energy: 38.056870816904 xtb: 6.6.1 (8d0f1dd)
N           -1.92885154116356        2.90595379623039        2.30188558064516
C           -1.66375210814906        2.24301828563151        1.27470906987042
C           -2.75026859497628        2.07592776905500        0.21714892922698
C           -3.32144650424297        0.66332160952662        0.26692630161073
C           -4.32896264565714        0.28673163614664       -0.62384684528466
C           -4.90937629227079       -0.96594433626455       -0.56730904034028
O           -5.90698281647565       -1.41406459740462       -1.40025512911172
C           -6.44079150519439       -0.52725108085494       -2.34177874372729
C           -4.48809983224230       -1.88824862473515        0.40648045017251
O           -5.12579060146628       -3.10661603105343        0.38565637524973
C           -4.79589135620776       -4.04015682654459        1.37271303223531
C           -3.49558405150681       -1.51899233684808        1.29422168939300
C           -2.92151369964311       -0.25711163997838        1.22074222589735
C           -2.14108650848564        2.28884071867242       -1.20450193023773
C           -1.21316737825856        1.14309223321987       -1.69087844248860
C            0.04456538015002        1.13318044066011       -0.92622808743531
N            0.65632508257993       -0.08990721316638       -0.44676629803522
C            2.02137312717510       -0.05983758471090       -0.06994552985868
C            2.96958780381637       -0.54350203049920       -1.20243015945085
C            4.39553841165668       -0.43173046557015       -0.78756368031423