72
 energy: 36.031769838346 xtb: 6.6.1 (8d0f1dd)
N           -1.91749748547500        2.98515933274745        2.46733349828409
C           -1.87995766488352        2.15666698566006        1.52609346345816
C           -2.93785418051897        2.05687661059243        0.45788801694653
C           -3.56669429308506        0.67520724752317        0.51021551951419
C           -4.38510668401746        0.23764329258584       -0.53445879071255
C           -4.95659165388322       -1.02124361194909       -0.52402386511462
O           -5.74925867149413       -1.53223283263144       -1.50816240212395
C           -6.09583816498772       -0.71251487577968       -2.59497264498533
C           -4.72067391149833       -1.88724514094304        0.56852821655303
O           -5.30049103338940       -3.11696576976495        0.48044163101171
C           -5.15367641197380       -4.00698913023651        1.55749835498175
C           -3.94210704536766       -1.43774676925387        1.61891551772400
C           -3.37296612023026       -0.16988777187789        1.58767679448161
C           -2.19844997267749        2.27892716208597       -0.89261650424625
C           -1.47160008273772        1.06095274759258       -1.49527402289069
C           -0.32224442856810        0.57707841317289       -0.68377688742906
N           -0.08953701407584       -0.67932879990518       -0.33123524219077
C            0.95691362624514       -1.06155654157422        0.38942769655609
C            4.01968567727404        0.06915278624121       -1.91905862821352
C            5.27393750019080        0.00494406361028       -1.35883253462869
C            6.25280975036098        1.00291634326820       -1.60907087019191
C            7.49853408079802        0.94312501587956       -1.03358908722392
C            7.84152319704953       -0.10687309592232       -0.18560905523183
O            9.03860533561252       -0.26058212220420        0.44180279779815
C           10.03201099402386        0.71388483931489        0.26114070034252
C            6.88870659793373       -1.13124093079454        0.07384218708140
O            7.33476398938483       -2.11695249614390        0.90630989232391
C            6.48047855391346       -3.19407063387121        1.18924769669580
C            5.64616772837824       -1.07006390280024       -0.49679330065204
C           -1.02444137468139       -1.71645334515682       -0.73887372495650
C           -4.07237928387335        3.11070260356103        0.60606319932880
C           -4.85596265529056        2.91810371997683        1.90342158004394
C           -3.57019155902217        4.55110189656884        0.52189793058656
H           -4.57603394866873        0.89965939450009       -1.36370348757559
H           -6.63865557585015        0.18177529078845       -2.27110830380023
H           -6.74799768238998       -1.32085592939340       -3.21999688163971
H           -5.21739525641593       -0.41374862690452       -3.17773940900512
H           -5.58237739316702       -3.60048111072889        2.47956961573299
H           -5.70235836490109       -4.90273128702843        1.27058729811942
H           -4.10366207952912       -4.26756507357682        1.73027777235143
H           -3.76663270587543       -2.06493697260370        2.47846282371476
H           -2.78255321097671        0.15100496351879        2.43144203199396
H           -2.92468242232759        2.62349053158260       -1.63150685758672
H           -1.47146432286610        3.08108427605501       -0.75119211226056
H           -2.19303047970731        0.26529714450122       -1.66752673604986
H           -1.10175070439911        1.38804451438838       -2.47805801207571
H           -1.05853072496272        1.44503091701853        1.36308153855011
H            0.44346716491683        1.29228045811008       -0.42810940674411
H            1.09944647946584       -2.09242735984760        0.63277353639918
H            1.67596009331646       -0.33039591474973        0.70032684874436
H            3.74105095805213        0.88240527208437       -2.56406619355741
H            3.28125728982785       -0.68738876369745       -1.72605378054136
H            6.00222326362862        1.82181968721391       -2.26642322250132
H            8.21490562895838        1.72207241419307       -1.24733104922171
H            9.70289070519162        1.69869652013522        0.61007801451504
H           10.34470107758360        0.78673020080286       -0.78617978033576
H           10.87530745173625        0.38164186647683        0.86522190970011
H            7.05604472485833       -3.86132059785231        1.82971752434272
H            5.58005211160603       -2.86909135925063        1.72193597734772
H            6.18908504449387       -3.72896308035701        0.27884098725938
H            4.90965366075133       -1.83524474775273       -0.30789464489359
H           -1.10904685086527       -1.74287027657221       -1.82560578167718
H           -2.00987596800492       -1.53664071232706       -0.30877862750674
H           -0.66699854535802       -2.68463618275336       -0.39615450036358
H           -4.76352576334241        2.94353478894292       -0.22963877199363
H           -4.20844601156337        3.09682684220761        2.75529907411755
H           -5.25991460268417        1.91059680659324        1.97049795224027
H           -5.68347142922211        3.62311666433005        1.93949082497716
H           -2.85192918226037        4.74062748731845        1.31264290910334
H           -3.10769102954349        4.76241174944437       -0.43864862623937
H           -4.40934965997688        5.23177218483483        0.64733309743894
H           -1.12738988616032        2.96817356775237        3.10922564412430
