72
 energy: 14.193964915873 xtb: 6.6.1 (8d0f1dd)
N           -1.65731685958996        2.88749108800523        2.33320148652506
C           -1.67304321856809        2.15630076735930        1.30970188797890
C           -2.81263570334212        2.06494432666235        0.32664306876164
C           -3.40406062900275        0.66507683455395        0.39076528812838
C           -4.33594212138013        0.24727995309152       -0.56195283921749
C           -4.89296162428896       -1.01904640190904       -0.52878836984611
O           -5.80416299588970       -1.50590353797017       -1.42168640711811
C           -6.29681204897716       -0.63841485188912       -2.40805671492966
C           -4.51207695971463       -1.92190188010792        0.48760818382301
O           -5.10227419942166       -3.15306031538776        0.43200008866850
C           -4.83218857443287       -4.06618858845798        1.46333300358850
C           -3.59913222825796       -1.50397544289561        1.43803911817546
C           -3.05325445432257       -0.22593198125567        1.38730846332542
C           -2.20087794616360        2.29480615566856       -1.07985364754483
C           -1.34415039582778        1.13501162040929       -1.62233779123871
C           -0.10459472153464        0.90908290826251       -0.80025962138692
N            0.50205919771155       -0.34457696006543       -0.56214529339617
C            1.87977678011369       -0.43662360671123       -0.16719745643292
C            3.19390832085850       -0.32386847676646       -1.35197859135677
C            4.63167408824483       -0.24587778823684       -0.93651913201687
C            5.45399293537055        0.83170902223146       -1.22404722021439
C            6.76251800623722        0.87117979150201       -0.76423413686983
C            7.28671245663392       -0.17430796843304       -0.02856403416420
O            8.54055816139341       -0.22750144974356        0.50206522577916
C            9.39998075855702        0.86120414094700        0.28542810156704
C            6.48740870708016       -1.31173034422806        0.20942094903992
O            7.09866118190917       -2.30764260040436        0.91614064808763
C            6.37154821080183       -3.47708882001370        1.17312572307703
C            5.19312065565092       -1.33712853213507       -0.26075233331647
C           -0.33479543291662       -1.51140869876356       -0.69888905442881
C           -3.94828034772461        3.09048212366308        0.58724959240831
C           -4.62730543665319        2.82487927151506        1.92917090598617
C           -3.46041401275533        4.53615996171892        0.54034287695106
H           -4.62954092838582        0.93128829933690       -1.34111599481184
H           -6.77735995563682        0.24155884638549       -1.96814716188105
H           -7.03625703669421       -1.21575084663450       -2.96114999903828
H           -5.50691417936361       -0.31063383434499       -3.09216974752036
H           -5.12416790341868       -3.66895762272278        2.44177645563421
H           -5.43120408991105       -4.94881630733102        1.24024219824411
H           -3.77322343378134       -4.34367009143518        1.49117179235463
H           -3.30614230148694       -2.16500296326671        2.23860902274098
H           -2.36219065826166        0.07420878860952        2.15820573924572
H           -3.01344523397836        2.48000672421769       -1.78814620303491
H           -1.58632919622257        3.19520621375094       -1.04431952174420
H           -1.95213992057119        0.23339227403788       -1.64087826703081
H           -1.11952695977558        1.39463044019572       -2.68354915701147
H           -0.80673693292551        1.56670849063618        0.92522733361272
H            0.62418274062486        1.70658520159146       -0.82558280737981
H            1.97704750923185       -1.31072956138777        0.49384313254379
H            2.07527910385418        0.50358663000298        0.40199402068190
H            3.02611632867054        0.46555657403056       -2.09092342884356
H            3.02720855021949       -1.30748486462707       -1.80522153283026
H            5.07959455025005        1.66429431652426       -1.79895048739987
H            7.36235224338327        1.74341202161473       -0.96909807338305
H            9.00701086408643        1.78203073222476        0.72844962553713
H            9.59300663854134        1.02445044142398       -0.78133089520317
H           10.33428732491388        0.60248170655616        0.77926571600655
H            7.04780582708512       -4.12065080166821        1.73288559079802
H            5.47855318139912       -3.28211624049821        1.77823004353016
H            6.07307638657551       -3.97323284433480        0.24349185272656
H            4.58340385818042       -2.21085790278351       -0.09989716914779
H           -0.51654798185638       -1.73386330902389       -1.75382088449592
H           -1.31568222501020       -1.35605860138436       -0.22032625604043
H            0.17136038842621       -2.35118032773549       -0.22472110640412
H           -4.69333940861260        2.96023932782345       -0.20453229623697
H           -3.91199427181638        2.96934725767029        2.72765722777918
H           -5.01129307651002        1.80865786242190        1.97583959042442
H           -5.45519688574870        3.51610728204969        2.07702112159660
H           -2.68953892537266        4.68200936448097        1.28749956392704
H           -3.06453980728172        4.79340228464310       -0.43872445955381
H           -4.28929961564996        5.20861765090829        0.75868740618778
H           -0.79802930345322        2.83651488586902        2.87490541687938
