      -----------------------------------------------------------      
     |                   =====================                   |     
     |                           x T B                           |     
     |                   =====================                   |     
     |                         S. Grimme                         |     
     |          Mulliken Center for Theoretical Chemistry        |     
     |                    University of Bonn                     |     
      -----------------------------------------------------------      

   * xtb version 6.6.1 (8d0f1dd) compiled by 'conda@1efc2f54142f' on 2023-08-01

   xtb is free software: you can redistribute it and/or modify it under
   the terms of the GNU Lesser General Public License as published by
   the Free Software Foundation, either version 3 of the License, or
   (at your option) any later version.
   
   xtb is distributed in the hope that it will be useful,
   but WITHOUT ANY WARRANTY; without even the implied warranty of
   MERCHANTABILITY or FITNESS FOR A PARTICULAR PURPOSE.  See the
   GNU Lesser General Public License for more details.
   
   Cite this work as:
   * C. Bannwarth, E. Caldeweyher, S. Ehlert, A. Hansen, P. Pracht,
     J. Seibert, S. Spicher, S. Grimme, WIREs Comput. Mol. Sci., 2020, 11,
     e01493. DOI: 10.1002/wcms.1493
   
   for GFN2-xTB:
   * C. Bannwarth, S. Ehlert and S. Grimme., J. Chem. Theory Comput., 2019,
     15, 1652-1671. DOI: 10.1021/acs.jctc.8b01176
   for GFN1-xTB:
   * S. Grimme, C. Bannwarth, P. Shushkov, J. Chem. Theory Comput., 2017,
     13, 1989-2009. DOI: 10.1021/acs.jctc.7b00118
   for GFN0-xTB:
   * P. Pracht, E. Caldeweyher, S. Ehlert, S. Grimme, ChemRxiv, 2019, preprint.
     DOI: 10.26434/chemrxiv.8326202.v1
   for GFN-FF:
   * S. Spicher and S. Grimme, Angew. Chem. Int. Ed., 2020, 59, 15665-15673.
     DOI: 10.1002/anie.202004239
   
   for ALPB and GBSA implicit solvation:
   * S. Ehlert, M. Stahn, S. Spicher, S. Grimme, J. Chem. Theory Comput.,
     2021, 17, 4250-4261. DOI: 10.1021/acs.jctc.1c00471
   
   for DFT-D4:
   * E. Caldeweyher, C. Bannwarth and S. Grimme, J. Chem. Phys., 2017,
     147, 034112. DOI: 10.1063/1.4993215
   * E. Caldeweyher, S. Ehlert, A. Hansen, H. Neugebauer, S. Spicher,
     C. Bannwarth and S. Grimme, J. Chem. Phys., 2019, 150, 154122.
     DOI: 10.1063/1.5090222
   * E. Caldeweyher, J.-M. Mewes, S. Ehlert and S. Grimme, Phys. Chem. Chem. Phys.
     2020, 22, 8499-8512. DOI: 10.1039/D0CP00502A
   
   for sTDA-xTB:
   * S. Grimme and C. Bannwarth, J. Chem. Phys., 2016, 145, 054103.
     DOI: 10.1063/1.4959605
   
   in the mass-spec context:
   * V. Asgeirsson, C. Bauer and S. Grimme, Chem. Sci., 2017, 8, 4879.
     DOI: 10.1039/c7sc00601b
   * J. Koopman and S. Grimme, ACS Omega 2019, 4, 12, 15120-15133.
     DOI: 10.1021/acsomega.9b02011
   
   for metadynamics refer to:
   * S. Grimme, J. Chem. Theory Comput., 2019, 155, 2847-2862
     DOI: 10.1021/acs.jctc.9b00143
   
   for SPH calculations refer to:
   * S. Spicher and S. Grimme, J. Chem. Theory Comput., 2021, 17, 1701-1714
     DOI: 10.1021/acs.jctc.0c01306
   
   with help from (in alphabetical order)
   P. Atkinson, C. Bannwarth, F. Bohle, G. Brandenburg, E. Caldeweyher
   M. Checinski, S. Dohm, S. Ehlert, S. Ehrlich, I. Gerasimov, C. Hölzer
   A. Katbashev, J. Koopman, C. Lavigne, S. Lehtola, F. März, M. Müller,
   F. Musil, H. Neugebauer, J. Pisarek, C. Plett, P. Pracht, F. Pultar,
   J. Seibert, P. Shushkov, S. Spicher, M. Stahn, M. Steiner, T. Strunk,
   J. Stückrath, T. Rose, and J. Unsleber
   
 * started run on 2024/04/06 at 11:12:42.088     

           -------------------------------------------------
          |                Calculation Setup                |
           -------------------------------------------------

          program call               : xtb struc.xyz --opt loose --input .xc1 --gfn2
          hostname                   : n-62-30-23
          coordinate file            : struc.xyz
          omp threads                :                     1

   ID    Z sym.   atoms
    1    7 N      1, 17
    2    6 C      2-6, 8, 9, 11-16, 18-23, 25, 26, 28-33
    3    8 O      7, 10, 24, 27
    4    1 H      34-72
constraining bond 9 11 to    5.0000000 Å, actual value:    2.3754741 Å

           -------------------------------------------------
          |                 G F N 2 - x T B                 |
           -------------------------------------------------

        Reference                      10.1021/acs.jctc.8b01176
      * Hamiltonian:
        H0-scaling (s, p, d)           1.850000    2.230000    2.230000
        zeta-weighting                 0.500000
      * Dispersion:
        s8                             2.700000
        a1                             0.520000
        a2                             5.000000
        s9                             5.000000
      * Repulsion:
        kExp                           1.500000    1.000000
        rExp                           1.000000
      * Coulomb:
        alpha                          2.000000
        third order                    shell-resolved
        anisotropic                    true
        a3                             3.000000
        a5                             4.000000
        cn-shift                       1.200000
        cn-exp                         4.000000
        max-rad                        5.000000


          ...................................................
          :                      SETUP                      :
          :.................................................:
          :  # basis functions                 171          :
          :  # atomic orbitals                 171          :
          :  # shells                          105          :
          :  # electrons                       180          :
          :  max. iterations                   250          :
          :  Hamiltonian                  GFN2-xTB          :
          :  restarted?                      false          :
          :  GBSA solvation                  false          :
          :  PC potential                    false          :
          :  electronic temp.         5000.0000000     K    :
          :  accuracy                    1.0000000          :
          :  -> integral cutoff          0.2500000E+02      :
          :  -> integral neglect         0.1000000E-07      :
          :  -> SCF convergence          0.1000000E-05 Eh   :
          :  -> wf. convergence          0.1000000E-03 e    :
          :  Broyden damping             0.4000000          :
          ...................................................

 iter      E             dE          RMSdq      gap      omega  full diag
   1   -100.5973919 -0.100597E+03  0.374E+00    3.20       0.0  T
   2   -100.7362642 -0.138872E+00  0.221E+00    1.08       1.0  T
   3   -100.7049001  0.313641E-01  0.141E+00    3.29       1.0  T
   4   -100.7721690 -0.672689E-01  0.526E-01    1.50       1.0  T
   5   -100.7894292 -0.172602E-01  0.190E-01    1.98       1.0  T
   6   -100.7911978 -0.176856E-02  0.792E-02    1.77       1.0  T
   7   -100.7914750 -0.277198E-03  0.375E-02    1.83       1.0  T
   8   -100.7914914 -0.164582E-04  0.140E-02    1.83       1.0  T
   9   -100.7914976 -0.616739E-05  0.474E-03    1.82       2.5  T
  10   -100.7914988 -0.118227E-05  0.172E-03    1.82       6.8  T
  11   -100.7914989 -0.139928E-06  0.766E-04    1.82      15.4  T
  12   -100.7914989 -0.773143E-08  0.318E-04    1.82      37.0  T

   *** convergence criteria satisfied after 12 iterations ***

         #    Occupation            Energy/Eh            Energy/eV
      -------------------------------------------------------------
         1        2.0000           -0.8078051             -21.9815
       ...           ...                  ...                  ...
        84        1.9966           -0.5157491             -14.0342
        85        1.9959           -0.5128261             -13.9547
        86        1.9840           -0.4911498             -13.3649
        87        1.9795           -0.4872543             -13.2589
        88        1.9640           -0.4782114             -13.0128
        89        1.8920           -0.4602041             -12.5228
        90        1.8557           -0.4553147             -12.3897 (HOMO)
        91        0.3166           -0.3884132             -10.5693 (LUMO)
        92        0.0218           -0.3434697              -9.3463
        93        0.0041           -0.3169887              -8.6257
        94        0.0034           -0.3139726              -8.5436
        95        0.0029           -0.3112618              -8.4699
       ...           ...                  ...                  ...
       171                          0.5822580              15.8440
      -------------------------------------------------------------
                  HL-Gap            0.0669015 Eh            1.8205 eV
             Fermi-level           -0.4148687 Eh          -11.2892 eV

 SCC (total)                   0 d,  0 h,  0 min,  0.190 sec
 SCC setup                      ...        0 min,  0.001 sec (  0.586%)
 Dispersion                     ...        0 min,  0.002 sec (  0.950%)
 classical contributions        ...        0 min,  0.000 sec (  0.237%)
 integral evaluation            ...        0 min,  0.018 sec (  9.699%)
 iterations                     ...        0 min,  0.098 sec ( 51.771%)
 molecular gradient             ...        0 min,  0.069 sec ( 36.420%)
 printout                       ...        0 min,  0.001 sec (  0.329%)

         :::::::::::::::::::::::::::::::::::::::::::::::::::::
         ::                     SUMMARY                     ::
         :::::::::::::::::::::::::::::::::::::::::::::::::::::
         :: total energy             -98.174232072376 Eh    ::
         :: gradient norm              0.700957080212 Eh/a0 ::
         :: HOMO-LUMO gap              1.820481192090 eV    ::
         ::.................................................::
         :: SCC energy              -100.791498925389 Eh    ::
         :: -> isotropic ES            0.109302908418 Eh    ::
         :: -> anisotropic ES          0.005415138735 Eh    ::
         :: -> anisotropic XC          0.042392697176 Eh    ::
         :: -> dispersion             -0.075527661009 Eh    ::
         :: repulsion energy           1.386151658689 Eh    ::
         :: add. restraining           1.229898841818 Eh    ::
         :: total charge               1.000000000108 e     ::
         :::::::::::::::::::::::::::::::::::::::::::::::::::::

      ----------------------------------------------------------- 
     |                   =====================                   |
     |                        A N C O P T                        |
     |                   =====================                   |
     |               Approximate Normal Coordinate               |
     |                Rational Function Optimizer                |
      ----------------------------------------------------------- 

          ...................................................
          :                      SETUP                      :
          :.................................................:
          :   optimization level             loose          :
          :   max. optcycles                   200          :
          :   ANC micro-cycles                  20          :
          :   degrees of freedom               210          :
          :.................................................:
          :   RF solver                   davidson          :
          :   write xtbopt.log                true          :
          :   linear?                        false          :
          :   energy convergence         0.5000000E-04 Eh   :
          :   grad. convergence          0.4000000E-02 Eh/α :
          :   maxmium RF displ.          1.0000000          :
          :   Hlow (freq-cutoff)         0.1000000E-01      :
          :   Hmax (freq-cutoff)         5.0000000          :
          :   S6 in model hess.         20.0000000          :
          ...................................................

generating ANC from model Hessian ...
Using Lindh-Hessian (1995)
 Shifting diagonal of input Hessian by    8.7794688316693487E-002
 Lowest  eigenvalues of input Hessian
    0.010000    0.063178    0.000000    0.000000    0.000000    0.000000
    0.000000    0.000000    0.087851    0.087939    0.088056    0.088068
    0.088405    0.088552    0.088725    0.089057    0.089096    0.089723
 Highest eigenvalues
    2.113759    2.129376    2.136005    2.252565    2.262186    2.262293


........................................................................
.............................. CYCLE    1 ..............................
........................................................................

 iter      E             dE          RMSdq      gap      omega  full diag
   1   -100.7914989 -0.100791E+03  0.114E-04    1.82       0.0  T
   2   -100.7914989 -0.678995E-10  0.713E-05    1.82     165.2  T
   3   -100.7914989  0.665210E-10  0.496E-05    1.82     237.5  T
     SCC iter.                  ...        0 min,  0.026 sec
     gradient                   ...        0 min,  0.069 sec
 * total energy  :   -98.1742321 Eh     change       -0.4035485E-08 Eh
   gradient norm :     0.7009578 Eh/α   predicted     0.0000000E+00 (-100.00%)
   displ. norm   :     0.5559829 α      lambda       -0.3430661E+00
   maximum displ.:     0.1693846 α      in ANC's #194, #141, #193, ...

........................................................................
.............................. CYCLE    2 ..............................
........................................................................

 iter      E             dE          RMSdq      gap      omega  full diag
   1   -100.7676344 -0.100768E+03  0.483E-01    1.74       0.0  T
   2   -100.7739418 -0.630734E-02  0.286E-01    1.78       1.0  T
   3   -100.7745465 -0.604688E-03  0.169E-01    1.79       1.0  T
   4   -100.7743772  0.169283E-03  0.893E-02    1.73       1.0  T
   5   -100.7747369 -0.359765E-03  0.414E-02    1.83       1.0  T
   6   -100.7749079 -0.171001E-03  0.986E-03    1.77       1.2  T
   7   -100.7749140 -0.607171E-05  0.427E-03    1.78       2.8  T
   8   -100.7749145 -0.441184E-06  0.229E-03    1.78       5.1  T
   9   -100.7749145 -0.760491E-07  0.839E-04    1.78      14.0  T
  10   -100.7749146 -0.191289E-07  0.370E-04    1.78      31.9  T
     SCC iter.                  ...        0 min,  0.081 sec
     gradient                   ...        0 min,  0.069 sec
 * total energy  :   -98.4522076 Eh     change       -0.2779755E+00 Eh
   gradient norm :     0.4308191 Eh/α   predicted    -0.2245664E+00 ( -19.21%)
   displ. norm   :     0.6510871 α      lambda       -0.2519024E+00
   maximum displ.:     0.1965833 α      in ANC's #194, #193, #123, ...

........................................................................
.............................. CYCLE    3 ..............................
........................................................................

 iter      E             dE          RMSdq      gap      omega  full diag
   1   -100.6836143 -0.100684E+03  0.540E-01    1.70       0.0  T
   2   -100.6896369 -0.602261E-02  0.327E-01    1.71       1.0  T
   3   -100.6920813 -0.244445E-02  0.197E-01    1.79       1.0  T
   4   -100.6912718  0.809475E-03  0.143E-01    1.60       1.0  T
   5   -100.6931084 -0.183652E-02  0.446E-02    1.79       1.0  T
   6   -100.6932842 -0.175844E-03  0.105E-02    1.73       1.1  T
   7   -100.6932882 -0.398048E-05  0.535E-03    1.74       2.2  T
   8   -100.6932887 -0.541496E-06  0.288E-03    1.74       4.1  T
   9   -100.6932889 -0.155237E-06  0.107E-03    1.74      11.0  T
  10   -100.6932889 -0.347597E-07  0.494E-04    1.74      23.9  T
  11   -100.6932889 -0.276698E-08  0.209E-04    1.74      56.5  T
     SCC iter.                  ...        0 min,  0.089 sec
     gradient                   ...        0 min,  0.069 sec
 * total energy  :   -98.6532397 Eh     change       -0.2010321E+00 Eh
   gradient norm :     0.2659255 Eh/α   predicted    -0.1793478E+00 ( -10.79%)
   displ. norm   :     0.7057958 α      lambda       -0.1695388E+00
   maximum displ.:     0.2314093 α      in ANC's #49, #50, #123, ...

........................................................................
.............................. CYCLE    4 ..............................
........................................................................

 iter      E             dE          RMSdq      gap      omega  full diag
   1   -100.5729287 -0.100573E+03  0.448E-01    1.69       0.0  T
   2   -100.5031867  0.697419E-01  0.812E-01    0.87       1.0  T
   3   -100.5865598 -0.833730E-01  0.262E-01    1.86       1.0  T
   4   -100.5878880 -0.132826E-02  0.146E-01    1.62       1.0  T
   5   -100.5882545 -0.366501E-03  0.957E-02    1.61       1.0  T
   6   -100.5890628 -0.808264E-03  0.445E-02    1.68       1.0  T
   7   -100.5892486 -0.185771E-03  0.149E-02    1.69       1.0  T
   8   -100.5892685 -0.199581E-04  0.594E-03    1.71       2.0  T
   9   -100.5892689 -0.386357E-06  0.365E-03    1.71       3.2  T
  10   -100.5892693 -0.418565E-06  0.129E-03    1.71       9.1  T
  11   -100.5892695 -0.139782E-06  0.436E-04    1.71      27.0  T
  12   -100.5892695 -0.282245E-08  0.210E-04    1.71      56.0  T
     SCC iter.                  ...        0 min,  0.096 sec
     gradient                   ...        0 min,  0.070 sec
 * total energy  :   -98.7937874 Eh     change       -0.1405478E+00 Eh
   gradient norm :     0.1881619 Eh/α   predicted    -0.1269971E+00 (  -9.64%)
   displ. norm   :     0.7545515 α      lambda       -0.1276468E+00
   maximum displ.:     0.2758396 α      in ANC's #49, #50, #194, ...

........................................................................
.............................. CYCLE    5 ..............................
........................................................................

 iter      E             dE          RMSdq      gap      omega  full diag
   1   -100.4526792 -0.100453E+03  0.583E-01    0.97       0.0  T
   2   -100.0873333  0.365346E+00  0.166E+00    0.28       1.0  T
   3   -100.4675863 -0.380253E+00  0.669E-01    1.79       1.0  T
   4   -100.4949611 -0.273747E-01  0.305E-01    1.32       1.0  T
   5   -100.5008219 -0.586085E-02  0.188E-01    1.40       1.0  T
   6   -100.5024521 -0.163023E-02  0.123E-01    1.28       1.0  T
   7   -100.5037713 -0.131913E-02  0.358E-02    1.33       1.0  T
   8   -100.5038827 -0.111430E-03  0.969E-03    1.35       1.2  T
   9   -100.5038859 -0.322921E-05  0.758E-03    1.34       1.6  T
  10   -100.5038891 -0.313422E-05  0.251E-03    1.35       4.7  T
  11   -100.5038894 -0.377241E-06  0.716E-04    1.35      16.5  T
  12   -100.5038894 -0.643982E-08  0.475E-04    1.35      24.8  T
     SCC iter.                  ...        0 min,  0.096 sec
     gradient                   ...        0 min,  0.069 sec
 * total energy  :   -98.8994064 Eh     change       -0.1056189E+00 Eh
   gradient norm :     0.1502220 Eh/α   predicted    -0.1001612E+00 (  -5.17%)
   displ. norm   :     0.7461604 α      lambda       -0.8792485E-01
   maximum displ.:     0.3094315 α      in ANC's #49, #50, #194, ...

........................................................................
.............................. CYCLE    6 ..............................
........................................................................

 iter      E             dE          RMSdq      gap      omega  full diag
   1   -100.4212313 -0.100421E+03  0.624E-01    0.65       0.0  T
   2   -100.1176421  0.303589E+00  0.156E+00    0.83       1.0  T
   3   -100.4566376 -0.338996E+00  0.287E-01    1.11       1.0  T
   4   -100.4561020  0.535559E-03  0.252E-01    0.93       1.0  T
   5   -100.4614904 -0.538837E-02  0.144E-01    1.04       1.0  T
   6   -100.4631865 -0.169609E-02  0.672E-02    0.99       1.0  T
   7   -100.4636988 -0.512349E-03  0.219E-02    0.97       1.0  T
   8   -100.4637163 -0.174984E-04  0.149E-02    0.97       1.0  T
   9   -100.4637331 -0.167819E-04  0.734E-03    0.97       1.6  T
  10   -100.4637373 -0.421765E-05  0.168E-03    0.98       7.0  T
  11   -100.4637374 -0.433046E-07  0.157E-03    0.98       7.5  T
  12   -100.4637375 -0.152556E-06  0.603E-04    0.98      19.5  T
  13   -100.4637376 -0.283463E-07  0.139E-04    0.98      84.8  T
     SCC iter.                  ...        0 min,  0.104 sec
     gradient                   ...        0 min,  0.069 sec
 * total energy  :   -98.9694668 Eh     change       -0.7006045E-01 Eh
   gradient norm :     0.1464211 Eh/α   predicted    -0.6843884E-01 (  -2.31%)
   displ. norm   :     0.6973224 α      lambda       -0.6145386E-01
   maximum displ.:     0.3238873 α      in ANC's #49, #50, #48, ...

........................................................................
.............................. CYCLE    7 ..............................
........................................................................

 iter      E             dE          RMSdq      gap      omega  full diag
   1   -100.4621860 -0.100462E+03  0.447E-01    0.60       0.0  T
   2   -100.2796620  0.182524E+00  0.128E+00    1.31       1.0  T
   3   -100.4778986 -0.198237E+00  0.134E-01    0.78       1.0  T
   4   -100.4777629  0.135752E-03  0.920E-02    0.82       1.0  T
   5   -100.4787036 -0.940670E-03  0.197E-02    0.84       1.0  T
   6   -100.4787169 -0.133911E-04  0.130E-02    0.83       1.0  T
   7   -100.4787024  0.145578E-04  0.140E-02    0.83       1.0  T
   8   -100.4787248 -0.224608E-04  0.756E-03    0.83       1.6  T
   9   -100.4787313 -0.640405E-05  0.142E-03    0.83       8.3  T
  10   -100.4787313 -0.480893E-07  0.602E-04    0.83      19.6  T
  11   -100.4787313 -0.103016E-07  0.447E-04    0.83      26.3  T
     SCC iter.                  ...        0 min,  0.088 sec
     gradient                   ...        0 min,  0.069 sec
 * total energy  :   -99.0223027 Eh     change       -0.5283583E-01 Eh
   gradient norm :     0.1613251 Eh/α   predicted    -0.4566820E-01 ( -13.57%)
   displ. norm   :     0.7418045 α      lambda       -0.6459704E-01
   maximum displ.:     0.3574664 α      in ANC's #49, #50, #48, ...

........................................................................
.............................. CYCLE    8 ..............................
........................................................................

 iter      E             dE          RMSdq      gap      omega  full diag
   1   -100.5127422 -0.100513E+03  0.423E-01    0.54       0.0  T
   2   -100.3780388  0.134703E+00  0.115E+00    1.53       1.0  T
   3   -100.5214158 -0.143377E+00  0.190E-01    0.66       1.0  T
   4   -100.5142242  0.719162E-02  0.249E-01    0.74       1.0  T
   5   -100.5214604 -0.723621E-02  0.111E-01    0.78       1.0  T
   6   -100.5232320 -0.177158E-02  0.174E-02    0.73       1.0  T
   7   -100.5232574 -0.254002E-04  0.603E-03    0.74       2.0  T
   8   -100.5232583 -0.903532E-06  0.407E-03    0.74       2.9  T
   9   -100.5232596 -0.130662E-05  0.174E-03    0.74       6.8  T
  10   -100.5232599 -0.279718E-06  0.415E-04    0.74      28.4  T
  11   -100.5232599 -0.800596E-08  0.214E-04    0.74      55.0  T
     SCC iter.                  ...        0 min,  0.088 sec
     gradient                   ...        0 min,  0.069 sec
 * total energy  :   -99.0817427 Eh     change       -0.5943998E-01 Eh
   gradient norm :     0.1760756 Eh/α   predicted    -0.5007156E-01 ( -15.76%)
   displ. norm   :     0.7928176 α      lambda       -0.8525821E-01
   maximum displ.:     0.3562300 α      in ANC's #49, #50, #48, ...

........................................................................
.............................. CYCLE    9 ..............................
........................................................................

 iter      E             dE          RMSdq      gap      omega  full diag
   1   -100.5680241 -0.100568E+03  0.595E-01    0.32       0.0  T
   2   -100.4067922  0.161232E+00  0.131E+00    1.61       1.0  T
   3   -100.5778435 -0.171051E+00  0.352E-01    0.47       1.0  T
   4   -100.5584556  0.193879E-01  0.464E-01    0.64       1.0  T
   5   -100.5862762 -0.278206E-01  0.156E-01    0.61       1.0  T
   6   -100.5879801 -0.170395E-02  0.474E-02    0.56       1.0  T
   7   -100.5882352 -0.255098E-03  0.134E-02    0.57       1.0  T
   8   -100.5882453 -0.100574E-04  0.103E-02    0.58       1.1  T
   9   -100.5882521 -0.682283E-05  0.358E-03    0.58       3.3  T
  10   -100.5882526 -0.557082E-06  0.215E-03    0.58       5.5  T
  11   -100.5882531 -0.475660E-06  0.469E-04    0.58      25.1  T
  12   -100.5882531  0.601020E-08  0.364E-04    0.58      32.3  T
     SCC iter.                  ...        0 min,  0.096 sec
     gradient                   ...        0 min,  0.069 sec
 * total energy  :   -99.1605597 Eh     change       -0.7881708E-01 Eh
   gradient norm :     0.1583835 Eh/α   predicted    -0.6942437E-01 ( -11.92%)
   displ. norm   :     0.7700272 α      lambda       -0.9668533E-01
   maximum displ.:     0.2729575 α      in ANC's #49, #208, #201, ...

........................................................................
.............................. CYCLE   10 ..............................
........................................................................

 iter      E             dE          RMSdq      gap      omega  full diag
   1   -100.5261200 -0.100526E+03  0.108E+00    0.21       0.0  T
   2   -100.2798569  0.246263E+00  0.186E+00    1.82       1.0  T
   3   -100.6018984 -0.322041E+00  0.698E-01    0.20       1.0  T
   4   -100.6297108 -0.278124E-01  0.604E-01    0.64       1.0  T
   5   -100.6574423 -0.277315E-01  0.237E-01    0.36       1.0  T
   6   -100.6551971  0.224519E-02  0.206E-01    0.19       1.0  T
   7   -100.6592432 -0.404615E-02  0.503E-02    0.27       1.0  T
   8   -100.6594558 -0.212578E-03  0.361E-02    0.33       1.0  T
   9   -100.6595866 -0.130748E-03  0.585E-03    0.30       2.0  T
  10   -100.6595850  0.152506E-05  0.582E-03    0.30       2.0  T
  11   -100.6595879 -0.282887E-05  0.235E-03    0.30       5.0  T
  12   -100.6595882 -0.374129E-06  0.593E-04    0.30      19.9  T
  13   -100.6595882 -0.144197E-07  0.322E-04    0.30      36.7  T
     SCC iter.                  ...        0 min,  0.104 sec
     gradient                   ...        0 min,  0.069 sec
 * total energy  :   -99.1999826 Eh     change       -0.3942284E-01 Eh
   gradient norm :     0.2525400 Eh/α   predicted    -0.7700705E-01 (  95.34%)
   displ. norm   :     0.3619986 α      lambda       -0.6886780E-01
   maximum displ.:     0.1270273 α      in ANC's #49, #208, #193, ...

........................................................................
.............................. CYCLE   11 ..............................
........................................................................

 iter      E             dE          RMSdq      gap      omega  full diag
   1   -100.5847706 -0.100585E+03  0.585E-01    0.74       0.0  T
   2   -100.2875120  0.297259E+00  0.173E+00    0.28       1.0  T
   3   -100.6071271 -0.319615E+00  0.393E-01    0.64       1.0  T
   4   -100.6051806  0.194650E-02  0.376E-01    0.22       1.0  T
   5   -100.6220206 -0.168400E-01  0.133E-01    0.41       1.0  T
   6   -100.6219554  0.651409E-04  0.109E-01    0.36       1.0  T
   7   -100.6226241 -0.668697E-03  0.712E-02    0.36       1.0  T
   8   -100.6231554 -0.531212E-03  0.150E-02    0.39       1.0  T
   9   -100.6231714 -0.160844E-04  0.898E-03    0.40       1.3  T
  10   -100.6231770 -0.558944E-05  0.447E-03    0.40       2.6  T
  11   -100.6231789 -0.188116E-05  0.126E-03    0.40       9.4  T
  12   -100.6231790 -0.111230E-06  0.261E-04    0.40      45.1  T
  13   -100.6231790 -0.148532E-08  0.198E-04    0.40      59.6  T
     SCC iter.                  ...        0 min,  0.104 sec
     gradient                   ...        0 min,  0.069 sec
 * total energy  :   -99.2233851 Eh     change       -0.2340255E-01 Eh
   gradient norm :     0.0954748 Eh/α   predicted    -0.3894632E-01 (  66.42%)
   displ. norm   :     0.4942040 α      lambda       -0.2250157E-01
   maximum displ.:     0.2097311 α      in ANC's #49, #2, #33, ...

........................................................................
.............................. CYCLE   12 ..............................
........................................................................

 iter      E             dE          RMSdq      gap      omega  full diag
   1   -100.6410190 -0.100641E+03  0.175E-01    0.26       0.0  T
   2   -100.6202431  0.207759E-01  0.461E-01    0.75       1.0  T
   3   -100.6416913 -0.214482E-01  0.151E-01    0.31       1.0  T
   4   -100.6437486 -0.205724E-02  0.876E-02    0.40       1.0  T
   5   -100.6442662 -0.517573E-03  0.421E-02    0.38       1.0  T
   6   -100.6443496 -0.834568E-04  0.165E-02    0.35       1.0  T
   7   -100.6443739 -0.243253E-04  0.625E-03    0.36       1.9  T
   8   -100.6443789 -0.495331E-05  0.172E-03    0.36       6.8  T
   9   -100.6443790 -0.105537E-06  0.112E-03    0.36      10.5  T
  10   -100.6443791 -0.108990E-06  0.269E-04    0.36      43.8  T
  11   -100.6443791 -0.285131E-08  0.149E-04    0.36      79.2  T
     SCC iter.                  ...        0 min,  0.089 sec
     gradient                   ...        0 min,  0.070 sec
 * total energy  :   -99.2424375 Eh     change       -0.1905235E-01 Eh
   gradient norm :     0.0681707 Eh/α   predicted    -0.1399864E-01 ( -26.53%)
   displ. norm   :     0.6214046 α      lambda       -0.2592668E-01
   maximum displ.:     0.2483647 α      in ANC's #49, #33, #2, ...

........................................................................
.............................. CYCLE   13 ..............................
........................................................................

 iter      E             dE          RMSdq      gap      omega  full diag
   1   -100.6645292 -0.100665E+03  0.269E-01    0.28       0.0  T
   2   -100.6511373  0.133919E-01  0.379E-01    0.38       1.0  T
   3   -100.6660206 -0.148833E-01  0.241E-01    0.44       1.0  T
   4   -100.6683041 -0.228357E-02  0.148E-01    0.21       1.0  T
   5   -100.6685769 -0.272796E-03  0.143E-01    0.43       1.0  T
   6   -100.6704642 -0.188724E-02  0.222E-02    0.32       1.0  T
   7   -100.6705068 -0.425708E-04  0.761E-03    0.32       1.5  T
   8   -100.6705131 -0.633695E-05  0.386E-03    0.32       3.1  T
   9   -100.6705137 -0.602298E-06  0.244E-03    0.32       4.8  T
  10   -100.6705141 -0.409063E-06  0.687E-04    0.32      17.2  T
  11   -100.6705141 -0.441323E-07  0.297E-04    0.32      39.7  T
     SCC iter.                  ...        0 min,  0.088 sec
     gradient                   ...        0 min,  0.069 sec
 * total energy  :   -99.2614499 Eh     change       -0.1901241E-01 Eh
   gradient norm :     0.0637910 Eh/α   predicted    -0.1796911E-01 (  -5.49%)
   displ. norm   :     0.5772274 α      lambda       -0.1536498E-01
   maximum displ.:     0.2324799 α      in ANC's #49, #33, #2, ...

........................................................................
.............................. CYCLE   14 ..............................
........................................................................

 iter      E             dE          RMSdq      gap      omega  full diag
   1   -100.6730479 -0.100673E+03  0.268E-01    0.43       0.0  T
   2   -100.6063719  0.666760E-01  0.786E-01    0.20       1.0  T
   3   -100.6701129 -0.637410E-01  0.271E-01    0.51       1.0  T
   4   -100.6737493 -0.363637E-02  0.133E-01    0.32       1.0  T
   5   -100.6760538 -0.230451E-02  0.306E-02    0.35       1.0  T
   6   -100.6761348 -0.810554E-04  0.913E-03    0.34       1.3  T
   7   -100.6761397 -0.490662E-05  0.486E-03    0.34       2.4  T
   8   -100.6761411 -0.138376E-05  0.235E-03    0.34       5.0  T
   9   -100.6761415 -0.413741E-06  0.600E-04    0.33      19.6  T
  10   -100.6761416 -0.200181E-07  0.205E-04    0.33      57.6  T
     SCC iter.                  ...        0 min,  0.080 sec
     gradient                   ...        0 min,  0.069 sec
 * total energy  :   -99.2738719 Eh     change       -0.1242199E-01 Eh
   gradient norm :     0.0517203 Eh/α   predicted    -0.1024247E-01 ( -17.55%)
   displ. norm   :     0.5955824 α      lambda       -0.1217807E-01
   maximum displ.:     0.2524371 α      in ANC's #33, #49, #2, ...

........................................................................
.............................. CYCLE   15 ..............................
........................................................................

 iter      E             dE          RMSdq      gap      omega  full diag
   1   -100.6658067 -0.100666E+03  0.335E-01    0.53       0.0  T
   2   -100.5400974  0.125709E+00  0.112E+00    0.43       1.0  T
   3   -100.6645459 -0.124449E+00  0.298E-01    0.54       1.0  T
   4   -100.6700537 -0.550785E-02  0.116E-01    0.42       1.0  T
   5   -100.6715621 -0.150833E-02  0.397E-02    0.37       1.0  T
   6   -100.6717140 -0.151941E-03  0.953E-03    0.37       1.2  T
   7   -100.6717190 -0.499462E-05  0.444E-03    0.37       2.7  T
   8   -100.6717192 -0.223485E-06  0.262E-03    0.37       4.5  T
   9   -100.6717198 -0.536689E-06  0.830E-04    0.37      14.2  T
  10   -100.6717199 -0.905296E-07  0.241E-04    0.37      48.9  T
     SCC iter.                  ...        0 min,  0.081 sec
     gradient                   ...        0 min,  0.069 sec
 * total energy  :   -99.2827470 Eh     change       -0.8875104E-02 Eh
   gradient norm :     0.0317144 Eh/α   predicted    -0.8248966E-02 (  -7.05%)
   displ. norm   :     0.5544072 α      lambda       -0.6670618E-02
   maximum displ.:     0.2340520 α      in ANC's #33, #49, #1, ...

........................................................................
.............................. CYCLE   16 ..............................
........................................................................

 iter      E             dE          RMSdq      gap      omega  full diag
   1   -100.6649488 -0.100665E+03  0.257E-01    0.51       0.0  T
   2   -100.6071618  0.577870E-01  0.769E-01    0.14       1.0  T
   3   -100.6626643 -0.555024E-01  0.248E-01    0.53       1.0  T
   4   -100.6642366 -0.157237E-02  0.156E-01    0.46       1.0  T
   5   -100.6674713 -0.323471E-02  0.141E-02    0.39       1.0  T
   6   -100.6674829 -0.115517E-04  0.548E-03    0.40       2.2  T
   7   -100.6674840 -0.114854E-05  0.290E-03    0.39       4.1  T
   8   -100.6674841 -0.856027E-07  0.177E-03    0.39       6.6  T
   9   -100.6674844 -0.319517E-06  0.537E-04    0.39      22.0  T
  10   -100.6674845 -0.279809E-07  0.222E-04    0.39      53.1  T
     SCC iter.                  ...        0 min,  0.081 sec
     gradient                   ...        0 min,  0.069 sec
 * total energy  :   -99.2864496 Eh     change       -0.3702661E-02 Eh
   gradient norm :     0.0354331 Eh/α   predicted    -0.4360485E-02 (  17.77%)
   displ. norm   :     0.5735426 α      lambda       -0.6514889E-02
   maximum displ.:     0.3000763 α      in ANC's #1, #33, #49, ...

........................................................................
.............................. CYCLE   17 ..............................
........................................................................

 iter      E             dE          RMSdq      gap      omega  full diag
   1   -100.6638204 -0.100664E+03  0.224E-01    0.46       0.0  T
   2   -100.6462199  0.176006E-01  0.433E-01    0.13       1.0  T
   3   -100.6599527 -0.137328E-01  0.245E-01    0.54       1.0  T
   4   -100.6642891 -0.433644E-02  0.584E-02    0.43       1.0  T
   5   -100.6646113 -0.322214E-03  0.111E-02    0.41       1.1  T
   6   -100.6646227 -0.113074E-04  0.388E-03    0.40       3.0  T
   7   -100.6646228 -0.152177E-06  0.257E-03    0.40       4.6  T
   8   -100.6646230 -0.161923E-06  0.173E-03    0.40       6.8  T
   9   -100.6646232 -0.239924E-06  0.904E-04    0.40      13.0  T
  10   -100.6646233 -0.111892E-06  0.169E-04    0.40      69.8  T
     SCC iter.                  ...        0 min,  0.080 sec
     gradient                   ...        0 min,  0.068 sec
 * total energy  :   -99.2891716 Eh     change       -0.2722006E-02 Eh
   gradient norm :     0.0285092 Eh/α   predicted    -0.4328986E-02 (  59.04%)
   displ. norm   :     0.1600148 α      lambda       -0.2255292E-02
   maximum displ.:     0.0811793 α      in ANC's #1, #33, #18, ...

........................................................................
.............................. CYCLE   18 ..............................
........................................................................

 iter      E             dE          RMSdq      gap      omega  full diag
   1   -100.6728102 -0.100673E+03  0.731E-02    0.39       0.0  T
   2   -100.6716965  0.111373E-02  0.109E-01    0.47       1.0  T
   3   -100.6718109 -0.114467E-03  0.112E-01    0.34       1.0  T
   4   -100.6728471 -0.103612E-02  0.169E-02    0.40       1.0  T
   5   -100.6728607 -0.136347E-04  0.995E-03    0.40       1.2  T
   6   -100.6728660 -0.525200E-05  0.640E-03    0.40       1.8  T
   7   -100.6728693 -0.335462E-05  0.294E-03    0.40       4.0  T
   8   -100.6728699 -0.573413E-06  0.945E-04    0.40      12.5  T
   9   -100.6728700 -0.663197E-07  0.210E-04    0.40      56.2  T
     SCC iter.                  ...        0 min,  0.073 sec
     gradient                   ...        0 min,  0.068 sec
 * total energy  :   -99.2907873 Eh     change       -0.1615662E-02 Eh
   gradient norm :     0.0136922 Eh/α   predicted    -0.1156525E-02 ( -28.42%)
   displ. norm   :     0.2634004 α      lambda       -0.1391742E-02
   maximum displ.:     0.1234199 α      in ANC's #33, #18, #49, ...

........................................................................
.............................. CYCLE   19 ..............................
........................................................................

 iter      E             dE          RMSdq      gap      omega  full diag
   1   -100.6764878 -0.100676E+03  0.753E-02    0.40       0.0  T
   2   -100.6764731  0.147176E-04  0.467E-02    0.41       1.0  T
   3   -100.6758957  0.577369E-03  0.802E-02    0.35       1.0  T
   4   -100.6760768 -0.181098E-03  0.641E-02    0.44       1.0  T
   5   -100.6764511 -0.374286E-03  0.247E-02    0.40       1.0  T
   6   -100.6765201 -0.689485E-04  0.402E-03    0.40       2.9  T
   7   -100.6765211 -0.104373E-05  0.207E-03    0.40       5.7  T
   8   -100.6765213 -0.237546E-06  0.635E-04    0.40      18.6  T
   9   -100.6765214 -0.225071E-07  0.255E-04    0.40      46.3  T
     SCC iter.                  ...        0 min,  0.073 sec
     gradient                   ...        0 min,  0.069 sec
 * total energy  :   -99.2917260 Eh     change       -0.9386664E-03 Eh
   gradient norm :     0.0097630 Eh/α   predicted    -0.7441693E-03 ( -20.72%)
   displ. norm   :     0.2080086 α      lambda       -0.6667964E-03
   maximum displ.:     0.0896336 α      in ANC's #33, #18, #17, ...

........................................................................
.............................. CYCLE   20 ..............................
........................................................................

 iter      E             dE          RMSdq      gap      omega  full diag
   1   -100.6774468 -0.100677E+03  0.521E-02    0.40       0.0  T
   2   -100.6774318  0.149724E-04  0.332E-02    0.41       1.0  T
   3   -100.6772221  0.209755E-03  0.452E-02    0.38       1.0  T
   4   -100.6774255 -0.203491E-03  0.182E-02    0.41       1.0  T
   5   -100.6774155  0.100637E-04  0.211E-02    0.39       1.0  T
   6   -100.6774613 -0.458446E-04  0.155E-03    0.40       7.6  T
   7   -100.6774614 -0.960439E-07  0.910E-04    0.40      13.0  T
   8   -100.6774614 -0.182981E-07  0.324E-04    0.40      36.4  T
     SCC iter.                  ...        0 min,  0.065 sec
     gradient                   ...        0 min,  0.068 sec
 * total energy  :   -99.2922206 Eh     change       -0.4946237E-03 Eh
   gradient norm :     0.0100586 Eh/α   predicted    -0.3478290E-03 ( -29.68%)
   displ. norm   :     0.2233465 α      lambda       -0.6097944E-03
   maximum displ.:     0.0994489 α      in ANC's #18, #33, #17, ...
 * RMSD in coord.:     1.0427768 α      energy gain  -0.1117989E+01 Eh

generating ANC from model Hessian ...
Using Lindh-Hessian (1995)
 Shifting diagonal of input Hessian by    1.0044566958022345E-002
 Lowest  eigenvalues of input Hessian
    0.010000    0.010011    0.000000    0.000000    0.000000    0.000000
    0.000000    0.000000    0.010084    0.010119    0.010208    0.010309
    0.010468    0.010627    0.010629    0.010648    0.010702    0.010762
 Highest eigenvalues
    1.988104    2.048908    2.056300    2.120048    2.185326    2.296631


........................................................................
.............................. CYCLE   21 ..............................
........................................................................

 iter      E             dE          RMSdq      gap      omega  full diag
   1   -100.6770963 -0.100677E+03  0.523E-02    0.40       0.0  T
   2   -100.6770767  0.196015E-04  0.337E-02    0.39       1.0  T
   3   -100.6760088  0.106788E-02  0.102E-01    0.45       1.0  T
   4   -100.6770409 -0.103202E-02  0.247E-02    0.38       1.0  T
   5   -100.6770956 -0.547497E-04  0.839E-03    0.41       1.4  T
   6   -100.6771041 -0.848336E-05  0.159E-03    0.40       7.4  T
   7   -100.6771042 -0.144540E-06  0.753E-04    0.40      15.7  T
   8   -100.6771042 -0.134555E-07  0.297E-04    0.40      39.7  T
     SCC iter.                  ...        0 min,  0.065 sec
     gradient                   ...        0 min,  0.074 sec
 * total energy  :   -99.2926426 Eh     change       -0.4220454E-03 Eh
   gradient norm :     0.0077731 Eh/α   predicted     0.0000000E+00 (-100.00%)
   displ. norm   :     0.2603513 α      lambda       -0.1064583E-02
   maximum displ.:     0.1379601 α      in ANC's #7, #18, #19, ...

........................................................................
.............................. CYCLE   22 ..............................
........................................................................

 iter      E             dE          RMSdq      gap      omega  full diag
   1   -100.6752144 -0.100675E+03  0.666E-02    0.41       0.0  T
   2   -100.6751192  0.952677E-04  0.476E-02    0.38       1.0  T
   3   -100.6729562  0.216293E-02  0.154E-01    0.50       1.0  T
   4   -100.6751704 -0.221412E-02  0.212E-02    0.41       1.0  T
   5   -100.6752192 -0.488737E-04  0.810E-03    0.40       1.5  T
   6   -100.6752258 -0.655839E-05  0.274E-03    0.40       4.3  T
   7   -100.6752260 -0.253533E-06  0.131E-03    0.40       9.0  T
   8   -100.6752262 -0.112623E-06  0.446E-04    0.40      26.4  T
   9   -100.6752262 -0.118250E-07  0.210E-04    0.40      56.2  T
     SCC iter.                  ...        0 min,  0.073 sec
     gradient                   ...        0 min,  0.068 sec
 * total energy  :   -99.2931659 Eh     change       -0.5232434E-03 Eh
   gradient norm :     0.0068967 Eh/α   predicted    -0.5693637E-03 (   8.81%)
   displ. norm   :     0.2429482 α      lambda       -0.6813395E-03
   maximum displ.:     0.1418139 α      in ANC's #18, #19, #13, ...

........................................................................
.............................. CYCLE   23 ..............................
........................................................................

 iter      E             dE          RMSdq      gap      omega  full diag
   1   -100.6768683 -0.100677E+03  0.461E-02    0.41       0.0  T
   2   -100.6764434  0.424887E-03  0.705E-02    0.36       1.0  T
   3   -100.6766040 -0.160543E-03  0.580E-02    0.44       1.0  T
   4   -100.6768669 -0.262950E-03  0.161E-02    0.41       1.0  T
   5   -100.6768843 -0.174119E-04  0.770E-03    0.40       1.5  T
   6   -100.6768912 -0.683552E-05  0.211E-03    0.40       5.6  T
   7   -100.6768916 -0.377442E-06  0.961E-04    0.40      12.3  T
   8   -100.6768916 -0.509210E-07  0.338E-04    0.40      34.8  T
     SCC iter.                  ...        0 min,  0.065 sec
     gradient                   ...        0 min,  0.068 sec
 * total energy  :   -99.2936584 Eh     change       -0.4925006E-03 Eh
   gradient norm :     0.0038055 Eh/α   predicted    -0.3608156E-03 ( -26.74%)
   displ. norm   :     0.2902366 α      lambda       -0.4069793E-03
   maximum displ.:     0.1704661 α      in ANC's #18, #19, #14, ...

........................................................................
.............................. CYCLE   24 ..............................
........................................................................

 iter      E             dE          RMSdq      gap      omega  full diag
   1   -100.6780832 -0.100678E+03  0.540E-02    0.41       0.0  T
   2   -100.6777570  0.326220E-03  0.648E-02    0.36       1.0  T
   3   -100.6774631  0.293896E-03  0.845E-02    0.45       1.0  T
   4   -100.6780105 -0.547413E-03  0.297E-02    0.41       1.0  T
   5   -100.6780976 -0.870996E-04  0.913E-03    0.40       1.3  T
   6   -100.6781078 -0.102589E-04  0.191E-03    0.40       6.2  T
   7   -100.6781082 -0.305592E-06  0.872E-04    0.40      13.5  T
   8   -100.6781082 -0.243584E-07  0.356E-04    0.40      33.1  T
     SCC iter.                  ...        0 min,  0.065 sec
     gradient                   ...        0 min,  0.069 sec
 * total energy  :   -99.2939207 Eh     change       -0.2623036E-03 Eh
   gradient norm :     0.0030029 Eh/α   predicted    -0.2206338E-03 ( -15.89%)
   displ. norm   :     0.1756145 α      lambda       -0.1330103E-03
   maximum displ.:     0.0890459 α      in ANC's #18, #14, #13, ...

........................................................................
.............................. CYCLE   25 ..............................
........................................................................

 iter      E             dE          RMSdq      gap      omega  full diag
   1   -100.6790950 -0.100679E+03  0.378E-02    0.41       0.0  T
   2   -100.6790125  0.825173E-04  0.358E-02    0.38       1.0  T
   3   -100.6786663  0.346181E-03  0.687E-02    0.45       1.0  T
   4   -100.6790400 -0.373685E-03  0.234E-02    0.41       1.0  T
   5   -100.6790996 -0.596537E-04  0.592E-03    0.40       2.0  T
   6   -100.6791039 -0.425110E-05  0.114E-03    0.40      10.3  T
   7   -100.6791040 -0.108624E-06  0.502E-04    0.40      23.5  T
   8   -100.6791040 -0.701779E-08  0.202E-04    0.40      58.5  T
     SCC iter.                  ...        0 min,  0.065 sec
     gradient                   ...        0 min,  0.068 sec
 * total energy  :   -99.2940185 Eh     change       -0.9784939E-04 Eh
   gradient norm :     0.0024575 Eh/α   predicted    -0.6855656E-04 ( -29.94%)
   displ. norm   :     0.1820898 α      lambda       -0.1086163E-03
   maximum displ.:     0.0836918 α      in ANC's #14, #18, #13, ...

........................................................................
.............................. CYCLE   26 ..............................
........................................................................

 iter      E             dE          RMSdq      gap      omega  full diag
   1   -100.6797553 -0.100680E+03  0.483E-02    0.41       0.0  T
   2   -100.6796981  0.572053E-04  0.361E-02    0.38       1.0  T
   3   -100.6788330  0.865062E-03  0.991E-02    0.47       1.0  T
   4   -100.6796769 -0.843949E-03  0.273E-02    0.41       1.0  T
   5   -100.6797579 -0.809238E-04  0.700E-03    0.40       1.7  T
   6   -100.6797639 -0.607938E-05  0.117E-03    0.40      10.1  T
   7   -100.6797641 -0.123681E-06  0.516E-04    0.40      22.8  T
   8   -100.6797641 -0.933630E-08  0.204E-04    0.40      57.8  T
     SCC iter.                  ...        0 min,  0.065 sec
     gradient                   ...        0 min,  0.068 sec
 * total energy  :   -99.2940945 Eh     change       -0.7598675E-04 Eh
   gradient norm :     0.0021069 Eh/α   predicted    -0.5610896E-04 ( -26.16%)
   displ. norm   :     0.1446494 α      lambda       -0.6332482E-04
   maximum displ.:     0.0675556 α      in ANC's #14, #2, #11, ...

........................................................................
.............................. CYCLE   27 ..............................
........................................................................

 iter      E             dE          RMSdq      gap      omega  full diag
   1   -100.6797425 -0.100680E+03  0.452E-02    0.41       0.0  T
   2   -100.6797184  0.241375E-04  0.299E-02    0.39       1.0  T
   3   -100.6788257  0.892649E-03  0.977E-02    0.47       1.0  T
   4   -100.6797064 -0.880668E-03  0.187E-02    0.41       1.0  T
   5   -100.6797427 -0.363359E-04  0.562E-03    0.40       2.1  T
   6   -100.6797467 -0.393025E-05  0.877E-04    0.40      13.4  T
   7   -100.6797467 -0.708116E-07  0.430E-04    0.40      27.4  T
   8   -100.6797467 -0.101459E-07  0.163E-04    0.40      72.1  T
     SCC iter.                  ...        0 min,  0.065 sec
     gradient                   ...        0 min,  0.068 sec
 * total energy  :   -99.2941425 Eh     change       -0.4799787E-04 Eh
   gradient norm :     0.0021189 Eh/α   predicted    -0.3232509E-04 ( -32.65%)
   displ. norm   :     0.1723507 α      lambda       -0.6597339E-04
   maximum displ.:     0.0746794 α      in ANC's #14, #2, #4, ...

   *** GEOMETRY OPTIMIZATION CONVERGED AFTER 27 ITERATIONS ***

------------------------------------------------------------------------
 total energy gain   :        -1.1199104 Eh     -702.7544 kcal/mol
 total RMSD          :         1.0626422 a0        0.5623 Å
 total power (kW/mol):      -108.9009061 (step) -618.1187 (real)
------------------------------------------------------------------------

 ANCopt (total)                0 d,  0 h,  0 min,  4.757 sec
 optimizer setup                ...        0 min,  0.000 sec (  0.006%)
 model hessian                  ...        0 min,  0.107 sec (  2.241%)
 ANC generation                 ...        0 min,  0.013 sec (  0.275%)
 coordinate transformation      ...        0 min,  0.002 sec (  0.039%)
 single point calculation       ...        0 min,  4.603 sec ( 96.754%)
 optimization log               ...        0 min,  0.007 sec (  0.144%)
 hessian update                 ...        0 min,  0.002 sec (  0.038%)
 rational function              ...        0 min,  0.010 sec (  0.205%)

================
 final structure:
================
72
 xtb: 6.6.1 (8d0f1dd)
N           -1.85151268700029        2.98484951417626        2.17985952707692
C           -1.80456473740705        2.29926868875767        1.13842273270679
C           -2.94837025405233        2.11069500298383        0.18080171647225
C           -3.43902590214791        0.67534585903526        0.25756717722753
C           -4.38595494758323        0.21009388241368       -0.65714450739907
C           -4.83188538916614       -1.09835037486694       -0.64776312903878
O           -5.75592528985629       -1.60719420001208       -1.47248055205174
C           -6.43259147623165       -0.76426666852557       -2.37401382904358
C           -4.28749026163925       -2.06994209252731        0.30788095561562
O           -4.61344533924562       -3.26446448748025        0.29370570872363
C           -4.81739698195643       -6.60814454109404        2.33716164763825
C           -3.35438963866628       -1.52699197639679        1.25074051628347
C           -2.95836999493337       -0.21601664466814        1.22553227703743
C           -2.37444648763375        2.38311566284969       -1.23545947759297
C           -1.45345016377069        1.27400991978254       -1.77444447332503
C           -0.13447697937264        1.21760120352810       -1.10596681806691
N            0.48702004326510        0.11359345308359       -0.72135165645499
C            1.85932760844100        0.16373379139891       -0.27428526144794
C            2.83056576730946       -0.32284192007980       -1.36714636494498
C            4.25088202798508       -0.12557004757114       -0.91616883526061
C            4.89530903441382        1.08214000123913       -1.13515113565742
C            6.19706159190196        1.28162416586291       -0.70399230829371
C            6.88223530135763        0.27461923888147       -0.03834258468683
O            8.14374666964570        0.35347251787528        0.41910766200906
C            8.88051224504592        1.53674609227612        0.21069001770650
C            6.22720504380202       -0.96744921921059        0.19610454951129
O            6.96486837376242       -1.88797948939781        0.84429376802828
C            6.41951731387994       -3.16157911621864        1.09538238256348
C            4.92349483223551       -1.14200288296408       -0.24305107834641
C           -0.14142609009747       -1.18494219378385       -0.78364207720608
C           -4.14309532238813        3.07154130173729        0.45986423970851
C           -4.81104544242736        2.75172053908324        1.79405628343665
C           -3.75084544263752        4.54533979845383        0.41522418130050
H           -4.78742692122188        0.89494591235730       -1.38765241915370
H           -6.94148258434163        0.05085808396579       -1.85088905018323
H           -7.17043794643221       -1.39227557758596       -2.86901863622177
H           -5.75039400937886       -0.34987674319956       -3.12336545360152
H           -5.15319128906506       -6.21578701217326        3.27322132100457
H           -5.50949084171537       -6.73199812645476        1.53065015380155
H           -3.78629242730444       -6.85415670350642        2.19802810334963
H           -2.97666895118596       -2.20952702723725        1.99633869847022
H           -2.26936434301344        0.13660739736993        1.97924099600734
H           -3.20539958559444        2.49507202362103       -1.93099422144669
H           -1.82713428047867        3.32617123044012       -1.21937966687783
H           -1.96817951302415        0.31605859380247       -1.73291172129135
H           -1.26853239897424        1.50867355152708       -2.83059503100329
H           -0.89120319078921        1.78167611099460        0.78182575355272
H            0.43837461753810        2.13341876497951       -1.06695857154539
H            1.97017547811478       -0.45950926161682        0.61697225037616
H            2.11594640008227        1.19111910131389       -0.00744978581068
H            2.64906119549250        0.25241678585396       -2.27683941403406
H            2.64535640196102       -1.37576901981579       -1.58124097848097
H            4.38813727789063        1.87757766198141       -1.65986512477844
H            6.67440315754838        2.22817991521130       -0.89712934839200
H            8.41283438726610        2.39237574201088        0.70710139469428
H            8.99881779429394        1.75170009973965       -0.85547145205315
H            9.85794894424773        1.35344441439445        0.65258603908945
H            7.20464439620237       -3.72046252656015        1.60082372532364
H            5.54239321684106       -3.10105303879024        1.74743492143558
H            6.15180597040731       -3.67356698314132        0.16605597710841
H            4.42157124876318       -2.08228540780280       -0.07687602609572
H           -0.29208955004914       -1.50147300137800       -1.81760277486629
H           -1.10934297348449       -1.16871434668628       -0.27656916643615
H            0.49224338531356       -1.91494867911551       -0.28722275828507
H           -4.87615641704298        2.89438829890795       -0.33538892135289
H           -4.11736034208938        2.92724019399483        2.61003314801132
H           -5.14159149111585        1.71642433699425        1.82864220988752
H           -5.67699346965994        3.39332253115076        1.93163483229060
H           -3.00703685350462        4.76263042101266        1.17589263146232
H           -3.36446300008599        4.83420747418685       -0.55825543719817
H           -4.62817083469493        5.15320159933949        0.61704854847028
H           -1.01083208554513        3.06205795379498        2.74341884314440

 Bond Distances (Angstroems)
 ---------------------------
N1-C2=1.2477         N1-H72=1.0150        C2-N1=1.2477         C2-C3=1.5036         C2-H47=1.1087        C3-C2=1.5036         
C3-C4=1.5188         C3-C14=1.5522        C3-C31=1.5584        C4-C3=1.5188         C4-C5=1.3964         C4-C13=1.4009        
C5-C4=1.3964         C5-C6=1.3824         C5-H34=1.0788        C6-C5=1.3824         C6-O7=1.3390         C6-C9=1.4675         
O7-C6=1.3390         O7-C8=1.4075         C8-O7=1.4075         C8-H35=1.0941        C8-H36=1.0880        C8-H37=1.0948        
C9-C6=1.4675         C9-O10=1.2383        C9-C12=1.4333        O10-C9=1.2383        C11-H38=1.0691       C11-H39=1.0700       
C11-H40=1.0691       C12-C9=1.4333        C12-C13=1.3697       C12-H41=1.0791       C13-C4=1.4009        C13-C12=1.3697       
C13-H42=1.0803       C14-C3=1.5522        C14-C15=1.5391       C14-H43=1.0894       C14-H44=1.0905       C15-C14=1.5391       
C15-C16=1.4798       C15-H45=1.0883       C15-H46=1.0976       C16-C15=1.4798       C16-N17=1.3240       C16-H48=1.0809       
N17-C16=1.3240       N17-C18=1.4442       N17-C30=1.4440       C18-N17=1.4442       C18-C19=1.5409       C18-H49=1.0932       
C18-H50=1.0921       C19-C18=1.5409       C19-C20=1.5032       C19-H51=1.0915       C19-H52=1.0903       C20-C19=1.5032       
C20-C21=1.3863       C20-C29=1.3923       C21-C20=1.3863       C21-C22=1.3857       C21-H53=1.0795       C22-C21=1.3857       
C22-C23=1.3880       C22-H54=1.0776       C23-C22=1.3880       C23-O24=1.3442       C23-C26=1.4236       O24-C23=1.3442       
O24-C25=1.4094       C25-O24=1.4094       C25-H55=1.0942       C25-H56=1.0940       C25-H57=1.0882       C26-C23=1.4236       
C26-O27=1.3460       C26-C29=1.3867       O27-C26=1.3460       O27-C28=1.4080       C28-O27=1.4080       C28-H58=1.0882       
C28-H59=1.0946       C28-H60=1.0943       C29-C20=1.3923       C29-C26=1.3867       C29-H61=1.0787       C30-N17=1.4440       
C30-H62=1.0918       C30-H63=1.0928       C30-H64=1.0867       C31-C3=1.5584        C31-C32=1.5259       C31-C33=1.5258       
C31-H65=1.0960       C32-C31=1.5259       C32-H66=1.0853       C32-H67=1.0873       C32-H68=1.0865       C33-C31=1.5258       
C33-H69=1.0859       C33-H70=1.0865       C33-H71=1.0862       H34-C5=1.0788        H35-C8=1.0941        H36-C8=1.0880        
H37-C8=1.0948        H38-C11=1.0691       H39-C11=1.0700       H40-C11=1.0691       H41-C12=1.0791       H42-C13=1.0803       
H43-C14=1.0894       H44-C14=1.0905       H45-C15=1.0883       H46-C15=1.0976       H47-C2=1.1087        H48-C16=1.0809       
H49-C18=1.0932       H50-C18=1.0921       H51-C19=1.0915       H52-C19=1.0903       H53-C21=1.0795       H54-C22=1.0776       
H55-C25=1.0942       H56-C25=1.0940       H57-C25=1.0882       H58-C28=1.0882       H59-C28=1.0946       H60-C28=1.0943       
H61-C29=1.0787       H62-C30=1.0918       H63-C30=1.0928       H64-C30=1.0867       H65-C31=1.0960       H66-C32=1.0853       
H67-C32=1.0873       H68-C32=1.0865       H69-C33=1.0859       H70-C33=1.0865       H71-C33=1.0862       H72-N1=1.0150        
 C  H  Rav=1.0874 sigma=0.0081  Rmin=1.0691  Rmax=1.1087    38
 C  C  Rav=1.4573 sigma=0.0664  Rmin=1.3697  Rmax=1.5584    22
 N  H  Rav=1.0150 sigma=0.0000  Rmin=1.0150  Rmax=1.0150     1
 N  C  Rav=1.3650 sigma=0.0836  Rmin=1.2477  Rmax=1.4442     4
 O  C  Rav=1.3561 sigma=0.0568  Rmin=1.2383  Rmax=1.4094     7

 selected bond angles (degree)
 --------------------
H72-N1-C2=118.30               C3-C2-N1=124.88                H47-C2-N1=123.78               H47-C2-C3=111.30               
C4-C3-C2=109.39                C14-C3-C2=106.13               C14-C3-C4=109.35               C31-C3-C2=113.07               
C31-C3-C4=109.02               C31-C3-C14=109.79              C5-C4-C3=120.06                C13-C4-C3=121.69               
C13-C4-C5=118.25               C6-C5-C4=121.98                H34-C5-C4=118.97               H34-C5-C6=119.04               
O7-C6-C5=125.32                C9-C6-C5=120.76                C9-C6-O7=113.92                C8-O7-C6=119.91                
H35-C8-O7=111.32               H36-C8-O7=105.77               H36-C8-H35=109.40              H37-C8-O7=111.44               
H37-C8-H35=109.58              H37-C8-H36=109.25              O10-C9-C6=122.25               C12-C9-C6=114.78               
C12-C9-O10=122.98              

 selected dihedral angles (degree)
 ---------------------------------
C3-C2-N1-H72=181.47           H47-C2-N1-H72=358.92          C4-C3-C2-N1=249.18            C4-C3-C2-H47= 71.46           
C14-C3-C2-N1=131.30           C14-C3-C2-H47=313.58          C31-C3-C2-N1= 10.89           C31-C3-C2-H47=193.17          
C5-C4-C3-C2=187.98            C5-C4-C3-C14=303.81           C5-C4-C3-C31= 63.87           C13-C4-C3-C2=  7.49           
C13-C4-C3-C14=123.33          C13-C4-C3-C31=243.38          C6-C5-C4-C3=178.13            C6-C5-C4-C13=358.59           
H34-C5-C4-C3=357.60           H34-C5-C4-C13=178.07          O7-C6-C5-C4=178.49            O7-C6-C5-H34=359.01           
C9-C6-C5-C4=357.97            C9-C6-C5-H34=178.50           C8-O7-C6-C5=354.85            C8-O7-C6-C9=175.34            
H35-C8-O7-C6=302.84           H36-C8-O7-C6=184.11           H37-C8-O7-C6= 65.50           O10-C9-C6-C5=183.98           
O10-C9-C6-O7=  3.52           C12-C9-C6-C5=  3.94           C12-C9-C6-O7=183.48           
           -------------------------------------------------
          |                Final Singlepoint                |
           -------------------------------------------------

          ...................................................
          :                      SETUP                      :
          :.................................................:
          :  # basis functions                 171          :
          :  # atomic orbitals                 171          :
          :  # shells                          105          :
          :  # electrons                       180          :
          :  max. iterations                   250          :
          :  Hamiltonian                  GFN2-xTB          :
          :  restarted?                      false          :
          :  GBSA solvation                  false          :
          :  PC potential                    false          :
          :  electronic temp.         5000.0000000     K    :
          :  accuracy                    1.0000000          :
          :  -> integral cutoff          0.2500000E+02      :
          :  -> integral neglect         0.1000000E-07      :
          :  -> SCF convergence          0.1000000E-05 Eh   :
          :  -> wf. convergence          0.1000000E-03 e    :
          :  Broyden damping             0.4000000          :
          ...................................................

 iter      E             dE          RMSdq      gap      omega  full diag
   1   -100.6797467 -0.100680E+03  0.608E-05    0.40       0.0  T
   2   -100.6797467  0.603819E-09  0.786E-05    0.40     150.0  T
   3   -100.6797467 -0.815859E-09  0.467E-05    0.40     252.5  T

   *** convergence criteria satisfied after 3 iterations ***

         #    Occupation            Energy/Eh            Energy/eV
      -------------------------------------------------------------
         1        2.0000           -0.8114393             -22.0804
       ...           ...                  ...                  ...
        84        1.9925           -0.5123915             -13.9429
        85        1.9754           -0.4934835             -13.4284
        86        1.9652           -0.4878830             -13.2760
        87        1.9281           -0.4760987             -12.9553
        88        1.8360           -0.4622709             -12.5790
        89        1.8194           -0.4606037             -12.5337
        90        1.3015           -0.4338794             -11.8065 (HOMO)
        91        0.8436           -0.4190332             -11.4025 (LUMO)
        92        0.3536           -0.3996709             -10.8756
        93        0.0126           -0.3439357              -9.3590
        94        0.0024           -0.3174168              -8.6374
        95        0.0021           -0.3153358              -8.5807
       ...           ...                  ...                  ...
       171                          0.6005728              16.3424
      -------------------------------------------------------------
                  HL-Gap            0.0148462 Eh            0.4040 eV
             Fermi-level           -0.4240268 Eh          -11.5384 eV

 SCC (total)                   0 d,  0 h,  0 min,  0.122 sec
 SCC setup                      ...        0 min,  0.001 sec (  0.712%)
 Dispersion                     ...        0 min,  0.002 sec (  1.282%)
 classical contributions        ...        0 min,  0.000 sec (  0.356%)
 integral evaluation            ...        0 min,  0.018 sec ( 14.403%)
 iterations                     ...        0 min,  0.026 sec ( 21.567%)
 molecular gradient             ...        0 min,  0.075 sec ( 61.145%)
 printout                       ...        0 min,  0.001 sec (  0.522%)

         :::::::::::::::::::::::::::::::::::::::::::::::::::::
         ::                     SUMMARY                     ::
         :::::::::::::::::::::::::::::::::::::::::::::::::::::
         :: total energy             -99.294142518228 Eh    ::
         :: gradient norm              0.002120948323 Eh/a0 ::
         :: HOMO-LUMO gap              0.403985079903 eV    ::
         ::.................................................::
         :: SCC energy              -100.679746749892 Eh    ::
         :: -> isotropic ES            0.123275447678 Eh    ::
         :: -> anisotropic ES          0.003574562155 Eh    ::
         :: -> anisotropic XC          0.049370554223 Eh    ::
         :: -> dispersion             -0.072878465835 Eh    ::
         :: repulsion energy           1.384370199893 Eh    ::
         :: add. restraining           0.000000062851 Eh    ::
         :: total charge               1.000000000000 e     ::
         :::::::::::::::::::::::::::::::::::::::::::::::::::::

           -------------------------------------------------
          |                Property Printout                |
           -------------------------------------------------

    * Orbital Energies and Occupations

         #    Occupation            Energy/Eh            Energy/eV
      -------------------------------------------------------------
         1        2.0000           -0.8114393             -22.0804
       ...           ...                  ...                  ...
        78        1.9980           -0.5332419             -14.5103
        79        1.9977           -0.5313008             -14.4574
        80        1.9973           -0.5284256             -14.3792
        81        1.9966           -0.5247610             -14.2795
        82        1.9944           -0.5169948             -14.0681
        83        1.9939           -0.5157041             -14.0330
        84        1.9925           -0.5123915             -13.9429
        85        1.9754           -0.4934835             -13.4284
        86        1.9652           -0.4878830             -13.2760
        87        1.9281           -0.4760987             -12.9553
        88        1.8360           -0.4622709             -12.5790
        89        1.8194           -0.4606037             -12.5337
        90        1.3015           -0.4338794             -11.8065 (HOMO)
        91        0.8436           -0.4190332             -11.4025 (LUMO)
        92        0.3536           -0.3996709             -10.8756
        93        0.0126           -0.3439357              -9.3590
        94        0.0024           -0.3174168              -8.6374
        95        0.0021           -0.3153358              -8.5807
        96        0.0014           -0.3094881              -8.4216
        97        0.0008           -0.3006273              -8.1805
        98        0.0000           -0.1928116              -5.2467
        99        0.0000           -0.1862885              -5.0692
       100                         -0.1406758              -3.8280
       101                         -0.0728320              -1.9819
       ...                                ...                  ...
       171                          0.6005728              16.3424
      -------------------------------------------------------------
                  HL-Gap            0.0148462 Eh            0.4040 eV
             Fermi-level           -0.4240268 Eh          -11.5384 eV

     #   Z          covCN         q      C6AA      α(0)
     1   7 N        1.774    -0.263    27.652     7.787
     2   6 C        2.826     0.102    25.730     8.312
     3   6 C        3.907     0.007    20.395     6.419
     4   6 C        2.974     0.004    27.932     8.669
     5   6 C        2.911    -0.080    29.992     8.980
     6   6 C        2.856     0.124    25.282     8.241
     7   8 O        1.706    -0.203    17.376     5.628
     8   6 C        3.645     0.025    20.482     6.504
     9   6 C        2.828     0.196    23.834     8.000
    10   8 O        0.858    -0.374    21.170     6.169
    11   6 C        2.780    -0.109    30.726     9.079
    12   6 C        2.909    -0.071    29.770     8.947
    13   6 C        2.912    -0.047    29.177     8.857
    14   6 C        3.812    -0.065    21.728     6.635
    15   6 C        3.802    -0.070    21.829     6.652
    16   6 C        2.844     0.012    27.748     8.633
    17   7 N        2.729     0.018    20.947     6.798
    18   6 C        3.756    -0.017    20.939     6.524
    19   6 C        3.808    -0.071    21.850     6.654
    20   6 C        2.969     0.001    27.999     8.679
    21   6 C        2.922    -0.048    29.193     8.860
    22   6 C        2.913    -0.067    29.664     8.931
    23   6 C        2.865     0.135    25.054     8.205
    24   8 O        1.706    -0.218    17.619     5.667
    25   6 C        3.645     0.024    20.508     6.508
    26   6 C        2.862     0.135    25.058     8.205
    27   8 O        1.706    -0.221    17.663     5.674
    28   6 C        3.645     0.026    20.479     6.504
    29   6 C        2.919    -0.079    29.967     8.977
    30   6 C        3.700    -0.074    22.076     6.719
    31   6 C        3.852    -0.006    20.657     6.464
    32   6 C        3.756    -0.118    22.824     6.812
    33   6 C        3.755    -0.119    22.830     6.813
    34   1 H        0.926     0.048     2.345     2.394
    35   1 H        0.924     0.058     2.221     2.331
    36   1 H        0.925     0.085     1.928     2.171
    37   1 H        0.924     0.052     2.296     2.369
    38   1 H        0.927     0.087     1.906     2.159
    39   1 H        0.927     0.094     1.840     2.121
    40   1 H        0.927     0.085     1.929     2.172
    41   1 H        0.926     0.062     2.178     2.308
    42   1 H        0.926     0.038     2.476     2.461
    43   1 H        0.925     0.062     2.179     2.308
    44   1 H        0.924     0.054     2.273     2.358
    45   1 H        0.925     0.068     2.102     2.267
    46   1 H        0.924     0.083     1.950     2.184
    47   1 H        0.922     0.008     2.915     2.670
    48   1 H        0.926     0.072     2.063     2.246
    49   1 H        0.924     0.070     2.083     2.257
    50   1 H        0.924     0.068     2.108     2.270
    51   1 H        0.924     0.056     2.242     2.342
    52   1 H        0.924     0.058     2.221     2.331
    53   1 H        0.926     0.046     2.367     2.406
    54   1 H        0.926     0.060     2.197     2.318
    55   1 H        0.924     0.056     2.247     2.344
    56   1 H        0.924     0.058     2.227     2.334
    57   1 H        0.925     0.084     1.937     2.176
    58   1 H        0.925     0.084     1.940     2.178
    59   1 H        0.924     0.051     2.307     2.375
    60   1 H        0.924     0.055     2.264     2.353
    61   1 H        0.926     0.050     2.321     2.382
    62   1 H        0.924     0.080     1.983     2.202
    63   1 H        0.924     0.085     1.933     2.174
    64   1 H        0.925     0.083     1.947     2.182
    65   1 H        0.924     0.039     2.465     2.455
    66   1 H        0.925     0.070     2.084     2.258
    67   1 H        0.925     0.038     2.472     2.459
    68   1 H        0.925     0.053     2.286     2.364
    69   1 H        0.925     0.061     2.193     2.316
    70   1 H        0.925     0.035     2.515     2.480
    71   1 H        0.925     0.056     2.244     2.343
    72   1 H        0.860     0.159     1.339     1.812

 Mol. C6AA /au·bohr⁶  :      47695.875653
 Mol. C8AA /au·bohr⁸  :    1089900.582700
 Mol. α(0) /au        :        336.140250


Wiberg/Mayer (AO) data.
largest (>0.10) Wiberg bond orders for each atom

 ---------------------------------------------------------------------------
     #   Z sym  total        # sym  WBO       # sym  WBO       # sym  WBO
 ---------------------------------------------------------------------------
     1   7 N    3.045 --     2 C    1.959    72 H    0.940
     2   6 C    3.929 --     1 N    1.959     3 C    0.994    47 H    0.893
     3   6 C    3.973 --     2 C    0.994     4 C    0.973    14 C    0.955
                            31 C    0.939
     4   6 C    3.807 --     5 C    1.365    13 C    1.323     3 C    0.973
     5   6 C    3.947 --     6 C    1.412     4 C    1.365    34 H    0.953
     6   6 C    3.750 --     5 C    1.412     7 O    1.136     9 C    1.055
     7   8 O    2.250 --     6 C    1.136     8 C    0.975
     8   6 C    3.926 --    36 H    0.976     7 O    0.975    35 H    0.971
                            37 H    0.970
     9   6 C    3.885 --    10 O    1.576    12 C    1.160     6 C    1.055
    10   8 O    1.716 --     9 C    1.576
    11   6 C    2.970 --    40 H    0.991    38 H    0.990    39 H    0.989
    12   6 C    3.800 --    13 C    1.522     9 C    1.160    41 H    0.964
    13   6 C    3.943 --    12 C    1.522     4 C    1.323    42 H    0.957
    14   6 C    3.968 --    15 C    0.981    44 H    0.972    43 H    0.969
                             3 C    0.955
    15   6 C    3.985 --    16 C    1.060    14 C    0.981    45 H    0.961
                            46 H    0.926
    16   6 C    3.627 --    17 N    1.420    15 C    1.060    48 H    0.956
    17   7 N    3.501 --    16 C    1.420    30 C    0.997    18 C    0.987
    18   6 C    3.954 --    17 N    0.987    50 H    0.968    19 C    0.966
                            49 H    0.963
    19   6 C    3.976 --    20 C    1.008    52 H    0.972    51 H    0.971
                            18 C    0.966
    20   6 C    3.940 --    21 C    1.404    29 C    1.383    19 C    1.008
    21   6 C    3.945 --    22 C    1.420    20 C    1.404    53 H    0.968
    22   6 C    3.956 --    21 C    1.420    23 C    1.380    54 H    0.963
    23   6 C    3.890 --    22 C    1.380    26 C    1.215    24 O    1.115
    24   8 O    2.256 --    23 C    1.115    25 C    0.975
    25   6 C    3.926 --    57 H    0.976    24 O    0.975    55 H    0.972
                            56 H    0.972
    26   6 C    3.894 --    29 C    1.391    23 C    1.215    27 O    1.109
    27   8 O    2.255 --    26 C    1.109    28 C    0.977
    28   6 C    3.929 --    27 O    0.977    58 H    0.976    59 H    0.973
                            60 H    0.973
    29   6 C    3.956 --    26 C    1.391    20 C    1.383    61 H    0.962
    30   6 C    3.953 --    17 N    0.997    64 H    0.977    62 H    0.965
                            63 H    0.957
    31   6 C    3.963 --    33 C    1.009    32 C    1.008    65 H    0.958
                             3 C    0.939
    32   6 C    3.974 --    31 C    1.008    67 H    0.980    68 H    0.980
                            66 H    0.972
    33   6 C    3.980 --    31 C    1.009    70 H    0.982    71 H    0.979
                            69 H    0.976
    34   1 H    0.992 --     5 C    0.953
    35   1 H    0.989 --     8 C    0.971
    36   1 H    0.992 --     8 C    0.976
    37   1 H    0.989 --     8 C    0.970
    38   1 H    0.992 --    11 C    0.990
    39   1 H    0.991 --    11 C    0.989
    40   1 H    0.992 --    11 C    0.991
    41   1 H    0.991 --    12 C    0.964
    42   1 H    0.993 --    13 C    0.957
    43   1 H    0.995 --    14 C    0.969
    44   1 H    0.996 --    14 C    0.972
    45   1 H    0.995 --    15 C    0.961
    46   1 H    0.971 --    15 C    0.926
    47   1 H    0.985 --     2 C    0.893
    48   1 H    0.994 --    16 C    0.956
    49   1 H    0.990 --    18 C    0.963
    50   1 H    0.994 --    18 C    0.968
    51   1 H    0.995 --    19 C    0.971
    52   1 H    0.995 --    19 C    0.972
    53   1 H    0.997 --    21 C    0.968
    54   1 H    0.995 --    22 C    0.963
    55   1 H    0.991 --    25 C    0.972
    56   1 H    0.991 --    25 C    0.972
    57   1 H    0.992 --    25 C    0.976
    58   1 H    0.992 --    28 C    0.976
    59   1 H    0.992 --    28 C    0.973
    60   1 H    0.992 --    28 C    0.973
    61   1 H    0.996 --    29 C    0.962
    62   1 H    0.985 --    30 C    0.965
    63   1 H    0.987 --    30 C    0.957
    64   1 H    0.993 --    30 C    0.977
    65   1 H    0.991 --    31 C    0.958
    66   1 H    0.989 --    32 C    0.972
    67   1 H    0.996 --    32 C    0.980
    68   1 H    0.993 --    32 C    0.980
    69   1 H    0.993 --    33 C    0.976
    70   1 H    0.997 --    33 C    0.982
    71   1 H    0.993 --    33 C    0.979
    72   1 H    0.969 --     1 N    0.940
 ---------------------------------------------------------------------------

Topologies differ in total number of bonds
Writing topology from bond orders to xtbtopo.mol

molecular dipole:
                 x           y           z       tot (Debye)
 q only:        1.428       0.551      -0.872
   full:        1.682       0.731      -1.149       5.500
molecular quadrupole (traceless):
                xx          xy          yy          xz          yz          zz
 q only:       49.997      -0.868     -10.809       7.186     -15.530     -39.188
  q+dip:       45.907       0.693     -12.080      11.434     -18.392     -33.827
   full:       45.717       0.428     -12.670       8.528     -18.049     -33.048

           -------------------------------------------------
          |                Geometry Summary                 |
           -------------------------------------------------

      molecular mass/u    :      455.6105846
   center of mass at/Å    :        0.0205629       0.0416988      -0.0161916
  moments of inertia/u·Å² :        0.2912819E+04   0.1091691E+05   0.1259228E+05
rotational constants/cm⁻¹ :        0.5787395E-02   0.1544176E-02   0.1338728E-02

 * 63 selected distances

     #   Z          #   Z                                           value/Å
     1   7 N        2   6 C                                       1.2477244
     4   6 C        5   6 C                                       1.3963638
     5   6 C        6   6 C                                       1.3823779
     6   6 C        7   8 O                                       1.3390037
     7   8 O        8   6 C                                       1.4075392
     9   6 C       10   8 O                                       1.2382777
     4   6 C       13   6 C                                       1.4008976
    12   6 C       13   6 C                                       1.3697166
    14   6 C       15   6 C                                       1.5391085
    15   6 C       16   6 C                                       1.4797753
    16   6 C       17   7 N                                       1.3240169
    17   7 N       18   6 C                                       1.4441644
    18   6 C       19   6 C                                       1.5409105 (max)
    20   6 C       21   6 C                                       1.3862912
    21   6 C       22   6 C                                       1.3857316
    22   6 C       23   6 C                                       1.3880244
    23   6 C       24   8 O                                       1.3442060
    24   8 O       25   6 C                                       1.4093964
    23   6 C       26   6 C                                       1.4236448
    26   6 C       27   8 O                                       1.3459839
    27   8 O       28   6 C                                       1.4080162
    20   6 C       29   6 C                                       1.3923475
    26   6 C       29   6 C                                       1.3867182
    17   7 N       30   6 C                                       1.4439598
    31   6 C       32   6 C                                       1.5259461
    31   6 C       33   6 C                                       1.5257572
     5   6 C       34   1 H                                       1.0788161
     8   6 C       35   1 H                                       1.0941016
     8   6 C       36   1 H                                       1.0880453
     8   6 C       37   1 H                                       1.0948244
    11   6 C       38   1 H                                       1.0690698 (min)
    11   6 C       39   1 H                                       1.0699508
    11   6 C       40   1 H                                       1.0691384
    12   6 C       41   1 H                                       1.0790940
    13   6 C       42   1 H                                       1.0803470
    14   6 C       43   1 H                                       1.0893971
    14   6 C       44   1 H                                       1.0904876
    15   6 C       45   1 H                                       1.0882749
    15   6 C       46   1 H                                       1.0975955
    16   6 C       48   1 H                                       1.0809267
    18   6 C       49   1 H                                       1.0931877
    18   6 C       50   1 H                                       1.0920509
    19   6 C       51   1 H                                       1.0915164
    19   6 C       52   1 H                                       1.0903186
    21   6 C       53   1 H                                       1.0794764
    22   6 C       54   1 H                                       1.0775551
    25   6 C       55   1 H                                       1.0941888
    25   6 C       56   1 H                                       1.0940301
    25   6 C       57   1 H                                       1.0882345
    28   6 C       58   1 H                                       1.0882308
    28   6 C       59   1 H                                       1.0946154
    28   6 C       60   1 H                                       1.0942800
    29   6 C       61   1 H                                       1.0787367
    30   6 C       62   1 H                                       1.0917720
    30   6 C       63   1 H                                       1.0928173
    30   6 C       64   1 H                                       1.0866825
    31   6 C       65   1 H                                       1.0959879
    32   6 C       66   1 H                                       1.0852763
    32   6 C       67   1 H                                       1.0873340
    32   6 C       68   1 H                                       1.0864839
    33   6 C       69   1 H                                       1.0858559
    33   6 C       70   1 H                                       1.0864616
    33   6 C       71   1 H                                       1.0862454

 * 4 distinct bonds (by element types)

   Z      Z             #   av. dist./Å        max./Å        min./Å
   1 H    6 C          37     1.0867948     1.0975955     1.0690698
   6 C    6 C          15     1.4349074     1.5409105     1.3697166
   6 C    7 N           4     1.3649664     1.4441644     1.2477244
   6 C    8 O           7     1.3560605     1.4093964     1.2382777


optimized geometry written to: xtbopt.xyz


           -------------------------------------------------
          | TOTAL ENERGY              -99.294142518228 Eh   |
          | GRADIENT NORM               0.002120948323 Eh/α |
          | HOMO-LUMO GAP               0.403985079903 eV   |
           -------------------------------------------------

------------------------------------------------------------------------
 * finished run on 2024/04/06 at 11:12:47.202     
------------------------------------------------------------------------
 total:
 * wall-time:     0 d,  0 h,  0 min,  5.114 sec
 *  cpu-time:     0 d,  0 h,  0 min,  5.094 sec
 * ratio c/w:     0.996 speedup
 SCF:
 * wall-time:     0 d,  0 h,  0 min,  0.191 sec
 *  cpu-time:     0 d,  0 h,  0 min,  0.191 sec
 * ratio c/w:     0.999 speedup
 ANC optimizer:
 * wall-time:     0 d,  0 h,  0 min,  4.884 sec
 *  cpu-time:     0 d,  0 h,  0 min,  4.880 sec
 * ratio c/w:     0.999 speedup

