72
 energy: -99.294142581271 gnorm: 0.002182552057 xtb: 6.6.1 (8d0f1dd)
N           -1.85151268700029        2.98484951417626        2.17985952707692
C           -1.80456473740705        2.29926868875767        1.13842273270679
C           -2.94837025405233        2.11069500298383        0.18080171647225
C           -3.43902590214791        0.67534585903526        0.25756717722753
C           -4.38595494758323        0.21009388241368       -0.65714450739907
C           -4.83188538916614       -1.09835037486694       -0.64776312903878
O           -5.75592528985629       -1.60719420001208       -1.47248055205174
C           -6.43259147623165       -0.76426666852557       -2.37401382904358
C           -4.28749026163925       -2.06994209252731        0.30788095561562
O           -4.61344533924562       -3.26446448748025        0.29370570872363
C           -4.81739698195643       -6.60814454109404        2.33716164763825
C           -3.35438963866628       -1.52699197639679        1.25074051628347
C           -2.95836999493337       -0.21601664466814        1.22553227703743
C           -2.37444648763375        2.38311566284969       -1.23545947759297
C           -1.45345016377069        1.27400991978254       -1.77444447332503
C           -0.13447697937264        1.21760120352810       -1.10596681806691
N            0.48702004326510        0.11359345308359       -0.72135165645499
C            1.85932760844100        0.16373379139891       -0.27428526144794
C            2.83056576730946       -0.32284192007980       -1.36714636494498
C            4.25088202798508       -0.12557004757114       -0.91616883526061
C            4.89530903441382        1.08214000123913       -1.13515113565742
C            6.19706159190196        1.28162416586291       -0.70399230829371
C            6.88223530135763        0.27461923888147       -0.03834258468683
O            8.14374666964570        0.35347251787528        0.41910766200906
C            8.88051224504592        1.53674609227612        0.21069001770650
C            6.22720504380202       -0.96744921921059        0.19610454951129
O            6.96486837376242       -1.88797948939781        0.84429376802828
C            6.41951731387994       -3.16157911621864        1.09538238256348
C            4.92349483223551       -1.14200288296408       -0.24305107834641
C           -0.14142609009747       -1.18494219378385       -0.78364207720608
C           -4.14309532238813        3.07154130173729        0.45986423970851
C           -4.81104544242736        2.75172053908324        1.79405628343665
C           -3.75084544263752        4.54533979845383        0.41522418130050
H           -4.78742692122188        0.89494591235730       -1.38765241915370
H           -6.94148258434163        0.05085808396579       -1.85088905018323
H           -7.17043794643221       -1.39227557758596       -2.86901863622177
H           -5.75039400937886       -0.34987674319956       -3.12336545360152
H           -5.15319128906506       -6.21578701217326        3.27322132100457
H           -5.50949084171537       -6.73199812645476        1.53065015380155
H           -3.78629242730444       -6.85415670350642        2.19802810334963
H           -2.97666895118596       -2.20952702723725        1.99633869847022
H           -2.26936434301344        0.13660739736993        1.97924099600734
H           -3.20539958559444        2.49507202362103       -1.93099422144669
H           -1.82713428047867        3.32617123044012       -1.21937966687783
H           -1.96817951302415        0.31605859380247       -1.73291172129135
H           -1.26853239897424        1.50867355152708       -2.83059503100329
H           -0.89120319078921        1.78167611099460        0.78182575355272
H            0.43837461753810        2.13341876497951       -1.06695857154539
H            1.97017547811478       -0.45950926161682        0.61697225037616
H            2.11594640008227        1.19111910131389       -0.00744978581068
H            2.64906119549250        0.25241678585396       -2.27683941403406
H            2.64535640196102       -1.37576901981579       -1.58124097848097
H            4.38813727789063        1.87757766198141       -1.65986512477844
H            6.67440315754838        2.22817991521130       -0.89712934839200
H            8.41283438726610        2.39237574201088        0.70710139469428
H            8.99881779429394        1.75170009973965       -0.85547145205315
H            9.85794894424773        1.35344441439445        0.65258603908945
H            7.20464439620237       -3.72046252656015        1.60082372532364
H            5.54239321684106       -3.10105303879024        1.74743492143558
H            6.15180597040731       -3.67356698314132        0.16605597710841
H            4.42157124876318       -2.08228540780280       -0.07687602609572
H           -0.29208955004914       -1.50147300137800       -1.81760277486629
H           -1.10934297348449       -1.16871434668628       -0.27656916643615
H            0.49224338531356       -1.91494867911551       -0.28722275828507
H           -4.87615641704298        2.89438829890795       -0.33538892135289
H           -4.11736034208938        2.92724019399483        2.61003314801132
H           -5.14159149111585        1.71642433699425        1.82864220988752
H           -5.67699346965994        3.39332253115076        1.93163483229060
H           -3.00703685350462        4.76263042101266        1.17589263146232
H           -3.36446300008599        4.83420747418685       -0.55825543719817
H           -4.62817083469493        5.15320159933949        0.61704854847028
H           -1.01083208554513        3.06205795379498        2.74341884314440
72
 energy: -99.294169214101 gnorm: 0.001359588108 xtb: 6.6.1 (8d0f1dd)
N           -1.85322849281645        2.98755137258282        2.17950611652128
C           -1.80529914567203        2.30116630796047        1.13868360515437
C           -2.94853724657680        2.11122750968774        0.18070097960225
C           -3.43833266344241        0.67557734508529        0.25799607948448
C           -4.38513780057402        0.20948383396482       -0.65649930440307
C           -4.83068761529812       -1.09879341911184       -0.64610693961849
O           -5.75425406824268       -1.60873039665269       -1.47069339566314
C           -6.43185657943334       -0.76794069531611       -2.37384349015612
C           -4.28626377697649       -2.06978313931296        0.31087870430412
O           -4.61227106481231       -3.26403709308928        0.29716760318888
C           -4.81763282900652       -6.59321684484186        2.32970817063018
C           -3.35333425640669       -1.52563978224611        1.25350388805703
C           -2.95753155639690       -0.21443824932782        1.22677910501388
C           -2.37383121208365        2.38401960319536       -1.23533311811643
C           -1.45341569557357        1.27354723524946       -1.77362897599370
C           -0.13400194606873        1.21695281197335       -1.10580383548271
N            0.48720608614432        0.11283926289339       -0.72107784903072
C            1.85983314646948        0.16283552341022       -0.27452572925072
C            2.83089649787125       -0.32307513257664       -1.36789195309545
C            4.25121819842841       -0.12584369939950       -0.91689052634476
C            4.89564775990058        1.08188377371701       -1.13563479468120
C            6.19731181661432        1.28132648171432       -0.70416533334051
C            6.88238178388252        0.27429826254051       -0.03845682175317
O            8.14377015760603        0.35323402817530        0.41935835850193
C            8.88058749364748        1.53648040416655        0.21096279194558
C            6.22736218418878       -0.96780781540919        0.19573402888415
O            6.96478429864486       -1.88840839997846        0.84415304846438
C            6.41913265115367       -3.16191514540773        1.09507678168534
C            4.92375776255301       -1.14233248738546       -0.24374058578077
C           -0.14013175907410       -1.18610236014971       -0.78519461647239
C           -4.14439734236356        3.07055815189562        0.46007517490076
C           -4.81139263073275        2.75020451135129        1.79508824999877
C           -3.75353821594083        4.54487347326355        0.41552183684391
H           -4.78712596275220        0.89348081960181       -1.38765830993803
H           -6.94185930851896        0.04775057348510       -1.85246774776595
H           -7.16893765155919       -1.39786374765969       -2.86788436276994
H           -5.75035457846562       -0.35356734189539       -3.12399381479736
H           -5.15650215186764       -6.21617400575832        3.27111733788404
H           -5.50952199842991       -6.72016848622966        1.52482881513546
H           -3.78964530174278       -6.85532489005498        2.19629814739264
H           -2.97521799700035       -2.20667408128336        2.00017494757310
H           -2.26877283207336        0.13974001932462        1.98019803457964
H           -3.20393789182571        2.49734756315902       -1.93168838157223
H           -1.82540771956970        3.32651377795995       -1.21874077735499
H           -1.96881729052175        0.31573342376051       -1.72985033856267
H           -1.26896003736256        1.50589979262330       -2.83062191330620
H           -0.89119528042097        1.78436541802041        0.78279972083888
H            0.43933786950685        2.13247009581170       -1.06670766380409
H            1.97119479869712       -0.46084425039592        0.61638295034620
H            2.11647449050039        1.19007483585250       -0.00716869602233
H            2.64918358359818        0.25263406958752       -2.27726101875903
H            2.64586571428273       -1.37592993504015       -1.58251516199727
H            4.38856530066008        1.87736935538245       -1.66035750418156
H            6.67463842387938        2.22794235791287       -0.89703607913214
H            8.41290765310209        2.39213450236061        0.70732918088985
H            8.99895891947037        1.75140336489136       -0.85519646364685
H            9.85798651262348        1.35315852812637        0.65293122117942
H            7.20396438475488       -3.72095835865604        1.60079229560352
H            5.54180340753034       -3.10119797564828        1.74683666384195
H            6.15163787549030       -3.67384694139833        0.16565750628445
H            4.42180714960840       -2.08263333255488       -0.07780654820722
H           -0.29071725798882       -1.50113789093619       -1.81959215343976
H           -1.10802914134009       -1.17159119673784       -0.27804654954712
H            0.49431711661343       -1.91624964647589       -0.28996864433416
H           -4.87775109604267        2.89279829609961       -0.33472755175607
H           -4.11756040740766        2.92757514625440        2.61064450632293
H           -5.14028554626347        1.71431358096012        1.83123838035274
H           -5.67852275348720        3.39062715818662        1.93273278877579
H           -3.00968818207629        4.76254232082989        1.17594780713099
H           -3.36737132214125        4.83444828256750       -0.55822169225066
H           -4.63177330827437        5.15193480719523        0.61820978384355
H           -1.01298652579165        3.06604828064985        2.74324887377397
