      -----------------------------------------------------------      
     |                   =====================                   |     
     |                           x T B                           |     
     |                   =====================                   |     
     |                         S. Grimme                         |     
     |          Mulliken Center for Theoretical Chemistry        |     
     |                    University of Bonn                     |     
      -----------------------------------------------------------      

   * xtb version 6.6.1 (8d0f1dd) compiled by 'conda@1efc2f54142f' on 2023-08-01

   xtb is free software: you can redistribute it and/or modify it under
   the terms of the GNU Lesser General Public License as published by
   the Free Software Foundation, either version 3 of the License, or
   (at your option) any later version.
   
   xtb is distributed in the hope that it will be useful,
   but WITHOUT ANY WARRANTY; without even the implied warranty of
   MERCHANTABILITY or FITNESS FOR A PARTICULAR PURPOSE.  See the
   GNU Lesser General Public License for more details.
   
   Cite this work as:
   * C. Bannwarth, E. Caldeweyher, S. Ehlert, A. Hansen, P. Pracht,
     J. Seibert, S. Spicher, S. Grimme, WIREs Comput. Mol. Sci., 2020, 11,
     e01493. DOI: 10.1002/wcms.1493
   
   for GFN2-xTB:
   * C. Bannwarth, S. Ehlert and S. Grimme., J. Chem. Theory Comput., 2019,
     15, 1652-1671. DOI: 10.1021/acs.jctc.8b01176
   for GFN1-xTB:
   * S. Grimme, C. Bannwarth, P. Shushkov, J. Chem. Theory Comput., 2017,
     13, 1989-2009. DOI: 10.1021/acs.jctc.7b00118
   for GFN0-xTB:
   * P. Pracht, E. Caldeweyher, S. Ehlert, S. Grimme, ChemRxiv, 2019, preprint.
     DOI: 10.26434/chemrxiv.8326202.v1
   for GFN-FF:
   * S. Spicher and S. Grimme, Angew. Chem. Int. Ed., 2020, 59, 15665-15673.
     DOI: 10.1002/anie.202004239
   
   for ALPB and GBSA implicit solvation:
   * S. Ehlert, M. Stahn, S. Spicher, S. Grimme, J. Chem. Theory Comput.,
     2021, 17, 4250-4261. DOI: 10.1021/acs.jctc.1c00471
   
   for DFT-D4:
   * E. Caldeweyher, C. Bannwarth and S. Grimme, J. Chem. Phys., 2017,
     147, 034112. DOI: 10.1063/1.4993215
   * E. Caldeweyher, S. Ehlert, A. Hansen, H. Neugebauer, S. Spicher,
     C. Bannwarth and S. Grimme, J. Chem. Phys., 2019, 150, 154122.
     DOI: 10.1063/1.5090222
   * E. Caldeweyher, J.-M. Mewes, S. Ehlert and S. Grimme, Phys. Chem. Chem. Phys.
     2020, 22, 8499-8512. DOI: 10.1039/D0CP00502A
   
   for sTDA-xTB:
   * S. Grimme and C. Bannwarth, J. Chem. Phys., 2016, 145, 054103.
     DOI: 10.1063/1.4959605
   
   in the mass-spec context:
   * V. Asgeirsson, C. Bauer and S. Grimme, Chem. Sci., 2017, 8, 4879.
     DOI: 10.1039/c7sc00601b
   * J. Koopman and S. Grimme, ACS Omega 2019, 4, 12, 15120-15133.
     DOI: 10.1021/acsomega.9b02011
   
   for metadynamics refer to:
   * S. Grimme, J. Chem. Theory Comput., 2019, 155, 2847-2862
     DOI: 10.1021/acs.jctc.9b00143
   
   for SPH calculations refer to:
   * S. Spicher and S. Grimme, J. Chem. Theory Comput., 2021, 17, 1701-1714
     DOI: 10.1021/acs.jctc.0c01306
   
   with help from (in alphabetical order)
   P. Atkinson, C. Bannwarth, F. Bohle, G. Brandenburg, E. Caldeweyher
   M. Checinski, S. Dohm, S. Ehlert, S. Ehrlich, I. Gerasimov, C. Hölzer
   A. Katbashev, J. Koopman, C. Lavigne, S. Lehtola, F. März, M. Müller,
   F. Musil, H. Neugebauer, J. Pisarek, C. Plett, P. Pracht, F. Pultar,
   J. Seibert, P. Shushkov, S. Spicher, M. Stahn, M. Steiner, T. Strunk,
   J. Stückrath, T. Rose, and J. Unsleber
   
 * started run on 2024/04/06 at 11:12:40.645     

           -------------------------------------------------
          |                Calculation Setup                |
           -------------------------------------------------

          program call               : xtb struc.xyz --opt loose --input .xc1 --gfn2
          hostname                   : n-62-30-23
          coordinate file            : struc.xyz
          omp threads                :                     1

   ID    Z sym.   atoms
    1    7 N      1, 17
    2    6 C      2-6, 8, 9, 11-16, 18-23, 25, 26, 28-33
    3    8 O      7, 10, 24, 27
    4    1 H      34-72
constraining bond 8 9 to    6.0000000 Å, actual value:    3.6446951 Å

           -------------------------------------------------
          |                 G F N 2 - x T B                 |
           -------------------------------------------------

        Reference                      10.1021/acs.jctc.8b01176
      * Hamiltonian:
        H0-scaling (s, p, d)           1.850000    2.230000    2.230000
        zeta-weighting                 0.500000
      * Dispersion:
        s8                             2.700000
        a1                             0.520000
        a2                             5.000000
        s9                             5.000000
      * Repulsion:
        kExp                           1.500000    1.000000
        rExp                           1.000000
      * Coulomb:
        alpha                          2.000000
        third order                    shell-resolved
        anisotropic                    true
        a3                             3.000000
        a5                             4.000000
        cn-shift                       1.200000
        cn-exp                         4.000000
        max-rad                        5.000000


          ...................................................
          :                      SETUP                      :
          :.................................................:
          :  # basis functions                 171          :
          :  # atomic orbitals                 171          :
          :  # shells                          105          :
          :  # electrons                       180          :
          :  max. iterations                   250          :
          :  Hamiltonian                  GFN2-xTB          :
          :  restarted?                      false          :
          :  GBSA solvation                  false          :
          :  PC potential                    false          :
          :  electronic temp.         5000.0000000     K    :
          :  accuracy                    1.0000000          :
          :  -> integral cutoff          0.2500000E+02      :
          :  -> integral neglect         0.1000000E-07      :
          :  -> SCF convergence          0.1000000E-05 Eh   :
          :  -> wf. convergence          0.1000000E-03 e    :
          :  Broyden damping             0.4000000          :
          ...................................................

 iter      E             dE          RMSdq      gap      omega  full diag
   1   -100.5973919 -0.100597E+03  0.374E+00    3.20       0.0  T
   2   -100.7362642 -0.138872E+00  0.221E+00    1.08       1.0  T
   3   -100.7049001  0.313641E-01  0.141E+00    3.29       1.0  T
   4   -100.7721690 -0.672689E-01  0.526E-01    1.50       1.0  T
   5   -100.7894292 -0.172602E-01  0.190E-01    1.98       1.0  T
   6   -100.7911978 -0.176856E-02  0.792E-02    1.77       1.0  T
   7   -100.7914750 -0.277198E-03  0.375E-02    1.83       1.0  T
   8   -100.7914914 -0.164582E-04  0.140E-02    1.83       1.0  T
   9   -100.7914976 -0.616739E-05  0.474E-03    1.82       2.5  T
  10   -100.7914988 -0.118227E-05  0.172E-03    1.82       6.8  T
  11   -100.7914989 -0.139928E-06  0.766E-04    1.82      15.4  T
  12   -100.7914989 -0.773143E-08  0.318E-04    1.82      37.0  T

   *** convergence criteria satisfied after 12 iterations ***

         #    Occupation            Energy/Eh            Energy/eV
      -------------------------------------------------------------
         1        2.0000           -0.8078051             -21.9815
       ...           ...                  ...                  ...
        84        1.9966           -0.5157491             -14.0342
        85        1.9959           -0.5128261             -13.9547
        86        1.9840           -0.4911498             -13.3649
        87        1.9795           -0.4872543             -13.2589
        88        1.9640           -0.4782114             -13.0128
        89        1.8920           -0.4602041             -12.5228
        90        1.8557           -0.4553147             -12.3897 (HOMO)
        91        0.3166           -0.3884132             -10.5693 (LUMO)
        92        0.0218           -0.3434697              -9.3463
        93        0.0041           -0.3169887              -8.6257
        94        0.0034           -0.3139726              -8.5436
        95        0.0029           -0.3112618              -8.4699
       ...           ...                  ...                  ...
       171                          0.5822580              15.8440
      -------------------------------------------------------------
                  HL-Gap            0.0669015 Eh            1.8205 eV
             Fermi-level           -0.4148687 Eh          -11.2892 eV

 SCC (total)                   0 d,  0 h,  0 min,  0.192 sec
 SCC setup                      ...        0 min,  0.001 sec (  0.555%)
 Dispersion                     ...        0 min,  0.002 sec (  0.951%)
 classical contributions        ...        0 min,  0.000 sec (  0.240%)
 integral evaluation            ...        0 min,  0.019 sec (  9.739%)
 iterations                     ...        0 min,  0.099 sec ( 51.824%)
 molecular gradient             ...        0 min,  0.070 sec ( 36.346%)
 printout                       ...        0 min,  0.001 sec (  0.337%)

         :::::::::::::::::::::::::::::::::::::::::::::::::::::
         ::                     SUMMARY                     ::
         :::::::::::::::::::::::::::::::::::::::::::::::::::::
         :: total energy             -98.413613897574 Eh    ::
         :: gradient norm              0.631027776214 Eh/a0 ::
         :: HOMO-LUMO gap              1.820481192090 eV    ::
         ::.................................................::
         :: SCC energy              -100.791498925389 Eh    ::
         :: -> isotropic ES            0.109302908418 Eh    ::
         :: -> anisotropic ES          0.005415138735 Eh    ::
         :: -> anisotropic XC          0.042392697176 Eh    ::
         :: -> dispersion             -0.075527661009 Eh    ::
         :: repulsion energy           1.386151658689 Eh    ::
         :: add. restraining           0.990517016621 Eh    ::
         :: total charge               1.000000000108 e     ::
         :::::::::::::::::::::::::::::::::::::::::::::::::::::

      ----------------------------------------------------------- 
     |                   =====================                   |
     |                        A N C O P T                        |
     |                   =====================                   |
     |               Approximate Normal Coordinate               |
     |                Rational Function Optimizer                |
      ----------------------------------------------------------- 

          ...................................................
          :                      SETUP                      :
          :.................................................:
          :   optimization level             loose          :
          :   max. optcycles                   200          :
          :   ANC micro-cycles                  20          :
          :   degrees of freedom               210          :
          :.................................................:
          :   RF solver                   davidson          :
          :   write xtbopt.log                true          :
          :   linear?                        false          :
          :   energy convergence         0.5000000E-04 Eh   :
          :   grad. convergence          0.4000000E-02 Eh/α :
          :   maxmium RF displ.          1.0000000          :
          :   Hlow (freq-cutoff)         0.1000000E-01      :
          :   Hmax (freq-cutoff)         5.0000000          :
          :   S6 in model hess.         20.0000000          :
          ...................................................

generating ANC from model Hessian ...
Using Lindh-Hessian (1995)
 Shifting diagonal of input Hessian by    4.6578984777455791E-002
 Lowest  eigenvalues of input Hessian
    0.010000    0.033742    0.000000    0.000000    0.000000    0.000000
    0.000000    0.000000    0.046666    0.046718    0.046848    0.046935
    0.047195    0.047331    0.047616    0.047850    0.048204    0.048842
 Highest eigenvalues
    2.072543    2.088160    2.103683    2.213795    2.221078    2.221960


........................................................................
.............................. CYCLE    1 ..............................
........................................................................

 iter      E             dE          RMSdq      gap      omega  full diag
   1   -100.7914989 -0.100791E+03  0.114E-04    1.82       0.0  T
   2   -100.7914989 -0.678995E-10  0.713E-05    1.82     165.2  T
   3   -100.7914989  0.665210E-10  0.496E-05    1.82     237.5  T
     SCC iter.                  ...        0 min,  0.026 sec
     gradient                   ...        0 min,  0.069 sec
 * total energy  :   -98.4136139 Eh     change       -0.4035485E-08 Eh
   gradient norm :     0.6310272 Eh/α   predicted     0.0000000E+00 (-100.00%)
   displ. norm   :     0.5910003 α      lambda       -0.3189091E+00
   maximum displ.:     0.1859425 α      in ANC's #153, #49, #127, ...

........................................................................
.............................. CYCLE    2 ..............................
........................................................................

 iter      E             dE          RMSdq      gap      omega  full diag
   1   -100.7577423 -0.100758E+03  0.389E-01    1.74       0.0  T
   2   -100.7591267 -0.138441E-02  0.264E-01    1.83       1.0  T
   3   -100.7589639  0.162863E-03  0.150E-01    1.73       1.0  T
   4   -100.7597039 -0.740018E-03  0.508E-02    1.83       1.0  T
   5   -100.7597731 -0.691744E-04  0.288E-02    1.76       1.0  T
   6   -100.7598531 -0.800558E-04  0.686E-03    1.79       1.7  T
   7   -100.7598554 -0.229565E-05  0.354E-03    1.79       3.3  T
   8   -100.7598557 -0.261999E-06  0.168E-03    1.79       7.0  T
   9   -100.7598557 -0.635566E-07  0.519E-04    1.79      22.7  T
  10   -100.7598558 -0.451828E-08  0.288E-04    1.79      40.9  T
     SCC iter.                  ...        0 min,  0.081 sec
     gradient                   ...        0 min,  0.069 sec
 * total energy  :   -98.6706345 Eh     change       -0.2570206E+00 Eh
   gradient norm :     0.3823961 Eh/α   predicted    -0.2151807E+00 ( -16.28%)
   displ. norm   :     0.6548701 α      lambda       -0.2185869E+00
   maximum displ.:     0.2289916 α      in ANC's #49, #153, #127, ...

........................................................................
.............................. CYCLE    3 ..............................
........................................................................

 iter      E             dE          RMSdq      gap      omega  full diag
   1   -100.6717304 -0.100672E+03  0.367E-01    1.71       0.0  T
   2   -100.6731940 -0.146361E-02  0.255E-01    1.75       1.0  T
   3   -100.6740446 -0.850556E-03  0.149E-01    1.74       1.0  T
   4   -100.6745750 -0.530478E-03  0.648E-02    1.76       1.0  T
   5   -100.6747421 -0.167102E-03  0.137E-02    1.77       1.0  T
   6   -100.6747472 -0.510022E-05  0.989E-03    1.75       1.2  T
   7   -100.6747551 -0.782946E-05  0.428E-03    1.76       2.8  T
   8   -100.6747555 -0.437175E-06  0.199E-03    1.76       5.9  T
   9   -100.6747556 -0.102337E-06  0.707E-04    1.76      16.7  T
  10   -100.6747556 -0.127880E-07  0.330E-04    1.76      35.7  T
     SCC iter.                  ...        0 min,  0.081 sec
     gradient                   ...        0 min,  0.069 sec
 * total energy  :   -98.8426604 Eh     change       -0.1720259E+00 Eh
   gradient norm :     0.2272624 Eh/α   predicted    -0.1561673E+00 (  -9.22%)
   displ. norm   :     0.6790478 α      lambda       -0.1326572E+00
   maximum displ.:     0.3226847 α      in ANC's #49, #72, #53, ...

........................................................................
.............................. CYCLE    4 ..............................
........................................................................

 iter      E             dE          RMSdq      gap      omega  full diag
   1   -100.5788580 -0.100579E+03  0.278E-01    1.71       0.0  T
   2   -100.5758599  0.299813E-02  0.348E-01    1.33       1.0  T
   3   -100.5862918 -0.104319E-01  0.149E-01    1.62       1.0  T
   4   -100.5852743  0.101749E-02  0.133E-01    1.47       1.0  T
   5   -100.5865390 -0.126474E-02  0.426E-02    1.60       1.0  T
   6   -100.5866290 -0.899232E-04  0.134E-02    1.59       1.0  T
   7   -100.5866397 -0.107680E-04  0.567E-03    1.59       2.1  T
   8   -100.5866401 -0.391765E-06  0.445E-03    1.59       2.7  T
   9   -100.5866407 -0.602807E-06  0.154E-03    1.59       7.7  T
  10   -100.5866409 -0.173419E-06  0.616E-04    1.59      19.1  T
  11   -100.5866409 -0.167801E-07  0.315E-04    1.59      37.4  T
     SCC iter.                  ...        0 min,  0.088 sec
     gradient                   ...        0 min,  0.069 sec
 * total energy  :   -98.9502549 Eh     change       -0.1075945E+00 Eh
   gradient norm :     0.1655767 Eh/α   predicted    -0.9691476E-01 (  -9.93%)
   displ. norm   :     0.7141879 α      lambda       -0.9658601E-01
   maximum displ.:     0.3905897 α      in ANC's #49, #72, #53, ...

........................................................................
.............................. CYCLE    5 ..............................
........................................................................

 iter      E             dE          RMSdq      gap      omega  full diag
   1   -100.4679753 -0.100468E+03  0.654E-01    0.76       0.0  T
   2   -100.2662459  0.201729E+00  0.143E+00    0.65       1.0  T
   3   -100.5116784 -0.245433E+00  0.506E-01    1.51       1.0  T
   4   -100.5242260 -0.125476E-01  0.322E-01    1.18       1.0  T
   5   -100.5333373 -0.911128E-02  0.121E-01    1.20       1.0  T
   6   -100.5347870 -0.144978E-02  0.575E-02    1.24       1.0  T
   7   -100.5351763 -0.389292E-03  0.945E-03    1.28       1.2  T
   8   -100.5351771 -0.801833E-06  0.697E-03    1.28       1.7  T
   9   -100.5351787 -0.153155E-05  0.410E-03    1.28       2.9  T
  10   -100.5351796 -0.894675E-06  0.198E-03    1.28       5.9  T
  11   -100.5351800 -0.402655E-06  0.597E-04    1.28      19.7  T
  12   -100.5351800 -0.158092E-07  0.284E-04    1.28      41.5  T
     SCC iter.                  ...        0 min,  0.096 sec
     gradient                   ...        0 min,  0.070 sec
 * total energy  :   -99.0330328 Eh     change       -0.8277791E-01 Eh
   gradient norm :     0.1665748 Eh/α   predicted    -0.7292621E-01 ( -11.90%)
   displ. norm   :     0.7579160 α      lambda       -0.8744366E-01
   maximum displ.:     0.4201781 α      in ANC's #49, #53, #72, ...

........................................................................
.............................. CYCLE    6 ..............................
........................................................................

 iter      E             dE          RMSdq      gap      omega  full diag
   1   -100.4190661 -0.100419E+03  0.941E-01    0.16       0.0  T
   2   -100.0073235  0.411743E+00  0.188E+00    1.03       1.0  T
   3   -100.5024491 -0.495126E+00  0.454E-01    1.01       1.0  T
   4   -100.5095313 -0.708224E-02  0.337E-01    0.88       1.0  T
   5   -100.5197786 -0.102473E-01  0.117E-01    0.80       1.0  T
   6   -100.5195819  0.196726E-03  0.884E-02    0.68       1.0  T
   7   -100.5204092 -0.827369E-03  0.478E-02    0.71       1.0  T
   8   -100.5205325 -0.123299E-03  0.311E-02    0.72       1.0  T
   9   -100.5206127 -0.801384E-04  0.722E-03    0.73       1.6  T
  10   -100.5206159 -0.326247E-05  0.264E-03    0.74       4.5  T
  11   -100.5206163 -0.337295E-06  0.236E-03    0.74       5.0  T
  12   -100.5206168 -0.481834E-06  0.770E-04    0.74      15.3  T
  13   -100.5206168 -0.329084E-07  0.333E-04    0.74      35.4  T
     SCC iter.                  ...        0 min,  0.104 sec
     gradient                   ...        0 min,  0.069 sec
 * total energy  :   -99.1056141 Eh     change       -0.7258133E-01 Eh
   gradient norm :     0.1664406 Eh/α   predicted    -0.6883731E-01 (  -5.16%)
   displ. norm   :     0.6934603 α      lambda       -0.6795713E-01
   maximum displ.:     0.4052626 α      in ANC's #49, #53, #72, ...

........................................................................
.............................. CYCLE    7 ..............................
........................................................................

 iter      E             dE          RMSdq      gap      omega  full diag
   1   -100.4783348 -0.100478E+03  0.895E-01    0.06       0.0  T
   2   -100.1538789  0.324456E+00  0.175E+00    1.48       1.0  T
   3   -100.5422938 -0.388415E+00  0.361E-01    0.39       1.0  T
   4   -100.5525459 -0.102521E-01  0.239E-01    0.58       1.0  T
   5   -100.5576636 -0.511776E-02  0.105E-01    0.51       1.0  T
   6   -100.5569499  0.713709E-03  0.119E-01    0.40       1.0  T
   7   -100.5583803 -0.143041E-02  0.427E-02    0.45       1.0  T
   8   -100.5585849 -0.204527E-03  0.745E-03    0.48       1.6  T
   9   -100.5585900 -0.514886E-05  0.307E-03    0.48       3.8  T
  10   -100.5585901 -0.684304E-07  0.203E-03    0.48       5.8  T
  11   -100.5585904 -0.296991E-06  0.747E-04    0.48      15.8  T
  12   -100.5585904 -0.553530E-07  0.343E-04    0.48      34.4  T
     SCC iter.                  ...        0 min,  0.096 sec
     gradient                   ...        0 min,  0.069 sec
 * total energy  :   -99.1552447 Eh     change       -0.4963057E-01 Eh
   gradient norm :     0.1032816 Eh/α   predicted    -0.5031847E-01 (   1.39%)
   displ. norm   :     0.5195915 α      lambda       -0.3089206E-01
   maximum displ.:     0.3511753 α      in ANC's #49, #53, #72, ...

........................................................................
.............................. CYCLE    8 ..............................
........................................................................

 iter      E             dE          RMSdq      gap      omega  full diag
   1   -100.5931498 -0.100593E+03  0.308E-01    0.29       0.0  T
   2   -100.5785176  0.146321E-01  0.451E-01    0.69       1.0  T
   3   -100.5827799 -0.426228E-02  0.395E-01    0.13       1.0  T
   4   -100.6002441 -0.174642E-01  0.841E-02    0.37       1.0  T
   5   -100.6000980  0.146093E-03  0.668E-02    0.38       1.0  T
   6   -100.6002106 -0.112665E-03  0.442E-02    0.36       1.0  T
   7   -100.6004310 -0.220327E-03  0.128E-02    0.38       1.0  T
   8   -100.6004480 -0.170641E-04  0.607E-03    0.38       1.9  T
   9   -100.6004509 -0.288345E-05  0.304E-03    0.38       3.9  T
  10   -100.6004517 -0.747732E-06  0.956E-04    0.38      12.3  T
  11   -100.6004517 -0.648636E-07  0.215E-04    0.38      54.7  T
     SCC iter.                  ...        0 min,  0.088 sec
     gradient                   ...        0 min,  0.069 sec
 * total energy  :   -99.1781860 Eh     change       -0.2294134E-01 Eh
   gradient norm :     0.1196892 Eh/α   predicted    -0.1961628E-01 ( -14.49%)
   displ. norm   :     0.5598293 α      lambda       -0.2984013E-01
   maximum displ.:     0.3738258 α      in ANC's #49, #53, #2, ...

........................................................................
.............................. CYCLE    9 ..............................
........................................................................

 iter      E             dE          RMSdq      gap      omega  full diag
   1   -100.6099302 -0.100610E+03  0.257E-01    0.44       0.0  T
   2   -100.5690873  0.408429E-01  0.610E-01    0.12       1.0  T
   3   -100.6073400 -0.382527E-01  0.244E-01    0.47       1.0  T
   4   -100.6103740 -0.303395E-02  0.148E-01    0.34       1.0  T
   5   -100.6126205 -0.224656E-02  0.561E-02    0.30       1.0  T
   6   -100.6129476 -0.327070E-03  0.153E-02    0.33       1.0  T
   7   -100.6129653 -0.176812E-04  0.612E-03    0.33       1.9  T
   8   -100.6129688 -0.352101E-05  0.295E-03    0.33       4.0  T
   9   -100.6129691 -0.320965E-06  0.144E-03    0.33       8.2  T
  10   -100.6129692 -0.980034E-07  0.375E-04    0.33      31.4  T
  11   -100.6129692 -0.775148E-08  0.178E-04    0.33      66.0  T
     SCC iter.                  ...        0 min,  0.088 sec
     gradient                   ...        0 min,  0.068 sec
 * total energy  :   -99.2026196 Eh     change       -0.2443355E-01 Eh
   gradient norm :     0.0956468 Eh/α   predicted    -0.1959619E-01 ( -19.80%)
   displ. norm   :     0.6284258 α      lambda       -0.2815459E-01
   maximum displ.:     0.3832391 α      in ANC's #49, #144, #53, ...

........................................................................
.............................. CYCLE   10 ..............................
........................................................................

 iter      E             dE          RMSdq      gap      omega  full diag
   1   -100.6125262 -0.100613E+03  0.324E-01    0.48       0.0  T
   2   -100.5371618  0.753644E-01  0.836E-01    0.34       1.0  T
   3   -100.6057093 -0.685475E-01  0.342E-01    0.51       1.0  T
   4   -100.6156289 -0.991956E-02  0.152E-01    0.37       1.0  T
   5   -100.6177515 -0.212259E-02  0.691E-02    0.29       1.0  T
   6   -100.6180925 -0.340999E-03  0.168E-02    0.31       1.0  T
   7   -100.6181227 -0.302094E-04  0.611E-03    0.31       1.9  T
   8   -100.6181240 -0.137250E-05  0.323E-03    0.31       3.7  T
   9   -100.6181245 -0.429043E-06  0.171E-03    0.31       6.9  T
  10   -100.6181247 -0.186459E-06  0.416E-04    0.30      28.4  T
  11   -100.6181247 -0.818412E-08  0.202E-04    0.31      58.3  T
     SCC iter.                  ...        0 min,  0.088 sec
     gradient                   ...        0 min,  0.069 sec
 * total energy  :   -99.2252494 Eh     change       -0.2262985E-01 Eh
   gradient norm :     0.0810706 Eh/α   predicted    -0.1963680E-01 ( -13.23%)
   displ. norm   :     0.6297096 α      lambda       -0.2449908E-01
   maximum displ.:     0.3292439 α      in ANC's #49, #144, #141, ...

........................................................................
.............................. CYCLE   11 ..............................
........................................................................

 iter      E             dE          RMSdq      gap      omega  full diag
   1   -100.6196258 -0.100620E+03  0.324E-01    0.49       0.0  T
   2   -100.5591657  0.604601E-01  0.761E-01    0.26       1.0  T
   3   -100.6063808 -0.472151E-01  0.412E-01    0.59       1.0  T
   4   -100.6228544 -0.164736E-01  0.151E-01    0.41       1.0  T
   5   -100.6244370 -0.158252E-02  0.790E-02    0.33       1.0  T
   6   -100.6248908 -0.453857E-03  0.175E-02    0.33       1.0  T
   7   -100.6249182 -0.273540E-04  0.565E-03    0.33       2.1  T
   8   -100.6249190 -0.871004E-06  0.304E-03    0.33       3.9  T
   9   -100.6249194 -0.306365E-06  0.135E-03    0.33       8.7  T
  10   -100.6249195 -0.129647E-06  0.395E-04    0.33      29.8  T
  11   -100.6249195 -0.441652E-08  0.228E-04    0.33      51.6  T
     SCC iter.                  ...        0 min,  0.088 sec
     gradient                   ...        0 min,  0.069 sec
 * total energy  :   -99.2459668 Eh     change       -0.2071739E-01 Eh
   gradient norm :     0.0877059 Eh/α   predicted    -0.1710697E-01 ( -17.43%)
   displ. norm   :     0.6619776 α      lambda       -0.2832031E-01
   maximum displ.:     0.2467358 α      in ANC's #49, #141, #144, ...

........................................................................
.............................. CYCLE   12 ..............................
........................................................................

 iter      E             dE          RMSdq      gap      omega  full diag
   1   -100.6344133 -0.100634E+03  0.338E-01    0.52       0.0  T
   2   -100.5878287  0.465847E-01  0.682E-01    0.13       1.0  T
   3   -100.6161104 -0.282817E-01  0.471E-01    0.70       1.0  T
   4   -100.6366940 -0.205836E-01  0.177E-01    0.47       1.0  T
   5   -100.6387247 -0.203077E-02  0.948E-02    0.39       1.0  T
   6   -100.6394903 -0.765608E-03  0.175E-02    0.39       1.0  T
   7   -100.6395153 -0.249467E-04  0.556E-03    0.39       2.1  T
   8   -100.6395145  0.750870E-06  0.441E-03    0.39       2.7  T
   9   -100.6395161 -0.153075E-05  0.175E-03    0.39       6.7  T
  10   -100.6395163 -0.238609E-06  0.476E-04    0.38      24.8  T
  11   -100.6395163 -0.127236E-07  0.244E-04    0.38      48.3  T
     SCC iter.                  ...        0 min,  0.088 sec
     gradient                   ...        0 min,  0.069 sec
 * total energy  :   -99.2693338 Eh     change       -0.2336695E-01 Eh
   gradient norm :     0.0824075 Eh/α   predicted    -0.2036542E-01 ( -12.85%)
   displ. norm   :     0.5773385 α      lambda       -0.2304777E-01
   maximum displ.:     0.1706831 α      in ANC's #141, #72, #144, ...

........................................................................
.............................. CYCLE   13 ..............................
........................................................................

 iter      E             dE          RMSdq      gap      omega  full diag
   1   -100.6589505 -0.100659E+03  0.220E-01    0.45       0.0  T
   2   -100.6582676  0.682873E-03  0.155E-01    0.38       1.0  T
   3   -100.6553882  0.287945E-02  0.216E-01    0.59       1.0  T
   4   -100.6555785 -0.190311E-03  0.190E-01    0.32       1.0  T
   5   -100.6576928 -0.211430E-02  0.129E-01    0.48       1.0  T
   6   -100.6597040 -0.201120E-02  0.113E-02    0.44       1.0  T
   7   -100.6597145 -0.105003E-04  0.443E-03    0.44       2.7  T
   8   -100.6597157 -0.118466E-05  0.250E-03    0.43       4.7  T
   9   -100.6597161 -0.415886E-06  0.872E-04    0.43      13.5  T
  10   -100.6597161 -0.461062E-07  0.344E-04    0.43      34.3  T
     SCC iter.                  ...        0 min,  0.080 sec
     gradient                   ...        0 min,  0.069 sec
 * total energy  :   -99.2826136 Eh     change       -0.1327983E-01 Eh
   gradient norm :     0.0629658 Eh/α   predicted    -0.1536503E-01 (  15.70%)
   displ. norm   :     0.1973910 α      lambda       -0.6525520E-02
   maximum displ.:     0.0666756 α      in ANC's #72, #26, #73, ...

........................................................................
.............................. CYCLE   14 ..............................
........................................................................

 iter      E             dE          RMSdq      gap      omega  full diag
   1   -100.6682857 -0.100668E+03  0.167E-01    0.30       0.0  T
   2   -100.6373780  0.309077E-01  0.530E-01    0.84       1.0  T
   3   -100.6683013 -0.309233E-01  0.141E-01    0.34       1.0  T
   4   -100.6699232 -0.162188E-02  0.665E-02    0.37       1.0  T
   5   -100.6702577 -0.334480E-03  0.337E-02    0.40       1.0  T
   6   -100.6703197 -0.620159E-04  0.119E-02    0.40       1.0  T
   7   -100.6703333 -0.136376E-04  0.434E-03    0.40       2.7  T
   8   -100.6703349 -0.161947E-05  0.171E-03    0.40       6.9  T
   9   -100.6703351 -0.162165E-06  0.806E-04    0.40      14.6  T
  10   -100.6703351 -0.448570E-07  0.136E-04    0.40      86.6  T
     SCC iter.                  ...        0 min,  0.080 sec
     gradient                   ...        0 min,  0.069 sec
 * total energy  :   -99.2865167 Eh     change       -0.3903137E-02 Eh
   gradient norm :     0.0247316 Eh/α   predicted    -0.3389931E-02 ( -13.15%)
   displ. norm   :     0.2459252 α      lambda       -0.2553555E-02
   maximum displ.:     0.1055848 α      in ANC's #26, #72, #35, ...

........................................................................
.............................. CYCLE   15 ..............................
........................................................................

 iter      E             dE          RMSdq      gap      omega  full diag
   1   -100.6770437 -0.100677E+03  0.763E-02    0.40       0.0  T
   2   -100.6767845  0.259251E-03  0.652E-02    0.44       1.0  T
   3   -100.6748992  0.188527E-02  0.145E-01    0.31       1.0  T
   4   -100.6769448 -0.204554E-02  0.321E-02    0.41       1.0  T
   5   -100.6770280 -0.832134E-04  0.211E-02    0.41       1.0  T
   6   -100.6770839 -0.558961E-04  0.380E-03    0.40       3.1  T
   7   -100.6770849 -0.103735E-05  0.199E-03    0.40       5.9  T
   8   -100.6770851 -0.229884E-06  0.778E-04    0.41      15.2  T
   9   -100.6770852 -0.524690E-07  0.216E-04    0.41      54.7  T
     SCC iter.                  ...        0 min,  0.073 sec
     gradient                   ...        0 min,  0.069 sec
 * total energy  :   -99.2883701 Eh     change       -0.1853370E-02 Eh
   gradient norm :     0.0167215 Eh/α   predicted    -0.1354050E-02 ( -26.94%)
   displ. norm   :     0.3112432 α      lambda       -0.2415060E-02
   maximum displ.:     0.1572905 α      in ANC's #26, #25, #35, ...

........................................................................
.............................. CYCLE   16 ..............................
........................................................................

 iter      E             dE          RMSdq      gap      omega  full diag
   1   -100.6782306 -0.100678E+03  0.105E-01    0.42       0.0  T
   2   -100.6768150  0.141565E-02  0.127E-01    0.33       1.0  T
   3   -100.6758408  0.974182E-03  0.157E-01    0.51       1.0  T
   4   -100.6782706 -0.242982E-02  0.240E-02    0.41       1.0  T
   5   -100.6783099 -0.393111E-04  0.869E-03    0.41       1.4  T
   6   -100.6783200 -0.100493E-04  0.353E-03    0.41       3.3  T
   7   -100.6783210 -0.106633E-05  0.168E-03    0.41       7.0  T
   8   -100.6783212 -0.121203E-06  0.684E-04    0.41      17.2  T
   9   -100.6783212 -0.316880E-07  0.261E-04    0.41      45.2  T
     SCC iter.                  ...        0 min,  0.072 sec
     gradient                   ...        0 min,  0.069 sec
 * total energy  :   -99.2900222 Eh     change       -0.1652054E-02 Eh
   gradient norm :     0.0180162 Eh/α   predicted    -0.1324516E-02 ( -19.83%)
   displ. norm   :     0.2992792 α      lambda       -0.1541873E-02
   maximum displ.:     0.1552578 α      in ANC's #26, #25, #15, ...

........................................................................
.............................. CYCLE   17 ..............................
........................................................................

 iter      E             dE          RMSdq      gap      omega  full diag
   1   -100.6762568 -0.100676E+03  0.875E-02    0.45       0.0  T
   2   -100.6716743  0.458252E-02  0.212E-01    0.27       1.0  T
   3   -100.6761532 -0.447888E-02  0.668E-02    0.45       1.0  T
   4   -100.6761039  0.493324E-04  0.490E-02    0.43       1.0  T
   5   -100.6764580 -0.354163E-03  0.539E-03    0.42       2.2  T
   6   -100.6764595 -0.151663E-05  0.256E-03    0.41       4.6  T
   7   -100.6764601 -0.589528E-06  0.136E-03    0.41       8.7  T
   8   -100.6764602 -0.853271E-07  0.612E-04    0.41      19.3  T
   9   -100.6764602 -0.113480E-07  0.210E-04    0.41      56.1  T
     SCC iter.                  ...        0 min,  0.073 sec
     gradient                   ...        0 min,  0.068 sec
 * total energy  :   -99.2910686 Eh     change       -0.1046451E-02 Eh
   gradient norm :     0.0178664 Eh/α   predicted    -0.8399908E-03 ( -19.73%)
   displ. norm   :     0.3062686 α      lambda       -0.1226403E-02
   maximum displ.:     0.1619044 α      in ANC's #26, #25, #15, ...

........................................................................
.............................. CYCLE   18 ..............................
........................................................................

 iter      E             dE          RMSdq      gap      omega  full diag
   1   -100.6745526 -0.100675E+03  0.763E-02    0.44       0.0  T
   2   -100.6715988  0.295380E-02  0.167E-01    0.30       1.0  T
   3   -100.6741778 -0.257900E-02  0.784E-02    0.46       1.0  T
   4   -100.6746447 -0.466924E-03  0.180E-02    0.43       1.0  T
   5   -100.6746690 -0.242506E-04  0.978E-03    0.42       1.2  T
   6   -100.6746800 -0.110233E-04  0.264E-03    0.42       4.5  T
   7   -100.6746804 -0.392722E-06  0.140E-03    0.42       8.4  T
   8   -100.6746805 -0.134449E-06  0.478E-04    0.42      24.7  T
   9   -100.6746805 -0.116422E-07  0.218E-04    0.42      53.9  T
     SCC iter.                  ...        0 min,  0.073 sec
     gradient                   ...        0 min,  0.069 sec
 * total energy  :   -99.2919776 Eh     change       -0.9090223E-03 Eh
   gradient norm :     0.0155636 Eh/α   predicted    -0.6707252E-03 ( -26.21%)
   displ. norm   :     0.3350428 α      lambda       -0.1298656E-02
   maximum displ.:     0.1692012 α      in ANC's #26, #15, #25, ...

........................................................................
.............................. CYCLE   19 ..............................
........................................................................

 iter      E             dE          RMSdq      gap      omega  full diag
   1   -100.6747922 -0.100675E+03  0.774E-02    0.43       0.0  T
   2   -100.6733064  0.148579E-02  0.123E-01    0.34       1.0  T
   3   -100.6740735 -0.767097E-03  0.932E-02    0.48       1.0  T
   4   -100.6748416 -0.768144E-03  0.158E-02    0.42       1.0  T
   5   -100.6748630 -0.213253E-04  0.359E-03    0.42       3.3  T
   6   -100.6748634 -0.383151E-06  0.249E-03    0.42       4.7  T
   7   -100.6748637 -0.330327E-06  0.157E-03    0.42       7.5  T
   8   -100.6748639 -0.228683E-06  0.536E-04    0.42      22.0  T
   9   -100.6748639 -0.211310E-07  0.268E-04    0.42      44.0  T
     SCC iter.                  ...        0 min,  0.073 sec
     gradient                   ...        0 min,  0.068 sec
 * total energy  :   -99.2928985 Eh     change       -0.9208498E-03 Eh
   gradient norm :     0.0106610 Eh/α   predicted    -0.7222198E-03 ( -21.57%)
   displ. norm   :     0.2551319 α      lambda       -0.7801947E-03
   maximum displ.:     0.1108181 α      in ANC's #26, #15, #25, ...

........................................................................
.............................. CYCLE   20 ..............................
........................................................................

 iter      E             dE          RMSdq      gap      omega  full diag
   1   -100.6774531 -0.100677E+03  0.625E-02    0.42       0.0  T
   2   -100.6774263  0.268698E-04  0.397E-02    0.41       1.0  T
   3   -100.6756926  0.173368E-02  0.126E-01    0.51       1.0  T
   4   -100.6774236 -0.173105E-02  0.185E-02    0.42       1.0  T
   5   -100.6774522 -0.285443E-04  0.762E-03    0.42       1.5  T
   6   -100.6774592 -0.701877E-05  0.147E-03    0.42       8.0  T
   7   -100.6774593 -0.974252E-07  0.867E-04    0.42      13.6  T
   8   -100.6774593 -0.450401E-07  0.320E-04    0.42      36.8  T
     SCC iter.                  ...        0 min,  0.065 sec
     gradient                   ...        0 min,  0.068 sec
 * total energy  :   -99.2933951 Eh     change       -0.4966465E-03 Eh
   gradient norm :     0.0078856 Eh/α   predicted    -0.4154961E-03 ( -16.34%)
   displ. norm   :     0.1415740 α      lambda       -0.2741112E-03
   maximum displ.:     0.0643536 α      in ANC's #15, #26, #14, ...
 * RMSD in coord.:     0.8477997 α      energy gain  -0.8797812E+00 Eh

generating ANC from model Hessian ...
Using Lindh-Hessian (1995)
 Shifting diagonal of input Hessian by    1.0031455363823523E-002
 Lowest  eigenvalues of input Hessian
    0.010000    0.010024    0.000000    0.000000    0.000000    0.000000
    0.000000    0.000000    0.010071    0.010097    0.010112    0.010189
    0.010307    0.010543    0.010555    0.010611    0.010620    0.010713
 Highest eigenvalues
    2.005572    2.049710    2.064975    2.114451    2.185783    2.253247


........................................................................
.............................. CYCLE   21 ..............................
........................................................................

 iter      E             dE          RMSdq      gap      omega  full diag
   1   -100.6789067 -0.100679E+03  0.329E-02    0.42       0.0  T
   2   -100.6788914  0.153448E-04  0.232E-02    0.43       1.0  T
   3   -100.6783844  0.506909E-03  0.698E-02    0.37       1.0  T
   4   -100.6788987 -0.514252E-03  0.992E-03    0.42       1.2  T
   5   -100.6789098 -0.110759E-04  0.244E-03    0.42       4.8  T
   6   -100.6789102 -0.465628E-06  0.111E-03    0.42      10.6  T
   7   -100.6789103 -0.319613E-07  0.841E-04    0.42      14.0  T
   8   -100.6789103 -0.634334E-07  0.303E-04    0.42      38.9  T
     SCC iter.                  ...        0 min,  0.065 sec
     gradient                   ...        0 min,  0.069 sec
 * total energy  :   -99.2935572 Eh     change       -0.1620328E-03 Eh
   gradient norm :     0.0055628 Eh/α   predicted     0.0000000E+00 (-100.00%)
   displ. norm   :     0.1072739 α      lambda       -0.2112786E-03
   maximum displ.:     0.0499543 α      in ANC's #19, #18, #5, ...

........................................................................
.............................. CYCLE   22 ..............................
........................................................................

 iter      E             dE          RMSdq      gap      omega  full diag
   1   -100.6791346 -0.100679E+03  0.350E-02    0.42       0.0  T
   2   -100.6791265  0.808179E-05  0.224E-02    0.42       1.0  T
   3   -100.6789249  0.201672E-03  0.401E-02    0.42       1.0  T
   4   -100.6790619 -0.137002E-03  0.265E-02    0.44       1.0  T
   5   -100.6791348 -0.729095E-04  0.605E-03    0.42       1.9  T
   6   -100.6791387 -0.390745E-05  0.122E-03    0.42       9.6  T
   7   -100.6791387 -0.130537E-07  0.674E-04    0.42      17.5  T
   8   -100.6791387 -0.409988E-07  0.217E-04    0.42      54.3  T
     SCC iter.                  ...        0 min,  0.065 sec
     gradient                   ...        0 min,  0.068 sec
 * total energy  :   -99.2937051 Eh     change       -0.1479733E-03 Eh
   gradient norm :     0.0034476 Eh/α   predicted    -0.1081676E-03 ( -26.90%)
   displ. norm   :     0.1948475 α      lambda       -0.2510644E-03
   maximum displ.:     0.0931341 α      in ANC's #19, #18, #9, ...

........................................................................
.............................. CYCLE   23 ..............................
........................................................................

 iter      E             dE          RMSdq      gap      omega  full diag
   1   -100.6793267 -0.100679E+03  0.639E-02    0.43       0.0  T
   2   -100.6792565  0.701648E-04  0.459E-02    0.40       1.0  T
   3   -100.6776161  0.164035E-02  0.126E-01    0.51       1.0  T
   4   -100.6791608 -0.154470E-02  0.365E-02    0.42       1.0  T
   5   -100.6793334 -0.172592E-03  0.685E-03    0.42       1.7  T
   6   -100.6793383 -0.485928E-05  0.196E-03    0.42       6.0  T
   7   -100.6793384 -0.625714E-07  0.908E-04    0.42      13.0  T
   8   -100.6793384 -0.657096E-07  0.341E-04    0.42      34.5  T
     SCC iter.                  ...        0 min,  0.065 sec
     gradient                   ...        0 min,  0.068 sec
 * total energy  :   -99.2938312 Eh     change       -0.1260733E-03 Eh
   gradient norm :     0.0036089 Eh/α   predicted    -0.1303042E-03 (   3.36%)
   displ. norm   :     0.0992853 α      lambda       -0.7982420E-04
   maximum displ.:     0.0429832 α      in ANC's #9, #10, #19, ...

........................................................................
.............................. CYCLE   24 ..............................
........................................................................

 iter      E             dE          RMSdq      gap      omega  full diag
   1   -100.6792364 -0.100679E+03  0.371E-02    0.42       0.0  T
   2   -100.6792365 -0.135565E-06  0.216E-02    0.42       1.0  T
   3   -100.6791830  0.534959E-04  0.223E-02    0.44       1.0  T
   4   -100.6792343 -0.513278E-04  0.502E-03    0.42       2.3  T
   5   -100.6792367 -0.236857E-05  0.183E-03    0.42       6.4  T
   6   -100.6792369 -0.256466E-06  0.978E-04    0.42      12.1  T
   7   -100.6792370 -0.790147E-07  0.335E-04    0.42      35.1  T
     SCC iter.                  ...        0 min,  0.057 sec
     gradient                   ...        0 min,  0.068 sec
 * total energy  :   -99.2938960 Eh     change       -0.6474999E-04 Eh
   gradient norm :     0.0023507 Eh/α   predicted    -0.4030563E-04 ( -37.75%)
   displ. norm   :     0.2397225 α      lambda       -0.1498925E-03
   maximum displ.:     0.1050052 α      in ANC's #9, #10, #16, ...

........................................................................
.............................. CYCLE   25 ..............................
........................................................................

 iter      E             dE          RMSdq      gap      omega  full diag
   1   -100.6788098 -0.100679E+03  0.930E-02    0.42       0.0  T
   2   -100.6787863  0.234917E-04  0.551E-02    0.41       1.0  T
   3   -100.6758791  0.290717E-02  0.163E-01    0.53       1.0  T
   4   -100.6788094 -0.293031E-02  0.679E-03    0.42       1.7  T
   5   -100.6788118 -0.239292E-05  0.420E-03    0.42       2.8  T
   6   -100.6788135 -0.168057E-05  0.185E-03    0.42       6.4  T
   7   -100.6788137 -0.252248E-06  0.646E-04    0.42      18.2  T
   8   -100.6788138 -0.398206E-07  0.233E-04    0.42      50.7  T
     SCC iter.                  ...        0 min,  0.065 sec
     gradient                   ...        0 min,  0.069 sec
 * total energy  :   -99.2940011 Eh     change       -0.1051062E-03 Eh
   gradient norm :     0.0035054 Eh/α   predicted    -0.7926049E-04 ( -24.59%)
   displ. norm   :     0.2273595 α      lambda       -0.9665592E-04
   maximum displ.:     0.1010014 α      in ANC's #9, #10, #16, ...

........................................................................
.............................. CYCLE   26 ..............................
........................................................................

 iter      E             dE          RMSdq      gap      omega  full diag
   1   -100.6783655 -0.100678E+03  0.843E-02    0.42       0.0  T
   2   -100.6783283  0.371678E-04  0.516E-02    0.40       1.0  T
   3   -100.6753042  0.302413E-02  0.168E-01    0.54       1.0  T
   4   -100.6783231 -0.301889E-02  0.186E-02    0.42       1.0  T
   5   -100.6783687 -0.456517E-04  0.400E-03    0.42       2.9  T
   6   -100.6783702 -0.151733E-05  0.139E-03    0.42       8.5  T
   7   -100.6783703 -0.751902E-07  0.640E-04    0.42      18.4  T
   8   -100.6783703 -0.314304E-07  0.264E-04    0.42      44.7  T
     SCC iter.                  ...        0 min,  0.065 sec
     gradient                   ...        0 min,  0.070 sec
 * total energy  :   -99.2940757 Eh     change       -0.7468274E-04 Eh
   gradient norm :     0.0042012 Eh/α   predicted    -0.5082698E-04 ( -31.94%)
   displ. norm   :     0.2930879 α      lambda       -0.1246500E-03
   maximum displ.:     0.1293622 α      in ANC's #9, #2, #16, ...

........................................................................
.............................. CYCLE   27 ..............................
........................................................................

 iter      E             dE          RMSdq      gap      omega  full diag
   1   -100.6781335 -0.100678E+03  0.102E-01    0.42       0.0  T
   2   -100.6780993  0.342414E-04  0.614E-02    0.40       1.0  T
   3   -100.6752938  0.280542E-02  0.161E-01    0.55       1.0  T
   4   -100.6779489 -0.265503E-02  0.380E-02    0.41       1.0  T
   5   -100.6781399 -0.191011E-03  0.510E-03    0.42       2.3  T
   6   -100.6781420 -0.215015E-05  0.180E-03    0.42       6.5  T
   7   -100.6781422 -0.119520E-06  0.101E-03    0.42      11.7  T
   8   -100.6781422 -0.759013E-07  0.345E-04    0.42      34.2  T
   9   -100.6781422 -0.109140E-07  0.124E-04    0.42      94.7  T
     SCC iter.                  ...        0 min,  0.073 sec
     gradient                   ...        0 min,  0.068 sec
 * total energy  :   -99.2941719 Eh     change       -0.9618867E-04 Eh
   gradient norm :     0.0036315 Eh/α   predicted    -0.6767938E-04 ( -29.64%)
   displ. norm   :     0.3424992 α      lambda       -0.1379686E-03
   maximum displ.:     0.1489549 α      in ANC's #9, #2, #13, ...

........................................................................
.............................. CYCLE   28 ..............................
........................................................................

 iter      E             dE          RMSdq      gap      omega  full diag
   1   -100.6778902 -0.100678E+03  0.116E-01    0.42       0.0  T
   2   -100.6778458  0.444722E-04  0.697E-02    0.40       1.0  T
   3   -100.6751816  0.266418E-02  0.157E-01    0.55       1.0  T
   4   -100.6774606 -0.227906E-02  0.592E-02    0.40       1.0  T
   5   -100.6779012 -0.440512E-03  0.644E-03    0.42       1.8  T
   6   -100.6779045 -0.333911E-05  0.217E-03    0.42       5.4  T
   7   -100.6779047 -0.180121E-06  0.120E-03    0.42       9.8  T
   8   -100.6779048 -0.905826E-07  0.449E-04    0.42      26.3  T
   9   -100.6779048 -0.205209E-07  0.150E-04    0.42      78.5  T
     SCC iter.                  ...        0 min,  0.073 sec
     gradient                   ...        0 min,  0.069 sec
 * total energy  :   -99.2942775 Eh     change       -0.1055352E-03 Eh
   gradient norm :     0.0033986 Eh/α   predicted    -0.7707680E-04 ( -26.97%)
   displ. norm   :     0.3354056 α      lambda       -0.1359312E-03
   maximum displ.:     0.1423699 α      in ANC's #9, #2, #13, ...

........................................................................
.............................. CYCLE   29 ..............................
........................................................................

 iter      E             dE          RMSdq      gap      omega  full diag
   1   -100.6785856 -0.100679E+03  0.108E-01    0.42       0.0  T
   2   -100.6785655  0.200623E-04  0.643E-02    0.41       1.0  T
   3   -100.6777174  0.848155E-03  0.805E-02    0.45       1.0  T
   4   -100.6785856 -0.868243E-03  0.108E-02    0.42       1.1  T
   5   -100.6785746  0.110415E-04  0.144E-02    0.41       1.0  T
   6   -100.6785964 -0.218557E-04  0.244E-03    0.42       4.8  T
   7   -100.6785968 -0.311181E-06  0.119E-03    0.42       9.9  T
   8   -100.6785969 -0.121805E-06  0.372E-04    0.42      31.7  T
   9   -100.6785969 -0.149202E-07  0.146E-04    0.42      80.5  T
     SCC iter.                  ...        0 min,  0.073 sec
     gradient                   ...        0 min,  0.069 sec
 * total energy  :   -99.2943796 Eh     change       -0.1021224E-03 Eh
   gradient norm :     0.0032098 Eh/α   predicted    -0.7561292E-04 ( -25.96%)
   displ. norm   :     0.3588569 α      lambda       -0.1166436E-03
   maximum displ.:     0.1505316 α      in ANC's #9, #2, #13, ...

........................................................................
.............................. CYCLE   30 ..............................
........................................................................

 iter      E             dE          RMSdq      gap      omega  full diag
   1   -100.6777782 -0.100678E+03  0.126E-01    0.42       0.0  T
   2   -100.6777146  0.636375E-04  0.763E-02    0.40       1.0  T
   3   -100.6733737  0.434088E-02  0.202E-01    0.58       1.0  T
   4   -100.6773901 -0.401641E-02  0.558E-02    0.41       1.0  T
   5   -100.6777900 -0.399886E-03  0.631E-03    0.42       1.9  T
   6   -100.6777927 -0.271094E-05  0.278E-03    0.42       4.2  T
   7   -100.6777931 -0.415486E-06  0.120E-03    0.42       9.8  T
   8   -100.6777932 -0.111068E-06  0.439E-04    0.42      26.8  T
   9   -100.6777933 -0.210965E-07  0.171E-04    0.42      68.8  T
     SCC iter.                  ...        0 min,  0.073 sec
     gradient                   ...        0 min,  0.068 sec
 * total energy  :   -99.2944595 Eh     change       -0.7988705E-04 Eh
   gradient norm :     0.0049606 Eh/α   predicted    -0.6583282E-04 ( -17.59%)
   displ. norm   :     0.3068505 α      lambda       -0.1661499E-03
   maximum displ.:     0.1366559 α      in ANC's #2, #9, #13, ...

........................................................................
.............................. CYCLE   31 ..............................
........................................................................

 iter      E             dE          RMSdq      gap      omega  full diag
   1   -100.6830184 -0.100683E+03  0.775E-02    0.41       0.0  T
   2   -100.6826088  0.409537E-03  0.747E-02    0.46       1.0  T
   3   -100.6809087  0.170009E-02  0.146E-01    0.33       1.0  T
   4   -100.6830148 -0.210607E-02  0.151E-02    0.42       1.0  T
   5   -100.6830348 -0.199972E-04  0.668E-03    0.41       1.8  T
   6   -100.6830394 -0.460884E-05  0.235E-03    0.42       5.0  T
   7   -100.6830397 -0.322128E-06  0.108E-03    0.42      10.9  T
   8   -100.6830398 -0.106216E-06  0.424E-04    0.42      27.8  T
   9   -100.6830399 -0.169110E-07  0.160E-04    0.42      73.6  T
     SCC iter.                  ...        0 min,  0.073 sec
     gradient                   ...        0 min,  0.068 sec
 * total energy  :   -99.2944853 Eh     change       -0.2582720E-04 Eh
   gradient norm :     0.0069576 Eh/α   predicted    -0.9089805E-04 ( 251.95%)
   displ. norm   :     0.2309875 α      lambda       -0.1362491E-03
   maximum displ.:     0.0988027 α      in ANC's #9, #10, #2, ...

........................................................................
.............................. CYCLE   32 ..............................
........................................................................

 iter      E             dE          RMSdq      gap      omega  full diag
   1   -100.6787140 -0.100679E+03  0.935E-02    0.42       0.0  T
   2   -100.6784318  0.282171E-03  0.730E-02    0.38       1.0  T
   3   -100.6746875  0.374431E-02  0.198E-01    0.55       1.0  T
   4   -100.6785640 -0.387646E-02  0.352E-02    0.43       1.0  T
   5   -100.6787294 -0.165475E-03  0.640E-03    0.42       1.8  T
   6   -100.6787324 -0.298347E-05  0.308E-03    0.42       3.8  T
   7   -100.6787331 -0.709167E-06  0.111E-03    0.42      10.6  T
   8   -100.6787332 -0.869693E-07  0.379E-04    0.42      31.1  T
   9   -100.6787332 -0.141560E-07  0.140E-04    0.42      84.3  T
     SCC iter.                  ...        0 min,  0.073 sec
     gradient                   ...        0 min,  0.068 sec
 * total energy  :   -99.2945610 Eh     change       -0.7573276E-04 Eh
   gradient norm :     0.0038827 Eh/α   predicted    -0.7176031E-04 (  -5.25%)
   displ. norm   :     0.0433646 α      lambda       -0.3793784E-04
   maximum displ.:     0.0155392 α      in ANC's #19, #12, #16, ...

........................................................................
.............................. CYCLE   33 ..............................
........................................................................

 iter      E             dE          RMSdq      gap      omega  full diag
   1   -100.6796070 -0.100680E+03  0.109E-02    0.42       0.0  T
   2   -100.6796072 -0.173141E-06  0.641E-03    0.42       1.8  T
   3   -100.6796053  0.191310E-05  0.446E-03    0.41       2.6  T
   4   -100.6796025  0.278913E-05  0.664E-03    0.42       1.8  T
   5   -100.6796071 -0.465311E-05  0.990E-04    0.42      11.9  T
   6   -100.6796072 -0.948248E-07  0.523E-04    0.42      22.5  T
   7   -100.6796072 -0.288295E-07  0.137E-04    0.42      86.1  T
     SCC iter.                  ...        0 min,  0.057 sec
     gradient                   ...        0 min,  0.069 sec
 * total energy  :   -99.2945891 Eh     change       -0.2808001E-04 Eh
   gradient norm :     0.0028840 Eh/α   predicted    -0.1900513E-04 ( -32.32%)
   displ. norm   :     0.2030150 α      lambda       -0.6227665E-04
   maximum displ.:     0.1049349 α      in ANC's #2, #9, #15, ...

   *** GEOMETRY OPTIMIZATION CONVERGED AFTER 33 ITERATIONS ***

------------------------------------------------------------------------
 total energy gain   :        -0.8809752 Eh     -552.8203 kcal/mol
 total RMSD          :         0.9181412 a0        0.4859 Å
 total power (kW/mol):       -70.0909131 (step) -411.2890 (real)
------------------------------------------------------------------------

 ANCopt (total)                0 d,  0 h,  0 min,  5.624 sec
 optimizer setup                ...        0 min,  0.000 sec (  0.005%)
 model hessian                  ...        0 min,  0.106 sec (  1.892%)
 ANC generation                 ...        0 min,  0.013 sec (  0.234%)
 coordinate transformation      ...        0 min,  0.002 sec (  0.041%)
 single point calculation       ...        0 min,  5.462 sec ( 97.125%)
 optimization log               ...        0 min,  0.008 sec (  0.149%)
 hessian update                 ...        0 min,  0.002 sec (  0.039%)
 rational function              ...        0 min,  0.012 sec (  0.221%)

================
 final structure:
================
72
 xtb: 6.6.1 (8d0f1dd)
N           -1.80656979212772        2.98403482533326        2.24501611594415
C           -1.77038996838652        2.17243926061700        1.29722194222274
C           -2.91373679893998        1.90783693471737        0.35817580537684
C           -3.32196826115450        0.44452607574222        0.45019747042783
C           -4.10446594544359       -0.11940063480485       -0.53182450580068
C           -4.55083979584961       -1.47908342580564       -0.49889771107940
O           -5.23421564025024       -1.97480193303689       -1.40660368991879
C           -7.77626406985722       -0.61814671825985       -3.80014488038256
C           -4.14038047958667       -2.25318269427050        0.67917057664208
O           -4.58965751755098       -3.51284437840603        0.68269173012068
C           -4.32014887518176       -4.35647072547900        1.77765596210329
C           -3.36136188934335       -1.66161076689504        1.65780205985459
C           -2.95156392023318       -0.33884927546592        1.55049944393187
C           -2.37745085316300        2.24201476813125       -1.05888734239475
C           -1.43287892716349        1.18741899733412       -1.66425590507397
C           -0.10068429625347        1.13550213413635       -1.02762215733555
N            0.53705201171831        0.03286006249816       -0.67084265529998
C            1.91825165704306        0.08291439763560       -0.25106543603347
C            2.87329900534474       -0.37926061901934       -1.36948283946287
C            4.29837483749645       -0.17845577407534       -0.93462571022519
C            4.93586536693175        1.03234885871840       -1.15611088676452
C            6.23700494922770        1.23953018253442       -0.72656177643071
C            6.92836328905621        0.23778971578075       -0.05941289416034
O            8.18664501431281        0.32809004276955        0.40495527329493
C            8.90866136244513        1.52328692096545        0.21313265064791
C            6.28336169606531       -1.01023558248227        0.17061339314934
O            7.02782369429672       -1.92687591873639        0.81720991662961
C            6.49133056101847       -3.20449390139003        1.06633744192641
C            4.98035209159395       -1.19276604475883       -0.26722801229844
C           -0.08167630857836       -1.26986528922362       -0.75409648851452
C           -4.17910986153799        2.76762809231472        0.65447040107023
C           -4.75899031809703        2.45883772232314        2.03259062095607
C           -3.93292411455328        4.26823562471652        0.52633389561660
H           -4.43917827631865        0.45039467688930       -1.38461367521063
H           -8.28881567846691        0.13357249757054       -3.23805137256426
H           -7.94895174873051       -1.65456481228969       -3.59036979075408
H           -7.07145429822391       -0.33717872448561       -4.55359513711165
H           -4.73280406849641       -3.94944054581521        2.70498746466199
H           -4.80782343943450       -5.30113078680171        1.54677896183555
H           -3.24522500475324       -4.52200398888234        1.89867898629328
H           -3.07031840198249       -2.22368856461869        2.53262493955238
H           -2.36769871706990        0.09179616769848        2.34944034288452
H           -3.22686937393583        2.35064414350425       -1.73235047234499
H           -1.86182880415209        3.20252712086550       -1.01827456028302
H           -1.92198939629410        0.21546546296218       -1.66228784728659
H           -1.27616121907949        1.48007154980446       -2.71064163890993
H           -0.86831857430822        1.59549022773818        1.01568924775593
H            0.45214695069126        2.06113782915198       -0.95077134047308
H            2.05063937881388       -0.55421693640942        0.62748706316193
H            2.17423750151613        1.10724544933612        0.02738504312748
H            2.67334260929283        0.20969761907010       -2.26623676199445
H            2.69290421032212       -1.42985703771967       -1.59883394364607
H            4.42316892726000        1.82455822166548       -1.68019903042321
H            6.70841335275738        2.18884302228748       -0.92061096745326
H            8.42144565474643        2.36892064127849        0.70789452856077
H            9.03840252978758        1.74623217530853       -0.84999619924662
H            9.88255120354773        1.35193752324387        0.66745535939380
H            7.27714251854534       -3.75606825610488        1.57869376577626
H            5.60881506476490       -3.15040470186630        1.71170500300711
H            6.23503710884459       -3.72012753431988        0.13579794114185
H            4.48572329313574       -2.13739469614202       -0.10362952449965
H           -0.29338536993130       -1.54179838521394       -1.78956186346958
H           -1.01793027182397       -1.28328752560705       -0.19121376205607
H            0.58840580754451       -2.01297845299832       -0.33076580673269
H           -4.92425131791132        2.47531563934253       -0.09480541806350
H           -4.05874219023742        2.75354164514853        2.80821820251696
H           -4.98218803685812        1.39983418976218        2.13804598179312
H           -5.68196217441625        3.01578302114365        2.17123141297203
H           -3.16618079393938        4.58434633954653        1.22719383362336
H           -3.63755610598320        4.54862038997668       -0.48106703955230
H           -4.85055943875878        4.80042649715709        0.76330677018048
H           -0.96677571682900        3.11292748692204        2.80011433765558

 Bond Distances (Angstroems)
 ---------------------------
N1-C2=1.2483         N1-H72=1.0149        C2-N1=1.2483         C2-C3=1.5030         C2-H47=1.1072        C3-C2=1.5030         
C3-C4=1.5220         C3-C14=1.5516        C3-C31=1.5583        C4-C3=1.5220         C4-C5=1.3765         C4-C13=1.4006        
C5-C4=1.3765         C5-C6=1.4315         C5-H34=1.0789        C6-C5=1.4315         C6-O7=1.2396         C6-C9=1.4682         
O7-C6=1.2396         C8-H35=1.0695        C8-H36=1.0714        C8-H37=1.0693        C9-C6=1.4682         C9-O10=1.3374        
C9-C12=1.3837        O10-C9=1.3374        O10-C11=1.4083       C11-O10=1.4083       C11-H38=1.0936       C11-H39=1.0879       
C11-H40=1.0943       C12-C9=1.3837        C12-C13=1.3889       C12-H41=1.0798       C13-C4=1.4006        C13-C12=1.3889       
C13-H42=1.0792       C14-C3=1.5516        C14-C15=1.5398       C14-H43=1.0894       C14-H44=1.0909       C15-C14=1.5398       
C15-C16=1.4774       C15-H45=1.0881       C15-H46=1.0978       C16-C15=1.4774       C16-N17=1.3228       C16-H48=1.0809       
N17-C16=1.3228       N17-C18=1.4444       N17-C30=1.4446       C18-N17=1.4444       C18-C19=1.5416       C18-H49=1.0933       
C18-H50=1.0919       C19-C18=1.5416       C19-C20=1.5034       C19-H51=1.0913       C19-H52=1.0904       C20-C19=1.5034       
C20-C21=1.3862       C20-C29=1.3926       C21-C20=1.3862       C21-C22=1.3858       C21-H53=1.0794       C22-C21=1.3858       
C22-C23=1.3880       C22-H54=1.0775       C23-C22=1.3880       C23-O24=1.3443       C23-C26=1.4236       O24-C23=1.3443       
O24-C25=1.4095       C25-O24=1.4095       C25-H55=1.0942       C25-H56=1.0940       C25-H57=1.0882       C26-C23=1.4236       
C26-O27=1.3463       C26-C29=1.3867       O27-C26=1.3463       O27-C28=1.4079       C28-O27=1.4079       C28-H58=1.0882       
C28-H59=1.0947       C28-H60=1.0943       C29-C20=1.3926       C29-C26=1.3867       C29-H61=1.0788       C30-N17=1.4446       
C30-H62=1.0913       C30-H63=1.0925       C30-H64=1.0865       C31-C3=1.5583        C31-C32=1.5267       C31-C33=1.5261       
C31-H65=1.0964       C32-C31=1.5267       C32-H66=1.0857       C32-H67=1.0874       C32-H68=1.0869       C33-C31=1.5261       
C33-H69=1.0858       C33-H70=1.0866       C33-H71=1.0869       H34-C5=1.0789        H35-C8=1.0695        H36-C8=1.0714        
H37-C8=1.0693        H38-C11=1.0936       H39-C11=1.0879       H40-C11=1.0943       H41-C12=1.0798       H42-C13=1.0792       
H43-C14=1.0894       H44-C14=1.0909       H45-C15=1.0881       H46-C15=1.0978       H47-C2=1.1072        H48-C16=1.0809       
H49-C18=1.0933       H50-C18=1.0919       H51-C19=1.0913       H52-C19=1.0904       H53-C21=1.0794       H54-C22=1.0775       
H55-C25=1.0942       H56-C25=1.0940       H57-C25=1.0882       H58-C28=1.0882       H59-C28=1.0947       H60-C28=1.0943       
H61-C29=1.0788       H62-C30=1.0913       H63-C30=1.0925       H64-C30=1.0865       H65-C31=1.0964       H66-C32=1.0857       
H67-C32=1.0874       H68-C32=1.0869       H69-C33=1.0858       H70-C33=1.0866       H71-C33=1.0869       H72-N1=1.0149        
 C  H  Rav=1.0874 sigma=0.0079  Rmin=1.0693  Rmax=1.1072    38
 C  C  Rav=1.4574 sigma=0.0665  Rmin=1.3765  Rmax=1.5583    22
 N  H  Rav=1.0149 sigma=0.0000  Rmin=1.0149  Rmax=1.0149     1
 N  C  Rav=1.3650 sigma=0.0837  Rmin=1.2483  Rmax=1.4446     4
 O  C  Rav=1.3562 sigma=0.0566  Rmin=1.2396  Rmax=1.4095     7

 selected bond angles (degree)
 --------------------
H72-N1-C2=118.29               C3-C2-N1=124.53                H47-C2-N1=123.74               H47-C2-C3=111.66               
C4-C3-C2=109.60                C14-C3-C2=105.65               C14-C3-C4=110.79               C31-C3-C2=113.69               
C31-C3-C4=107.53               C31-C3-C14=109.60              C5-C4-C3=120.21                C13-C4-C3=120.95               
C13-C4-C5=118.80               C6-C5-C4=123.37                H34-C5-C4=121.60               H34-C5-C6=115.03               
O7-C6-C5=122.34                C9-C6-C5=115.60                C9-C6-O7=122.06                H36-C8-H35=119.98              
H37-C8-H35=120.10              H37-C8-H36=119.89              O10-C9-C6=113.88               C12-C9-C6=119.97               
C12-C9-O10=126.15              C11-O10-C9=120.13              

 selected dihedral angles (degree)
 ---------------------------------
C3-C2-N1-H72=182.20           H47-C2-N1-H72=358.96          C4-C3-C2-N1=240.58            C4-C3-C2-H47= 63.48           
C14-C3-C2-N1=121.16           C14-C3-C2-H47=304.06          C31-C3-C2-N1=  0.94           C31-C3-C2-H47=183.84          
C5-C4-C3-C2=196.27            C5-C4-C3-C14=312.47           C5-C4-C3-C31= 72.23           C13-C4-C3-C2= 18.50           
C13-C4-C3-C14=134.71          C13-C4-C3-C31=254.46          C6-C5-C4-C3=181.37            C6-C5-C4-C13=359.19           
H34-C5-C4-C3=  0.43           H34-C5-C4-C13=178.24          O7-C6-C5-C4=181.40            O7-C6-C5-H34=  2.29           
C9-C6-C5-C4=  1.10            C9-C6-C5-H34=181.99           O10-C9-C6-C5=179.21           O10-C9-C6-O7=358.91           
C12-C9-C6-C5=359.38           C12-C9-C6-O7=179.08           C11-O10-C9-C6=182.62          C11-O10-C9-C12=  2.44         
           -------------------------------------------------
          |                Final Singlepoint                |
           -------------------------------------------------

          ...................................................
          :                      SETUP                      :
          :.................................................:
          :  # basis functions                 171          :
          :  # atomic orbitals                 171          :
          :  # shells                          105          :
          :  # electrons                       180          :
          :  max. iterations                   250          :
          :  Hamiltonian                  GFN2-xTB          :
          :  restarted?                      false          :
          :  GBSA solvation                  false          :
          :  PC potential                    false          :
          :  electronic temp.         5000.0000000     K    :
          :  accuracy                    1.0000000          :
          :  -> integral cutoff          0.2500000E+02      :
          :  -> integral neglect         0.1000000E-07      :
          :  -> SCF convergence          0.1000000E-05 Eh   :
          :  -> wf. convergence          0.1000000E-03 e    :
          :  Broyden damping             0.4000000          :
          ...................................................

 iter      E             dE          RMSdq      gap      omega  full diag
   1   -100.6796072 -0.100680E+03  0.839E-05    0.42       0.0  T
   2   -100.6796072  0.481414E-08  0.211E-04    0.42      56.0  T
   3   -100.6796072 -0.452175E-08  0.105E-04    0.42     112.8  T

   *** convergence criteria satisfied after 3 iterations ***

         #    Occupation            Energy/Eh            Energy/eV
      -------------------------------------------------------------
         1        2.0000           -0.8121048             -22.0985
       ...           ...                  ...                  ...
        84        1.9921           -0.5121273             -13.9357
        85        1.9755           -0.4941224             -13.4458
        86        1.9557           -0.4845539             -13.1854
        87        1.9164           -0.4741766             -12.9030
        88        1.8373           -0.4629689             -12.5980
        89        1.8209           -0.4613062             -12.5528
        90        1.3183           -0.4350272             -11.8377 (HOMO)
        91        0.8480           -0.4197334             -11.4215 (LUMO)
        92        0.3568           -0.4004052             -10.8956
        93        0.0108           -0.3420416              -9.3074
        94        0.0024           -0.3181142              -8.6563
        95        0.0021           -0.3159308              -8.5969
       ...           ...                  ...                  ...
       171                          0.6004046              16.3378
      -------------------------------------------------------------
                  HL-Gap            0.0152937 Eh            0.4162 eV
             Fermi-level           -0.4245852 Eh          -11.5536 eV

 SCC (total)                   0 d,  0 h,  0 min,  0.118 sec
 SCC setup                      ...        0 min,  0.001 sec (  0.740%)
 Dispersion                     ...        0 min,  0.002 sec (  1.344%)
 classical contributions        ...        0 min,  0.000 sec (  0.366%)
 integral evaluation            ...        0 min,  0.018 sec ( 14.980%)
 iterations                     ...        0 min,  0.027 sec ( 22.716%)
 molecular gradient             ...        0 min,  0.070 sec ( 59.301%)
 printout                       ...        0 min,  0.001 sec (  0.541%)

         :::::::::::::::::::::::::::::::::::::::::::::::::::::
         ::                     SUMMARY                     ::
         :::::::::::::::::::::::::::::::::::::::::::::::::::::
         :: total energy             -99.294589120377 Eh    ::
         :: gradient norm              0.002884133085 Eh/a0 ::
         :: HOMO-LUMO gap              0.416163783837 eV    ::
         ::.................................................::
         :: SCC energy              -100.679607242761 Eh    ::
         :: -> isotropic ES            0.123986611031 Eh    ::
         :: -> anisotropic ES          0.003221050209 Eh    ::
         :: -> anisotropic XC          0.049633208971 Eh    ::
         :: -> dispersion             -0.072642905090 Eh    ::
         :: repulsion energy           1.383835014520 Eh    ::
         :: add. restraining           0.000002265766 Eh    ::
         :: total charge               1.000000000000 e     ::
         :::::::::::::::::::::::::::::::::::::::::::::::::::::

           -------------------------------------------------
          |                Property Printout                |
           -------------------------------------------------

    * Orbital Energies and Occupations

         #    Occupation            Energy/Eh            Energy/eV
      -------------------------------------------------------------
         1        2.0000           -0.8121048             -22.0985
       ...           ...                  ...                  ...
        78        1.9978           -0.5322107             -14.4822
        79        1.9973           -0.5293807             -14.4052
        80        1.9966           -0.5253464             -14.2954
        81        1.9959           -0.5224605             -14.2169
        82        1.9941           -0.5169003             -14.0656
        83        1.9928           -0.5135248             -13.9737
        84        1.9921           -0.5121273             -13.9357
        85        1.9755           -0.4941224             -13.4458
        86        1.9557           -0.4845539             -13.1854
        87        1.9164           -0.4741766             -12.9030
        88        1.8373           -0.4629689             -12.5980
        89        1.8209           -0.4613062             -12.5528
        90        1.3183           -0.4350272             -11.8377 (HOMO)
        91        0.8480           -0.4197334             -11.4215 (LUMO)
        92        0.3568           -0.4004052             -10.8956
        93        0.0108           -0.3420416              -9.3074
        94        0.0024           -0.3181142              -8.6563
        95        0.0021           -0.3159308              -8.5969
        96        0.0015           -0.3105780              -8.4513
        97        0.0007           -0.2985691              -8.1245
        98        0.0000           -0.1934948              -5.2653
        99        0.0000           -0.1859593              -5.0602
       100                         -0.1416030              -3.8532
       101                         -0.0726388              -1.9766
       ...                                ...                  ...
       171                          0.6004046              16.3378
      -------------------------------------------------------------
                  HL-Gap            0.0152937 Eh            0.4162 eV
             Fermi-level           -0.4245852 Eh          -11.5536 eV

     #   Z          covCN         q      C6AA      α(0)
     1   7 N        1.774    -0.266    27.718     7.796
     2   6 C        2.827     0.103    25.704     8.308
     3   6 C        3.908     0.007    20.407     6.421
     4   6 C        2.967     0.004    27.921     8.667
     5   6 C        2.917    -0.080    29.992     8.981
     6   6 C        2.827     0.194    23.857     8.004
     7   8 O        0.858    -0.379    21.266     6.183
     8   6 C        2.780    -0.110    30.766     9.085
     9   6 C        2.857     0.123    25.297     8.244
    10   8 O        1.706    -0.201    17.344     5.623
    11   6 C        3.645     0.024    20.499     6.508
    12   6 C        2.904    -0.074    29.840     8.957
    13   6 C        2.920    -0.049    29.222     8.865
    14   6 C        3.812    -0.065    21.735     6.636
    15   6 C        3.802    -0.072    21.884     6.660
    16   6 C        2.844     0.013    27.711     8.627
    17   7 N        2.729     0.019    20.917     6.793
    18   6 C        3.756    -0.018    20.945     6.525
    19   6 C        3.808    -0.071    21.850     6.654
    20   6 C        2.969     0.001    28.002     8.680
    21   6 C        2.922    -0.048    29.191     8.860
    22   6 C        2.913    -0.067    29.662     8.931
    23   6 C        2.865     0.135    25.054     8.205
    24   8 O        1.706    -0.218    17.620     5.667
    25   6 C        3.645     0.024    20.509     6.509
    26   6 C        2.862     0.134    25.061     8.206
    27   8 O        1.706    -0.221    17.668     5.675
    28   6 C        3.645     0.026    20.475     6.504
    29   6 C        2.919    -0.079    29.971     8.978
    30   6 C        3.700    -0.072    22.043     6.714
    31   6 C        3.853    -0.008    20.679     6.468
    32   6 C        3.756    -0.117    22.799     6.808
    33   6 C        3.755    -0.120    22.854     6.817
    34   1 H        0.926     0.059     2.210     2.325
    35   1 H        0.927     0.084     1.937     2.176
    36   1 H        0.926     0.095     1.827     2.114
    37   1 H        0.927     0.084     1.942     2.179
    38   1 H        0.924     0.060     2.195     2.317
    39   1 H        0.925     0.085     1.925     2.170
    40   1 H        0.924     0.053     2.287     2.365
    41   1 H        0.926     0.049     2.338     2.391
    42   1 H        0.926     0.038     2.474     2.460
    43   1 H        0.925     0.067     2.116     2.275
    44   1 H        0.924     0.055     2.260     2.351
    45   1 H        0.925     0.075     2.035     2.231
    46   1 H        0.924     0.086     1.914     2.163
    47   1 H        0.922     0.003     3.004     2.711
    48   1 H        0.926     0.073     2.058     2.243
    49   1 H        0.924     0.070     2.090     2.261
    50   1 H        0.924     0.069     2.098     2.265
    51   1 H        0.924     0.057     2.232     2.337
    52   1 H        0.924     0.058     2.226     2.333
    53   1 H        0.926     0.047     2.357     2.401
    54   1 H        0.926     0.060     2.193     2.316
    55   1 H        0.924     0.056     2.249     2.345
    56   1 H        0.924     0.058     2.223     2.332
    57   1 H        0.925     0.084     1.936     2.176
    58   1 H        0.925     0.084     1.941     2.179
    59   1 H        0.924     0.050     2.318     2.381
    60   1 H        0.924     0.055     2.264     2.353
    61   1 H        0.926     0.049     2.331     2.387
    62   1 H        0.924     0.082     1.954     2.186
    63   1 H        0.924     0.082     1.963     2.191
    64   1 H        0.925     0.082     1.955     2.187
    65   1 H        0.924     0.044     2.403     2.424
    66   1 H        0.925     0.067     2.120     2.277
    67   1 H        0.925     0.037     2.483     2.464
    68   1 H        0.925     0.053     2.280     2.361
    69   1 H        0.925     0.064     2.154     2.295
    70   1 H        0.925     0.037     2.491     2.468
    71   1 H        0.925     0.056     2.241     2.341
    72   1 H        0.860     0.158     1.348     1.818

 Mol. C6AA /au·bohr⁶  :      47686.446666
 Mol. C8AA /au·bohr⁸  :    1089849.190449
 Mol. α(0) /au        :        336.104680


Wiberg/Mayer (AO) data.
largest (>0.10) Wiberg bond orders for each atom

 ---------------------------------------------------------------------------
     #   Z sym  total        # sym  WBO       # sym  WBO       # sym  WBO
 ---------------------------------------------------------------------------
     1   7 N    3.034 --     2 C    1.955    72 H    0.941
     2   6 C    3.933 --     1 N    1.955     3 C    0.995    47 H    0.906
     3   6 C    3.968 --     2 C    0.995     4 C    0.966    14 C    0.955
                            31 C    0.940
     4   6 C    3.936 --     5 C    1.479    13 C    1.326     3 C    0.966
     5   6 C    3.801 --     4 C    1.479     6 C    1.170    34 H    0.960
     6   6 C    3.888 --     7 O    1.567     5 C    1.170     9 C    1.056
     7   8 O    1.710 --     6 C    1.567
     8   6 C    2.970 --    37 H    0.991    35 H    0.991    36 H    0.989
     9   6 C    3.741 --    12 C    1.397    10 O    1.140     6 C    1.056
    10   8 O    2.249 --     9 C    1.140    11 C    0.974
    11   6 C    3.925 --    39 H    0.976    10 O    0.974    40 H    0.971
                            38 H    0.970
    12   6 C    3.944 --    13 C    1.406     9 C    1.397    41 H    0.960
    13   6 C    3.812 --    12 C    1.406     4 C    1.326    42 H    0.963
    14   6 C    3.971 --    15 C    0.978    44 H    0.972    43 H    0.966
                             3 C    0.955
    15   6 C    3.983 --    16 C    1.064    14 C    0.978    45 H    0.958
                            46 H    0.923
    16   6 C    3.619 --    17 N    1.428    15 C    1.064    48 H    0.956
    17   7 N    3.502 --    16 C    1.428    30 C    0.996    18 C    0.987
    18   6 C    3.954 --    17 N    0.987    50 H    0.968    19 C    0.966
                            49 H    0.963
    19   6 C    3.976 --    20 C    1.008    52 H    0.972    51 H    0.971
                            18 C    0.966
    20   6 C    3.940 --    21 C    1.405    29 C    1.382    19 C    1.008
    21   6 C    3.945 --    22 C    1.419    20 C    1.405    53 H    0.968
    22   6 C    3.956 --    21 C    1.419    23 C    1.380    54 H    0.963
    23   6 C    3.890 --    22 C    1.380    26 C    1.215    24 O    1.115
    24   8 O    2.256 --    23 C    1.115    25 C    0.975
    25   6 C    3.926 --    57 H    0.976    24 O    0.975    55 H    0.972
                            56 H    0.972
    26   6 C    3.894 --    29 C    1.392    23 C    1.215    27 O    1.109
    27   8 O    2.255 --    26 C    1.109    28 C    0.977
    28   6 C    3.930 --    27 O    0.977    58 H    0.976    59 H    0.973
                            60 H    0.973
    29   6 C    3.956 --    26 C    1.392    20 C    1.382    61 H    0.962
    30   6 C    3.955 --    17 N    0.996    64 H    0.977    62 H    0.965
                            63 H    0.962
    31   6 C    3.967 --    32 C    1.008    33 C    1.008    65 H    0.958
                             3 C    0.940
    32   6 C    3.974 --    31 C    1.008    68 H    0.980    67 H    0.980
                            66 H    0.973
    33   6 C    3.977 --    31 C    1.008    70 H    0.982    71 H    0.979
                            69 H    0.974
    34   1 H    0.992 --     5 C    0.960
    35   1 H    0.993 --     8 C    0.991
    36   1 H    0.990 --     8 C    0.989
    37   1 H    0.993 --     8 C    0.991
    38   1 H    0.988 --    11 C    0.970
    39   1 H    0.992 --    11 C    0.976
    40   1 H    0.989 --    11 C    0.971
    41   1 H    0.992 --    12 C    0.960
    42   1 H    0.998 --    13 C    0.963
    43   1 H    0.994 --    14 C    0.966
    44   1 H    0.996 --    14 C    0.972
    45   1 H    0.994 --    15 C    0.958
    46   1 H    0.970 --    15 C    0.923
    47   1 H    0.983 --     2 C    0.906
    48   1 H    0.994 --    16 C    0.956
    49   1 H    0.990 --    18 C    0.963
    50   1 H    0.994 --    18 C    0.968
    51   1 H    0.995 --    19 C    0.971
    52   1 H    0.995 --    19 C    0.972
    53   1 H    0.997 --    21 C    0.968
    54   1 H    0.995 --    22 C    0.963
    55   1 H    0.991 --    25 C    0.972
    56   1 H    0.990 --    25 C    0.972
    57   1 H    0.992 --    25 C    0.976
    58   1 H    0.992 --    28 C    0.976
    59   1 H    0.992 --    28 C    0.973
    60   1 H    0.992 --    28 C    0.973
    61   1 H    0.996 --    29 C    0.962
    62   1 H    0.985 --    30 C    0.965
    63   1 H    0.987 --    30 C    0.962
    64   1 H    0.993 --    30 C    0.977
    65   1 H    0.989 --    31 C    0.958
    66   1 H    0.990 --    32 C    0.973
    67   1 H    0.995 --    32 C    0.980
    68   1 H    0.993 --    32 C    0.980
    69   1 H    0.991 --    33 C    0.974
    70   1 H    0.996 --    33 C    0.982
    71   1 H    0.993 --    33 C    0.979
    72   1 H    0.969 --     1 N    0.941
 ---------------------------------------------------------------------------

Topologies differ in total number of bonds
Writing topology from bond orders to xtbtopo.mol

molecular dipole:
                 x           y           z       tot (Debye)
 q only:        1.621       0.424      -0.434
   full:        2.002       0.304      -0.332       5.216
molecular quadrupole (traceless):
                xx          xy          yy          xz          yz          zz
 q only:       52.639      -3.496     -17.312       4.991     -15.346     -35.327
  q+dip:       44.705       1.294     -14.483       3.983     -20.081     -30.222
   full:       45.128       0.773     -15.531       1.378     -19.839     -29.597

           -------------------------------------------------
          |                Geometry Summary                 |
           -------------------------------------------------

      molecular mass/u    :      455.6105846
   center of mass at/Å    :        0.0563628      -0.0083927       0.0181334
  moments of inertia/u·Å² :        0.2655645E+04   0.1120178E+05   0.1231277E+05
rotational constants/cm⁻¹ :        0.6347849E-02   0.1504907E-02   0.1369118E-02

 * 64 selected distances

     #   Z          #   Z                                           value/Å
     1   7 N        2   6 C                                       1.2483230
     4   6 C        5   6 C                                       1.3764750
     5   6 C        6   6 C                                       1.4314578
     6   6 C        7   8 O                                       1.2396249
     9   6 C       10   8 O                                       1.3373893
    10   8 O       11   6 C                                       1.4082924
     9   6 C       12   6 C                                       1.3836717
     4   6 C       13   6 C                                       1.4005503
    12   6 C       13   6 C                                       1.3889372
    14   6 C       15   6 C                                       1.5397597
    15   6 C       16   6 C                                       1.4774102
    16   6 C       17   7 N                                       1.3228073
    17   7 N       18   6 C                                       1.4444484
    18   6 C       19   6 C                                       1.5416157 (max)
    20   6 C       21   6 C                                       1.3861811
    21   6 C       22   6 C                                       1.3857854
    22   6 C       23   6 C                                       1.3880016
    23   6 C       24   8 O                                       1.3442712
    24   8 O       25   6 C                                       1.4094678
    23   6 C       26   6 C                                       1.4235542
    26   6 C       27   8 O                                       1.3463063
    27   8 O       28   6 C                                       1.4079054
    20   6 C       29   6 C                                       1.3926013
    26   6 C       29   6 C                                       1.3866711
    17   7 N       30   6 C                                       1.4445933
    31   6 C       32   6 C                                       1.5267051
    31   6 C       33   6 C                                       1.5260569
     5   6 C       34   1 H                                       1.0788645
     8   6 C       35   1 H                                       1.0694579
     8   6 C       36   1 H                                       1.0714426
     8   6 C       37   1 H                                       1.0692929 (min)
    11   6 C       38   1 H                                       1.0935730
    11   6 C       39   1 H                                       1.0878941
    11   6 C       40   1 H                                       1.0943077
    12   6 C       41   1 H                                       1.0797931
    13   6 C       42   1 H                                       1.0791945
    14   6 C       43   1 H                                       1.0894333
    14   6 C       44   1 H                                       1.0909169
    15   6 C       45   1 H                                       1.0880840
    15   6 C       46   1 H                                       1.0977838
    16   6 C       48   1 H                                       1.0808932
    18   6 C       49   1 H                                       1.0933058
    18   6 C       50   1 H                                       1.0919330
    19   6 C       51   1 H                                       1.0913396
    19   6 C       52   1 H                                       1.0903657
    21   6 C       53   1 H                                       1.0794081
    22   6 C       54   1 H                                       1.0775324
    25   6 C       55   1 H                                       1.0941961
    25   6 C       56   1 H                                       1.0939746
    25   6 C       57   1 H                                       1.0882240
    28   6 C       58   1 H                                       1.0882297
    28   6 C       59   1 H                                       1.0946501
    28   6 C       60   1 H                                       1.0942890
    29   6 C       61   1 H                                       1.0787704
    30   6 C       62   1 H                                       1.0913098
    30   6 C       63   1 H                                       1.0925149
    30   6 C       64   1 H                                       1.0864789
    31   6 C       65   1 H                                       1.0964018
    32   6 C       66   1 H                                       1.0857238
    32   6 C       67   1 H                                       1.0873945
    32   6 C       68   1 H                                       1.0868701
    33   6 C       69   1 H                                       1.0858297
    33   6 C       70   1 H                                       1.0866070
    33   6 C       71   1 H                                       1.0869398

 * 4 distinct bonds (by element types)

   Z      Z             #   av. dist./Å        max./Å        min./Å
   1 H    6 C          37     1.0868438     1.0977838     1.0692929
   6 C    6 C          16     1.4347146     1.5416157     1.3764750
   6 C    7 N           4     1.3650430     1.4445933     1.2483230
   6 C    8 O           7     1.3561796     1.4094678     1.2396249


optimized geometry written to: xtbopt.xyz


           -------------------------------------------------
          | TOTAL ENERGY              -99.294589120377 Eh   |
          | GRADIENT NORM               0.002884133085 Eh/α |
          | HOMO-LUMO GAP               0.416163783837 eV   |
           -------------------------------------------------

------------------------------------------------------------------------
 * finished run on 2024/04/06 at 11:12:46.624     
------------------------------------------------------------------------
 total:
 * wall-time:     0 d,  0 h,  0 min,  5.979 sec
 *  cpu-time:     0 d,  0 h,  0 min,  5.958 sec
 * ratio c/w:     0.996 speedup
 SCF:
 * wall-time:     0 d,  0 h,  0 min,  0.192 sec
 *  cpu-time:     0 d,  0 h,  0 min,  0.192 sec
 * ratio c/w:     0.997 speedup
 ANC optimizer:
 * wall-time:     0 d,  0 h,  0 min,  5.746 sec
 *  cpu-time:     0 d,  0 h,  0 min,  5.743 sec
 * ratio c/w:     0.999 speedup

