25
 energy: -51.057577647521 gnorm: 11.871236336409 xtb: 6.6.1 (8d0f1dd)
C            3.21786164340000        1.13591514650000        0.01837059260000
N            2.27034809790000        0.05199982890000        0.00038279530000
C            2.54167221030000       -1.23971668410000       -0.00834188300000
N            1.39367826450000       -1.95088267900000       -0.00850347120000
C            0.35269634020000       -1.06748964300000        0.00059917290000
C            0.90759959010000        0.20069750900000        0.00663590170000
C            0.07590235260000        1.39864294500000       -0.00284827040000
O            0.48715076820000        2.53168346660000       -0.01725767220000
N           -1.27221500230000        1.06666939660000        0.00165480230000
C           -2.23229981500000        2.16656245330000       -0.00245172030000
C           -1.84872931540000       -0.19179276200000        0.00496135950000
O           -3.03273030250000       -0.36103538130000        0.00858583760000
N           -0.96599111670000       -1.30060631840000        0.00174701630000
C           -1.52030655580000       -2.64076660390000       -0.00239033190000
H            3.71480285180000        1.18589984860000        0.98803183970000
H            3.97079415090000        0.99383197990000       -0.75543416370000
H            2.68321036910000        2.07051068580000       -0.15067179540000
H            3.52469367910000       -1.66989040330000       -0.01523639120000
H           -1.67672429040000        3.10039111610000        0.00486339690000
H           -2.85755792270000        2.10547813320000       -0.89185337000000
H           -2.87119733260000        2.09858159720000        0.87661144540000
H           -1.20589108080000       -3.18768007210000        0.88663215920000
H           -1.21982032550000       -3.17678505510000       -0.90288069810000
H           -2.60531402170000       -2.54255916880000        0.00649952960000
H            1.32879827740000       -2.95942079410000       -0.01653446370000
25
 energy: -66.756483598689 gnorm: 19.621809377533 xtb: 6.6.1 (8d0f1dd)
C            3.21786230160687        1.13588791447567        0.01836870516421
N            2.27015822468353        0.05186008944176        0.00039288869617
C            2.54117647765932       -1.23972282867368       -0.00832548498020
N            1.38814876591740       -1.94608364640108       -0.00819269834793
C            0.09728278606068       -0.81515245481096        0.07270584672938
C            0.90614525822872        0.20435983903473        0.00688412878547
C            0.07615592193647        1.39896141900884       -0.00286196627934
O            0.48716607471923        2.53182634729761       -0.01728252010793
N           -1.27204183315248        1.06670480107470        0.00128853516704
C           -2.23001354280509        2.16595009585195       -0.00477846261071
C           -1.84933250941671       -0.19182263613098        0.00494157686651
O           -3.03288550248438       -0.36104892866471        0.00854622615336
N           -0.97096300179043       -1.29840816577174        0.00210810479094
C           -1.52004728344389       -2.64085419472736       -0.00242109558245
H            3.71479657913966        1.18591989853458        0.98804212677898
H            3.97079078162176        0.99385270744546       -0.75542721172105
H            2.68320459042623        2.07051963920277       -0.15066568093093
H            3.52463648060773       -1.66990725719067       -0.01524446210166
H           -1.67681307817291        3.10046076218511        0.00505461908787
H           -2.85774541363732        2.10543388286410       -0.89177430208432
H           -2.60489542325351        1.83562753356565        0.80615337238295
H           -1.20586857424605       -3.18767942388572        0.88663844085101
H           -1.21977032930845       -3.17678875778937       -0.90288654702594
H           -2.60529060357048       -2.54261035653760        0.00648024484565
H            1.32857436677411       -2.95904773779906       -0.01657276662708
25
 energy: -90.336569985647 gnorm: 27.614583910240 xtb: 6.6.1 (8d0f1dd)
C            3.21783896769084        1.13588636115610        0.01837456723397
N            2.27016212577751        0.05153456653377        0.00039516750453
C            2.54000699469096       -1.23994497710175       -0.00830082657425
N            1.38402777511824       -1.94212611511737       -0.00784150998290
C           -0.15673326658469       -0.56077199127595        0.14519816009138
C            0.90506832173606        0.20840793418141        0.00713535198356
C            0.07656257553332        1.39961557896447       -0.00292624263599
O            0.48707181756791        2.53198867616290       -0.01732818756770
N           -1.27140251405861        1.06642870133833        0.00053830038636
C           -2.22728590587979        2.16603466795113       -0.00841325992418
C           -1.85041889426883       -0.19138792814921        0.00484208785331
O           -3.03317853042575       -0.36101862709810        0.00851556620551
N           -0.97848533237905       -1.29810015407795        0.00219998120934
C           -1.51980846374038       -2.64088446321103       -0.00240465572116
H            3.71479291447455        1.18592927659421        0.98805454255169
H            3.97078531922530        0.99384892260231       -0.75542532748655
H            2.68321933700949        2.07051532078664       -0.15066931241272
H            3.52459438427294       -1.66992763854022       -0.01524004697148
H           -1.67690978230366        3.10052617812745        0.00524599466056
H           -2.85792151540358        2.10542620251245       -0.89169725445985
H           -2.33911345248631        1.57191743861032        0.73723401207627
H           -1.20584457402015       -3.18764947210381        0.88664662282576
H           -1.21971744413783       -3.17675596243515       -0.90286974672193
H           -2.60529621309453       -2.54261018514153        0.00647219285028
H            1.32841686978601       -2.95864376966943       -0.01656455907384
25
 energy: -121.938294304078 gnorm: 35.621990487377 xtb: 6.6.1 (8d0f1dd)
C            3.21780451440981        1.13589411686889        0.01838604857337
N            2.27009044803599        0.05137428243517        0.00041189453935
C            2.53872876377813       -1.24069828854705       -0.00829169974875
N            1.38184457478324       -1.93942835524491       -0.00758352070906
C           -0.41112181215795       -0.30370634880331        0.21805968009115
C            0.90390342883204        0.21116383186402        0.00736261654002
C            0.07714579284321        1.40043750682421       -0.00304672227285
O            0.48694408307289        2.53223271993493       -0.01737428341124
N           -1.27043788066151        1.06606037621533       -0.00055270415958
C           -2.22580094735361        2.16652222332790       -0.01089377513842
C           -1.85175753068972       -0.19076782470357        0.00460202048954
O           -3.03362462942893       -0.36098649452125        0.00852517655161
N           -0.98552860063469       -1.30047551082111        0.00174705521649
C           -1.51964536994429       -2.64089113029108       -0.00236483427918
H            3.71479902633945        1.18592620207163        0.98806231783569
H            3.97077598748925        0.99383218732352       -0.75543577708785
H            2.68324846939427        2.07050514551490       -0.15067763933304
H            3.52459674467675       -1.66991815998368       -0.01525051412581
H           -1.67700365682404        3.10058184610306        0.00545984499606
H           -2.85808322295597        2.10543035846878       -0.89160705574931
H           -2.07409336438024        1.31040234468670        0.66794337454427
H           -1.20581227037794       -3.18761222039752        0.88665198196272
H           -1.21966461886415       -3.17670267002604       -0.90285891007837
H           -2.60532365797710       -2.54261472411438        0.00646617538253
H            1.32844724269512       -2.95832287258513       -0.01656913272935
25
 energy: -161.420220568234 gnorm: 43.315562682752 xtb: 6.6.1 (8d0f1dd)
C            3.21773054994638        1.13598798047843        0.01842223702891
N            2.26977242272617        0.05141106356011        0.00044538426409
C            2.53770322005400       -1.24159722873943       -0.00831006812521
N            1.38043437228377       -1.93730026150141       -0.00745725032121
C           -0.66876404020179       -0.04767784510109        0.29109617062571
C            0.90231588776414        0.21319050647562        0.00759010408380
C            0.07829511292834        1.40145368362169       -0.00323480036989
O            0.48674075921275        2.53267147247081       -0.01737832217713
N           -1.26941668098200        1.06588804596465       -0.00171569790080
C           -2.22523443805474        2.16657577989276       -0.01192129563944
C           -1.85364432244043       -0.19085946298473        0.00412548268673
O           -3.03418169558467       -0.36095160289019        0.00857195300282
N           -0.98913198661157       -1.30263231992508        0.00123612312480
C           -1.51947345668052       -2.64087291636890       -0.00237480977601
H            3.71477771595415        1.18599094334402        0.98808578445122
H            3.97073668493625        0.99391577189730       -0.75543228348204
H            2.68322988788972        2.07056093950626       -0.15065316110246
H            3.52466711860997       -1.66981481826959       -0.01528791743028
H           -1.67712609522218        3.10055716512606        0.00569956720159
H           -2.85825438403775        2.10534757075083       -0.89150330221907
H           -1.80882839955205        1.05143908027069        0.59767665109841
H           -1.20569600872558       -3.18762465290307        0.88660503255180
H           -1.21953767386322       -3.17667993660681       -0.90290106649164
H           -2.60530137320743       -2.54270553742921        0.00642158086893
H            1.32861833695828       -2.95803487903972       -0.01663447805361
25
 energy: -208.356288147537 gnorm: 50.445364265634 xtb: 6.6.1 (8d0f1dd)
C            3.21764555643272        1.13612081646620        0.01848895719641
N            2.26944737948056        0.05150397060057        0.00053716185382
C            2.53687957076690       -1.24226248245921       -0.00828305784868
N            1.37926142859688       -1.93543949500394       -0.00732874579727
C           -0.92795505265335        0.20655620757943        0.36524695136245
C            0.90084122852535        0.21517438323568        0.00776088641462
C            0.08006824821660        1.40234982134305       -0.00353232992846
O            0.48652795384858        2.53325707274263       -0.01737220169689
N           -1.26733502121795        1.06790694791996       -0.00562939815915
C           -2.22484479960489        2.16663772883929       -0.01296808318710
C           -1.85807733763406       -0.19259141727927        0.00307451705134
O           -3.03461417360559       -0.36085595323075        0.00852519411036
N           -0.99093693330218       -1.30323728998866        0.00079149363508
C           -1.51937262424069       -2.64088606917664       -0.00235014998594
H            3.71472451607898        1.18611887958173        0.98814702819227
H            3.97069392111616        0.99405222961919       -0.75538343268912
H            2.68317747602782        2.07065493452801       -0.15060976290080
H            3.52475489302308       -1.66967051418884       -0.01526941738355
H           -1.67725132179261        3.10049678974403        0.00583849303935
H           -2.85844430890809        2.10520552272287       -0.89145485435158
H           -1.54338616297262        0.79210282648879        0.52961143854157
H           -1.20554825535513       -3.18765770224254        0.88656386295065
H           -1.21935126878293       -3.17668173739166       -0.90293547955711
H           -2.60524828350746       -2.54287094188247        0.00636155768501
H            1.32877488556391       -2.95774598696746       -0.01665901064729
25
 energy: -245.914009404198 gnorm: 80.505651555859 xtb: 6.6.1 (8d0f1dd)
C            3.21757815636199        1.13627217776940        0.01857354913017
N            2.26916416666858        0.05168264339981        0.00063466858881
C            2.53617362975391       -1.24274118345458       -0.00825723886337
N            1.37826139972509       -1.93373575950139       -0.00718579893081
C           -1.18619272584204        0.45551622350814        0.44528477620896
C            0.90000587509126        0.21686165076150        0.00775944451071
C            0.08210366468816        1.40305291013958       -0.00406895684183
O            0.48636936971356        2.53383653375161       -0.01726627743752
N           -1.26581695938981        1.08314826815799       -0.01952233372477
C           -2.22425124001226        2.16633482247525       -0.01390155742156
C           -1.86550661847978       -0.19780909113917        0.00057919152933
O           -3.03524326405367       -0.36077748394973        0.00833289530244
N           -0.99220227550318       -1.30350078044483        0.00024783611587
C           -1.51933472018361       -2.64094594893692       -0.00237707848908
H            3.71466099762156        1.18627416994922        0.98822295042110
H            3.97065018934534        0.99422187615537       -0.75531835670894
H            2.68310791746220        2.07076748337034       -0.15055298985903
H            3.52484777361025       -1.66950817937671       -0.01524633644608
H           -1.67740881226753        3.10044915850548        0.00592092599046
H           -2.85864426443979        2.10505595231529       -0.89140606069398
H           -1.27707757003304        0.52871376331050        0.46758794977516
H           -1.20538711024993       -3.18769403490289        0.88651138731152
H           -1.21914591083738       -3.17670272723515       -0.90298719984719
H           -2.60518184187393       -2.54307334022961        0.00629205509553
H            1.32890168722407       -2.95746056279852       -0.01668582681592
25
 energy: -235.478397624540 gnorm: 49.138684162099 xtb: 6.6.1 (8d0f1dd)
C            3.21835224030568        1.13432962362730        0.01763253412199
N            2.26898326902095        0.05064650524980       -0.00003943861871
C            2.53476678107645       -1.24503840606146       -0.00915497060478
N            1.37833351162895       -1.93479635514389       -0.00772926116360
C           -1.03714431187802        0.34447804154808        0.43558713336145
C            0.89996256494192        0.21654952224846        0.00740595056332
C            0.08564580543354        1.40347656278797       -0.00468584026172
O            0.48801572365343        2.53427816332038       -0.01706599213324
N           -1.26672020538460        1.11706976956161       -0.04451074619459
C           -2.22305999557059        2.16804007516455       -0.01317583611010
C           -1.87430510528151       -0.20569496434356       -0.00287532718079
O           -3.03641361724518       -0.35855420455139        0.00912813280120
N           -0.99251502797684       -1.30384724163433       -0.00011525285076
C           -1.52111504076540       -2.63983593740011       -0.00202589432773
H            3.71581638854373        1.18392797479346        0.98710102462091
H            3.97107902535595        0.99181579456188       -0.75655532269788
H            2.68446198355542        2.06914812939738       -0.15127963063079
H            3.52388693883890       -1.67164085653146       -0.01650845834182
H           -1.67537633590289        3.10163108900813        0.00674545969180
H           -2.85762174532136        2.10701306991649       -0.89021007207770
H           -1.41657190753562        0.61739098093142        0.50971854676011
H           -1.20701578772372       -3.18686278378578        0.88674673242583
H           -1.22138195249589       -3.17577651587227       -0.90273343738913
H           -2.60679659588693       -2.54141060025275        0.00705436517147
H            1.32716491071366       -2.95809889493992       -0.01728278103472
25
 energy: -243.830037406752 gnorm: 42.459008553208 xtb: 6.6.1 (8d0f1dd)
C            3.21693516107035        1.13794637680869        0.01904703683335
N            2.26806331468732        0.05447518434872        0.00080539592113
C            2.53448032113092       -1.24483034893221       -0.00877803727817
N            1.38960485297009       -1.93868799163067       -0.00815732469480
C           -1.10922613918342        0.31899890846807        0.48916553979619
C            0.90060952554490        0.21448111102452        0.00698749859047
C            0.09179415237712        1.40409411030536       -0.00673433364043
O            0.48512877842659        2.53677416393339       -0.01553974623647
N           -1.27829294845462        1.20862987858024       -0.11251914762745
C           -2.22828169207206        2.16634618273805       -0.01187497285382
C           -1.89835107834633       -0.23624366015265       -0.01631352981845
O           -3.03959336975397       -0.36145947220979        0.00721652843211
N           -0.98537454875887       -1.31039273665817       -0.00335914557001
C           -1.51891795227182       -2.64142373323760       -0.00341417614182
H            3.71410988890104        1.18769719155727        0.98862096224796
H            3.97007996630723        0.99636023823641       -0.75506718104371
H            2.68216793788848        2.07208315482619       -0.14985403283859
H            3.52590285270815       -1.66766883537374       -0.01594941008432
H           -1.67894822102052        3.09969990767908        0.00698372245175
H           -2.85996259018948        2.10397738666797       -0.89040723165684
H           -1.32705576514608        0.58429040324284        0.54128716006534
H           -1.20364513087626       -3.18851524216198        0.88535733083299
H           -1.21752715227700       -3.17701782822725       -0.90407549330249
H           -2.60420430653397       -2.54471838832700        0.00548283757660
H            1.33093565697220       -2.95665741990575       -0.01773863206053
25
 energy: -246.513696022386 gnorm: 37.010829923847 xtb: 6.6.1 (8d0f1dd)
C            3.21945290723761        1.13159515380357        0.01737350125275
N            2.26724067464726        0.05037061480604        0.00050836221164
C            2.52982165157531       -1.25130263353521       -0.00777986078928
N            1.38052815443826       -1.93469578974718       -0.00581091173379
C           -1.23340198154557        0.57920789300786        0.55726270915852
C            0.89928991583835        0.21824335033828        0.00659619885276
C            0.09932014430028        1.40549632403052       -0.01005149437609
O            0.49104283305245        2.53752588185101       -0.01804549143753
N           -1.28062776552945        1.25188287354151       -0.14300009785002
C           -2.22082903892039        2.17115883143260       -0.01834686337102
C           -1.91431154084477       -0.25047669772057       -0.02565016248876
O           -3.04398153712733       -0.35487493271206        0.00687581867569
N           -0.99416414003143       -1.30625393334178       -0.00285545185101
C           -1.52403481420445       -2.63808602502227       -0.00039459054885
H            3.71686436245480        1.18140117134904        0.98683638820706
H            3.97221626888958        0.98760050905076       -0.75670948230186
H            2.68665343576801        2.06666361681717       -0.15251732117511
H            3.52268379168305       -1.67466694009100       -0.01464266593402
H           -1.67263468328772        3.10381047250952        0.00404643874399
H           -2.85622156243183        2.10918336171093       -0.89216896578306
H           -1.16629507582424        0.29211013990897        0.51760496091656
H           -1.20982938031272       -3.18473614105104        0.88890804741802
H           -1.22386324967942       -3.17520108306905       -0.90054757474103
H           -2.60936301112180       -2.53931323893228        0.00846443043655
H            1.32487515507614       -2.95840423733533       -0.01478430359207
25
 energy: -215.782272937035 gnorm: 950.150343253249 xtb: 6.6.1 (8d0f1dd)
C            3.21721847226084        1.13721718616604        0.01906561518233
N            2.26614181363433        0.05509201746946        0.00117614634206
C            2.53078803441344       -1.24853197262702       -0.00811913206561
N            1.38818053307223       -1.93439555937600       -0.00707384241409
C           -1.21730728293396        0.44713707042434        0.55200251969873
C            0.89939684764480        0.21847406485813        0.00658313253335
C            0.09962627061400        1.40570743238610       -0.01041765368107
O            0.48709090647011        2.53959517675641       -0.01547539302308
N           -1.28042874024934        1.25342089008717       -0.15031773798138
C           -2.22713901455412        2.16930446076779       -0.01764807253376
C           -1.92114284549203       -0.26545989482369       -0.03270497174483
O           -3.04839793588701       -0.36079935181553        0.00493653573074
N           -0.98976662350128       -1.30901850332010       -0.00528704441668
C           -1.51970864862649       -2.64095072777600       -0.00261629449740
H            3.71436016602477        1.18711014271058        0.98867273410027
H            3.97043938228328        0.99509640537258       -0.75500118759229
H            2.68285315555553        2.07141104740913       -0.15026016562004
H            3.52566861240202       -1.66843934983359       -0.01508967635208
H           -1.67856448162928        3.10101005830965        0.00612789829222
H           -2.86050378650807        2.10468258911412       -0.89103641391177
H           -1.18127267882194        0.42577526143915        0.54150154471192
H           -1.20436401201287       -3.18778024251486        0.88618563409713
H           -1.21800878634317       -3.17688182651843       -0.90325279314604
H           -2.60507286089812       -2.54442129060691        0.00593330119001
H            1.33034501718234       -2.95611654245852       -0.01671306499864
