25
 energy: 0.000000000000 xtb: 6.6.1 (8d0f1dd)
C            3.23720132972391        1.16630909158653        0.08434468864950
N            2.29877796055224        0.07527476373246        0.03981602671198
C            2.58028186251803       -1.21425391179017        0.03006175752192
N            1.43813944744728       -1.93419254010258        0.00098261751768
C            0.39035684826767       -1.05887462812143       -0.00790371763344
C            0.93510047688824        0.21347817468824        0.01709077332874
C            0.09450143016486        1.40504290868848       -0.00410946993748
O            0.49712746915594        2.54126690785742       -0.00342325656480
N           -1.25076628431515        1.06271869620815       -0.03085477937476
C           -2.21907191394203        2.15522079838987       -0.05001256521996
C           -1.81739470187490       -0.20012724136556       -0.04692818139228
O           -2.99983858926755       -0.37846413507442       -0.07008877579474
N           -0.92618577614240       -1.30210203518959       -0.03682761236648
C           -1.46982251276835       -2.64643077634382       -0.06029819901142
H            3.71247229913541        1.21471443890471        1.06488839270555
H            4.00791460421487        1.03430799217987       -0.67357688121503
H            2.69909982127087        2.09770098766290       -0.09130154035862
H            3.56654087521359       -1.63682977417947        0.04233139674524
H           -1.67107945562430        3.09322822573871       -0.02552706696334
H           -2.82428927394145        2.09428605349656       -0.95318074103337
H           -2.87644002486466        2.07745706351925        0.81450059976605
H           -1.17061985538665       -3.19584861009707        0.83242224714061
H           -1.14560246782873       -3.17511580834413       -0.95688266944647
H           -2.55549768731684       -2.55659960601237       -0.07459039105944
H            1.38130842369251       -2.94313824728853       -0.01389874052104
25
 energy: -5.798178258598 xtb: 6.6.1 (8d0f1dd)
C            3.23675647357551        1.17480219425784        0.08658077890295
N            2.30183908452210        0.09938805525080        0.03591895677349
C            2.60585757733577       -1.24359951451476        0.03304469347238
N            1.43272298561922       -1.96155231552263        0.00199395642712
C            0.40459795392725       -1.07937328275062       -0.00842955535112
C            0.91586219735299        0.21431140164538        0.01448454565455
C            0.11319724783175        1.38053742976362       -0.00630046651072
O            0.49254434738077        2.55692582317182       -0.00521950733449
N           -1.27168014432049        1.05281693311013       -0.03235685303536
C           -2.22251492703646        2.15415541402125       -0.05006550066756
C           -1.81692506648746       -0.19379699632890       -0.04809418104951
O           -3.01589438623771       -0.38184291759028       -0.07063960999173
N           -0.93885644238877       -1.30073037377170       -0.03797723408730
C           -1.47686306819502       -2.63871193135374       -0.06075785544429
H            3.72615533518821        1.21632147522245        1.06372933132310
H            4.00107516332643        1.04512652898612       -0.68157050489660
H            2.69553935634715        2.10572645271508       -0.07943561396866
H            3.58554426759491       -1.64874860652865        0.05029948690003
H           -1.66530647825037        3.08958671546465       -0.02723082409974
H           -2.82949145716603        2.09952253264813       -0.95334983133307
H           -2.87900737689800        2.08333963739839        0.81667703432049
H           -1.16969874822094       -3.18813997481569        0.83171490544890
H           -1.14685293663870       -3.16803678951475       -0.95749644569235
H           -2.56159928010389       -2.54902104834313       -0.07399965874168
H            1.44041835692456       -2.97892613941586       -0.01101833397318
25
 energy: -4.538357781915 xtb: 6.6.1 (8d0f1dd)
C            3.23411420207752        1.17634329096272        0.08696015910926
N            2.30063518002645        0.09728028875378        0.03676071142375
C            2.61113558668341       -1.24755851638249        0.03416239452750
N            1.44516809692737       -1.98272742943378        0.00320106128680
C            0.40999181117375       -1.09635772555138       -0.00838108930830
C            0.91291981190655        0.20367260879355        0.01421775309328
C            0.11122603311929        1.37436246562383       -0.00629246804459
O            0.49135606474466        2.55218875104803       -0.00424421931122
N           -1.27603988454125        1.05459357003845       -0.03319112439110
C           -2.22623861273724        2.15803847751364       -0.05130591694855
C           -1.81923157531235       -0.19176874554747       -0.04907390686126
O           -3.01854830722989       -0.38035168436342       -0.07199987667010
N           -0.93948189437682       -1.29992831389369       -0.03832986929315
C           -1.48181333888992       -2.63501412812460       -0.06063021624897
H            3.73642055634629        1.21061714433064        1.05815765990966
H            3.99047137615082        1.05425754163718       -0.69049317382070
H            2.69149078523513        2.10983198393058       -0.06498513750030
H            3.59483933097297       -1.64312370463241        0.05951905117119
H           -1.66822328909073        3.09345440064989       -0.02907331324137
H           -2.83385369440727        2.10461670747332       -0.95433099062765
H           -2.88370415069427        2.08906772997039        0.81512524254536
H           -1.17129267375140       -3.18247721394269        0.83138719251958
H           -1.15063584267988       -3.16260486696642       -0.95759303148714
H           -2.56591921648602       -2.54321644248743       -0.07270584238928
H            1.51039229836432       -3.01059196698335       -0.00830857265501
25
 energy: -2.529593553659 xtb: 6.6.1 (8d0f1dd)
C            3.23164372523589        1.17772969788287        0.08675229747696
N            2.29863654090553        0.09597512707240        0.03752937655402
C            2.61635370382321       -1.25072961517433        0.04059900746682
N            1.45881160737824       -2.00362823465430        0.00510870544015
C            0.41555769877932       -1.11378520155248       -0.00858798506635
C            0.90965140583476        0.19211965798813        0.01388342187027
C            0.10752052386556        1.36555750129827       -0.00556487357678
O            0.48673747006760        2.54409946673325       -0.00129632118000
N           -1.28130481672717        1.05550059802476       -0.03381932444152
C           -2.22979133476812        2.16184482646963       -0.05231712334074
C           -1.82156540497234       -0.19043605337950       -0.05013105419503
O           -3.02114308628948       -0.38006245850853       -0.07356946385362
N           -0.93955433082160       -1.29920959010483       -0.03905199838220
C           -1.48741989555711       -2.63116951818211       -0.06098757444238
H            3.74643900404217        1.20412897583689        1.05179805573564
H            3.98054825464607        1.06203750104557       -0.69929680226913
H            2.68899680366962        2.11397616608886       -0.05164460214480
H            3.60443026554823       -1.63540463060857        0.06912342448973
H           -1.67040554577930        3.09693148933003       -0.03010456680328
H           -2.83763502598428        2.11006205167133       -0.95537829097085
H           -2.88857188702975        2.09471654296939        0.81350821219869
H           -1.17414206596603       -3.17742515365989        0.83026635233277
H           -1.15683429287852       -3.15749489798179       -0.95858301748437
H           -2.57080217227932       -2.53602365331701       -0.07110427592327
H            1.58387836210433       -3.03905436973243       -0.00506290258023
25
 energy: 0.228756332125 xtb: 6.6.1 (8d0f1dd)
C            3.22694654381240        1.17899492904013        0.08647030212690
N            2.29403459512994        0.09519182816570        0.03937030463662
C            2.61626694756991       -1.25021198259796        0.05194798725875
N            1.47148744168700       -2.02374962551782        0.00834201761825
C            0.41983905532859       -1.13103583553589       -0.00878644280262
C            0.90490718082455        0.18025708462887        0.01359326641117
C            0.10380161453547        1.35585871601320       -0.00559475998616
O            0.48637700673866        2.53363495042190       -0.00007967005353
N           -1.28673364615051        1.05685928866705       -0.03465083825308
C           -2.23146864432507        2.16757116662937       -0.05278433526323
C           -1.82434740784584       -0.18870923814412       -0.05110933325871
O           -3.02434911042419       -0.37855875113529       -0.07483418666664
N           -0.93992299400770       -1.29855531490185       -0.04020078346399
C           -1.49263596805386       -2.62814044019635       -0.06217507345492
H            3.75348438518635        1.19747977552859        1.04539635737955
H            3.96832088457655        1.06926326929922       -0.70817367292433
H            2.68334792119329        2.11702597264548       -0.03869086093074
H            3.60811548106990       -1.62531081799572        0.08143115669879
H           -1.66818653124729        3.10071343349870       -0.03126226311140
H           -2.84056522200120        2.11917825676558       -0.95527797165429
H           -2.89078647057913        2.10440267274588        0.81316884351639
H           -1.17672850034107       -3.17376514291772        0.82795098520408
H           -1.16221035763052       -3.15307183946115       -0.96035046735475
H           -2.57546744491461       -2.53170773514253       -0.07044591907752
H            1.65785033255528       -3.06508279067884        0.00029076821866
25
 energy: 3.604434426144 xtb: 6.6.1 (8d0f1dd)
C            3.22294326285344        1.17978985710414        0.08816356160137
N            2.29247279461762        0.09112834654175        0.04357007067849
C            2.61791313169192       -1.25200557093160        0.06706880400566
N            1.48532627947629       -2.04516459878651        0.00844957733282
C            0.42522501350574       -1.14859170094660       -0.00985705934591
C            0.90223851476433        0.16770551496154        0.01425714061521
C            0.10154361633902        1.34780419484965       -0.00353615202440
O            0.48832985097130        2.52402398770053        0.00369876507357
N           -1.29075237423701        1.05867943529171       -0.03517986055631
C           -2.23368116325399        2.17230734435766       -0.05521451087184
C           -1.82552078684974       -0.18681239671068       -0.05199119195369
O           -3.02575516083906       -0.37698295524505       -0.07696650606177
N           -0.93939944502953       -1.29850413801155       -0.04345750515647
C           -1.49834644111301       -2.62441626456245       -0.06150061325622
H            3.76147139214408        1.19073807287478        1.04011163382814
H            3.95737765938368        1.07911006409436       -0.71455909852095
H            2.67973413546189        2.12031860162341       -0.02226288481168
H            3.61030443848247       -1.62303367452868        0.07435194041231
H           -1.66978371914371        3.10539477696731       -0.03471620718185
H           -2.84280313835638        2.12480009184820       -0.95789558794798
H           -2.89483267325599        2.11210795113273        0.80989536429489
H           -1.18005752428950       -3.16824664071316        0.82840487556165
H           -1.16928755509840       -3.14884283412384       -0.96003908252900
H           -2.58047331313620       -2.52408656002147       -0.06696912657329
H            1.72656933226720       -3.09203144145787        0.00047034960663
25
 energy: 7.697350173560 xtb: 6.6.1 (8d0f1dd)
C            3.21837309838449        1.17797764192115        0.08783311494610
N            2.29131231893410        0.08585256038184        0.05069157106989
C            2.61800290002329       -1.25686422290110        0.09004917770250
N            1.49449622963327       -2.06873978904645        0.01177194622740
C            0.42879779705171       -1.16131160393768       -0.01167983248707
C            0.90152119278804        0.15863838323502        0.01348433549260
C            0.10066285251953        1.34574603345404       -0.00097379906866
O            0.49261039520251        2.52035526764881        0.00555268944149
N           -1.29369480391809        1.06310049369990       -0.03662570741308
C           -2.23573150142388        2.17888479318714       -0.05497517608118
C           -1.82618748235614       -0.18331646746560       -0.05560676269833
O           -3.02596402200053       -0.37727717051206       -0.08417188073234
N           -0.93956331109914       -1.29653758226409       -0.04851116873000
C           -1.50292810955521       -2.62073227872285       -0.06306704968313
H            3.76684463596841        1.18343179727445        1.03395636557917
H            3.94419274770043        1.08477687469043       -0.72458457632403
H            2.66747688793687        2.11594925470313       -0.01056069887946
H            3.61328831765210       -1.61827132836940        0.06029701010584
H           -1.67087779262154        3.11142681340950       -0.03479112684539
H           -2.84721639121639        2.13466682200692       -0.95621456435740
H           -2.89684500663534        2.12103662377860        0.81051659216651
H           -1.18403205781579       -3.16364283903950        0.82669385527547
H           -1.17279812495654       -3.14508144876358       -0.96084469559722
H           -2.58482819154429       -2.52119064740524       -0.06799268412689
H            1.75897619830710       -3.14257852547800       -0.00794425658534
25
 energy: 23.826648728029 xtb: 6.6.1 (8d0f1dd)
C            3.21724650279806        1.18332957281708        0.08778849917246
N            2.27646051253406        0.09213771735764        0.05798301302609
C            2.55461090934520       -1.22375916486914        0.08134657010720
N            1.45823273930051       -1.97173470290561        0.02638937619155
C            0.40977620582474       -1.10109748040354       -0.01627984701475
C            0.90228954873423        0.19982183100566        0.01412950038221
C            0.08033946552032        1.38322250889533        0.00049418658846
O            0.47893164545450        2.53602311682873        0.00050202761128
N           -1.28513551577026        1.08187419765446       -0.03746523573447
C           -2.23943864683218        2.18770599969654       -0.05678940879623
C           -1.82673641096439       -0.18889097278331       -0.05751365690187
O           -3.02593755397578       -0.35899580394683       -0.08251840230253
N           -0.94713985584028       -1.27545701039276       -0.05342374187419
C           -1.50592788613917       -2.61024332901402       -0.06430752081645
H            3.77345350603059        1.17633420680325        1.02611470485075
H            3.93263019466089        1.09031468815645       -0.73123464082532
H            2.66906274173457        2.12296970977394        0.00184452394539
H            3.56171655610807       -1.60622663705740        0.05853635544344
H           -1.67807700276354        3.12132475240028       -0.03808570377717
H           -2.85006120056786        2.13768350072655       -0.95756924468726
H           -2.89936202308749        2.12534621447823        0.80889225548740
H           -1.18113612822849       -3.15231561716769        0.82118109945120
H           -1.17439853968365       -3.13471256032224       -0.95925902901534
H           -2.58854682107315       -2.51575318465654       -0.06547866888213
H            1.96658451777425       -3.56887002203028       -0.02856178883513
25
 energy: 21.769500966161 xtb: 6.6.1 (8d0f1dd)
C            3.21386736730073        1.18465351067333        0.08782191550488
N            2.27143844819882        0.09555397504827        0.06072440413068
C            2.54783613765732       -1.22026861594363        0.08628448467410
N            1.45724552739007       -1.97358715450193        0.03746548640942
C            0.40894092674121       -1.09887341248268       -0.02314230922885
C            0.89791270612731        0.20396404082893        0.01192927810018
C            0.07589790805781        1.38932361121293       -0.00178865155206
O            0.47386594561546        2.54105874792135       -0.00687772794717
N           -1.28691392656536        1.08695075219541       -0.03921564653658
C           -2.24150286535772        2.19313772063738       -0.05795513084945
C           -1.82855084778658       -0.18598497154420       -0.05724633680850
O           -3.02775350437574       -0.35532684121405       -0.07623236451796
N           -0.94911053430200       -1.27126302493415       -0.05641422335031
C           -1.51001391225501       -2.60596549706096       -0.06488800791975
H            3.78094285309399        1.17076465183949        1.01921187452295
H            3.92204513486151        1.09942860319341       -0.73870513812476
H            2.66366978431111        2.12327215092070        0.01567306639370
H            3.55454502523589       -1.60221280155558        0.05372206750064
H           -1.67907176809558        3.12555085010610       -0.03935404820293
H           -2.85274252496609        2.14449732479583       -0.95826408281253
H           -2.90114480799036        2.13206901332040        0.80823128202246
H           -1.17811845251515       -3.15020607451673        0.81713250654556
H           -1.18300851183465       -3.12997549444746       -0.96166726464230
H           -2.59254417110370       -2.50995190066050       -0.06174528712965
H            2.00863511978711       -3.64366849744236       -0.03623084269212
25
 energy: 20.537961173413 xtb: 6.6.1 (8d0f1dd)
C            3.21022664152975        1.18641213322742        0.08693861162053
N            2.26639789356289        0.10009113506665        0.06205505176720
C            2.54070002577988       -1.21586844781314        0.08972002485441
N            1.45447191461084       -1.97290519328493        0.04894069108348
C            0.40722676558659       -1.09473034285693       -0.02791795956197
C            0.89321623613002        0.20960433277098        0.00994562131739
C            0.07178413171940        1.39540066588354       -0.00343412343750
O            0.46940449157243        2.54694515637553       -0.01228470856722
N           -1.29135411613335        1.09295503840557       -0.03718184927776
C           -2.24567945790507        2.19896027972024       -0.05777159815508
C           -1.83085241450817       -0.18079874443531       -0.05456433179937
O           -3.03015077514373       -0.35115679605588       -0.06874330711795
N           -0.95153362685938       -1.26584618061710       -0.05698459354289
C           -1.51407833372013       -2.60029687959205       -0.06456127265691
H            3.77627450572778        1.17564044509622        1.01959288085305
H            3.91357975766308        1.10605558794087       -0.74431616168167
H            2.66226408090621        2.12563865589542        0.01458597285396
H            3.54606388590697       -1.59877485276206        0.05434860973620
H           -1.68380290825169        3.13152854086367       -0.03732795289964
H           -2.85675294519556        2.15336686328552       -0.95862820075388
H           -2.90718219222234        2.14125819087896        0.80684238996210
H           -1.18117355194812       -3.14312254058734        0.81804244285934
H           -1.18821377534459       -3.12504751635556       -0.96160509487624
H           -2.59657387762735       -2.50379423160615       -0.06035751701238
H            2.04692034014253       -3.71881341230238       -0.04346317850145
25
 energy: 19.726720790165 xtb: 6.6.1 (8d0f1dd)
C            3.20846105442442        1.19143237733518        0.08551224602058
N            2.26176104643721        0.10807477568605        0.06359852581107
C            2.53220434906250       -1.20864002630524        0.09108136493846
N            1.44960281311385       -1.96735595081801        0.05691719285464
C            0.40403601725919       -1.08593032450191       -0.02634907605854
C            0.88893755638108        0.21894156755363        0.00916163636469
C            0.06790035144529        1.40411688043682       -0.00487483337074
O            0.46430071049843        2.55592596010451       -0.01337169901687
N           -1.29532143289541        1.09958774045843       -0.03558481533196
C           -2.24959494666344        2.20434785847015       -0.05730937905250
C           -1.83309903604477       -0.17454548072628       -0.05220596987429
O           -3.03244144848880       -0.34541079711470       -0.06479414308124
N           -0.95449638746631       -1.25908659315594       -0.05486133536532
C           -1.51772209334271       -2.59449458593042       -0.06380921311874
H            3.76953342451272        1.18431400387678        1.02210086312376
H            3.90709138683974        1.11161153166708       -0.74920405122619
H            2.66429129592435        2.13182564027087        0.00393128154715
H            3.53466336167442       -1.59490863613295        0.05238663326630
H           -1.68623966650924        3.13591273140006       -0.03611786186971
H           -2.85947548200107        2.15836375786805       -0.95913998392480
H           -2.91051727025749        2.14672000697093        0.80692678875349
H           -1.18512413323293       -3.13655962840280        0.81895512890446
H           -1.19452651473841       -3.12104750148811       -0.96112037273855
H           -2.60054109451566       -2.49837704931217       -0.05809246306843
H            2.08267660561097       -3.80134249236035       -0.04770532764430
25
 energy: 19.359212908517 xtb: 6.6.1 (8d0f1dd)
C            3.20695350974052        1.19612170080461        0.08309758530999
N            2.25754700816813        0.11575986969597        0.06467929355064
C            2.52457003848775       -1.20183692179430        0.09048568093928
N            1.44378504839923       -1.95911204124671        0.05646995569039
C            0.40048896103767       -1.07491237981285       -0.02599215023208
C            0.88531593787097        0.22919644963216        0.00756414436207
C            0.06379022628682        1.41287999720671       -0.00673558216282
O            0.45772048612000        2.56522026120680       -0.01490413917712
N           -1.29925278534811        1.10635298721103       -0.03413698205372
C           -2.25349989589488        2.21065526499487       -0.05698803422387
C           -1.83503875562125       -0.16844318043681       -0.04974966263453
O           -3.03439380829000       -0.33887876941007       -0.06027023856126
N           -0.95696313170807       -1.25263124592578       -0.05251504855200
C           -1.52042907949934       -2.58845056943741       -0.06487090304832
H            3.76242454032894        1.19211633058686        1.02440984075340
H            3.90502397928636        1.11138339653705       -0.75142684922275
H            2.66784039054112        2.13910700913263       -0.00689566928114
H            3.52457410311287       -1.59244761268394        0.05385039351673
H           -1.68890347255061        3.14139559101281       -0.03497822783990
H           -2.86293860779611        2.16563948216935       -0.95944435071224
H           -2.91403609333815        2.15483751956328        0.80679586894494
H           -1.18866630328336       -3.13014964990344        0.81837471598485
H           -1.20024774210636       -3.11629480831236       -0.96284761341638
H           -2.60382047843556       -2.49262535855858       -0.05665271750018
H            2.12596419957488       -3.88905686510261       -0.05114012067867
25
 energy: 19.226368167041 xtb: 6.6.1 (8d0f1dd)
C            3.20721734613186        1.19955089364048        0.08204024383081
N            2.25354287299123        0.12331264171003        0.06549415593172
C            2.51638792694650       -1.19539195442970        0.08602718267259
N            1.43576923430811       -1.94921473333537        0.05702468504255
C            0.39612708743697       -1.06346973066765       -0.02249902236662
C            0.88204829531563        0.23989160319079        0.00618532749021
C            0.06059297438161        1.42190959927259       -0.00872277342234
O            0.45281631969553        2.57463282992801       -0.01513471392226
N           -1.30200113753306        1.11323724709372       -0.03351742518271
C           -2.25721325235486        2.21596210552763       -0.05702530193119
C           -1.83665285194229       -0.16194883023464       -0.04807590674259
O           -3.03604475878410       -0.33226270343372       -0.06086440496852
N           -0.95971474730809       -1.24590745697371       -0.04629544409715
C           -1.52239510831054       -2.58202240914860       -0.06436826082688
H            3.75492603275906        1.19987425201612        1.02897439163308
H            3.91294695711461        1.10191967203921       -0.74533072056374
H            2.67417876093710        2.14589366244275       -0.01839368287580
H            3.51378064989260       -1.59132770691004        0.05939193928914
H           -1.69263134068418        3.14672867515667       -0.03462400161741
H           -2.86569921279317        2.16824984000911       -0.95989589496671
H           -2.91663770853437        2.15758823662604        0.80673906739261
H           -1.19013319733274       -3.12268657178669        0.81912510752878
H           -1.19925876352338       -3.11079165015939       -0.96154229958414
H           -2.60636517325040       -2.48815311962351       -0.05333684621639
H            2.17590368050954       -3.98165913418381       -0.05829276022024
25
 energy: 19.317190949944 xtb: 6.6.1 (8d0f1dd)
C            3.20812674042681        1.20419116289211        0.08097049979970
N            2.24965304376505        0.13186973482055        0.06604621270743
C            2.50848270981520       -1.18818626749957        0.07884972498263
N            1.42742190146226       -1.93843657177286        0.05840820379521
C            0.39185790252928       -1.05137853626589       -0.01478376258712
C            0.87918002113943        0.25104040676813        0.00584167301209
C            0.05721947181267        1.43124855633013       -0.00929406329125
O            0.44903286417502        2.58391436565905       -0.00867492005619
N           -1.30495229949524        1.12132220092138       -0.03271302157308
C           -2.26162779645398        2.22265907240701       -0.05716173521611
C           -1.83803084849926       -0.15530740999396       -0.04686505534401
O           -3.03730066429952       -0.32641646220627       -0.06610727925073
N           -0.96210141862888       -1.23889741715958       -0.03812770558651
C           -1.52224079347498       -2.57571669137980       -0.06335288289032
H            3.74802686365137        1.20747776076614        1.03298850285471
H            3.92046898278390        1.09384107957914       -0.74121572905801
H            2.68368520261466        2.15525314405104       -0.02751408980399
H            3.50337897657507       -1.58956243651056        0.06923141826360
H           -1.69634535012396        3.15296333307958       -0.03485696278279
H           -2.86882736081556        2.17515259707810       -0.96092057277796
H           -2.92324853489233        2.16500335212247        0.80559428496992
H           -1.18946844956484       -3.11562672989223        0.82004025018859
H           -1.19705569741751       -3.10356826750490       -0.95984575746526
H           -2.60613940107073       -2.48822850303058       -0.05411091902866
H            2.22138832199820       -4.08621229380228       -0.06484230850747
25
 energy: 19.454335368569 xtb: 6.6.1 (8d0f1dd)
C            3.21115494286454        1.20516569943478        0.08128048507262
N            2.24650792258943        0.13864059264269        0.06749164635919
C            2.50055029203351       -1.18267740981512        0.07029820687151
N            1.41881328610878       -1.92878531540230        0.05296178051142
C            0.38769008416530       -1.03954445210449       -0.00624139925514
C            0.87783728934485        0.26172713495616        0.00380576311616
C            0.05492449127353        1.44019285964061       -0.01343991463559
O            0.44676410129919        2.59263892501413       -0.00283709531711
N           -1.30722722259044        1.12823955010314       -0.03473194354475
C           -2.26576236914632        2.22811433644528       -0.05607138884108
C           -1.83925800884560       -0.15087167643011       -0.04883979522814
O           -3.03854767321726       -0.32096172157329       -0.07378465446823
N           -0.96432514273296       -1.23252663883312       -0.03022279647985
C           -1.52273759119025       -2.56961090624702       -0.06204221461557
H            3.75153727358125        1.20498194006424        1.03224402926998
H            3.92752518418015        1.08389364536560       -0.73731356001810
H            2.69237299058990        2.15923043766371       -0.03012422388586
H            3.49270918222179       -1.58873507710558        0.08003841487203
H           -1.70026330131475        3.15825319695072       -0.03511491200287
H           -2.87473418753407        2.18003806898560       -0.95862668035300
H           -2.92574429247140        2.16919176379849        0.80839684928810
H           -1.18723566709781       -3.11472330163639        0.81828349956238
H           -1.19408444730721       -3.09452829293714       -0.95872228658043
H           -2.60765975772882       -2.48302081713987       -0.05710990727615
H            2.26804559220925       -4.19053606286605       -0.06586994522825
25