25
 energy: -40.318177967083 gnorm: 11.295354114938 xtb: 6.6.1 (8d0f1dd)
C            3.31127855746887        1.10425152225036        0.06348638592958
N            2.31215801584778        0.07188759334454        0.01912898282075
C            2.53300199737384       -1.24885497302021       -0.01895389595007
N            1.34566685353429       -1.91213758402630       -0.04482333513427
C            0.34550137416285       -0.98473199894821       -0.02347381215095
C            0.94431183367901        0.27703185973898        0.01709475127057
C            0.21165235686061        1.48761157630608        0.04799269362163
O            0.61883765903120        2.62785467828519        0.07948665730424
N           -1.24428845615230        1.23550917675471        0.03602508728678
C           -2.01140171697526        2.33103275823356        0.07202453751944
C           -1.76925526702958       -0.01796674205362       -0.01166291928845
O           -3.10886497927820       -0.18637499562616       -0.04506656022023
N           -0.99259773053886       -1.15572641778819       -0.03724125171376
C           -1.57846398462337       -2.48016288102868       -0.06982949696932
H            3.91602332223055        1.00906712760986        0.96602666106347
H            3.96540600870757        1.03736425160887       -0.80622612857357
H            2.81102654162405        2.07128846811245        0.06622889423243
H            3.49438324607628       -1.71729811397321       -0.02759974948703
H           -1.50724481509767        3.27512409515459        0.10383706704196
H           -3.40296646069389        0.08056627794600       -0.13091908817553
H           -3.07944492118631        2.26985684082219        0.08799928731406
H           -1.21884347056151       -3.06686294502506        0.77592789738706
H           -1.32151180847753       -2.98263714030829       -1.00333902929283
H           -2.65857597260344       -2.39335724302196       -0.00153687931791
H            1.24464333072083       -2.91409664974728       -0.08341513861784
25
 energy: -42.136296824921 gnorm: 0.303566657827 xtb: 6.6.1 (8d0f1dd)
C            3.31127767539041        1.10425006084864        0.06348422866733
N            2.31215819412686        0.07188796127354        0.01913261484570
C            2.53300141139290       -1.24885243168132       -0.01895191569984
N            1.34567379221535       -1.91213896983469       -0.04482955783962
C            0.34563470622231       -0.98474509068463       -0.02350909633799
C            0.94431333891506        0.27704637495813        0.01709300185939
C            0.21161038450879        1.48766318478211        0.04796458708468
O            0.61884173689266        2.62786316642375        0.07948825175512
N           -1.24477319924699        1.23585336139486        0.03592503600829
C           -2.01150715289125        2.33100053022043        0.07206011309047
C           -1.75780536919032       -0.02185614788076       -0.01047972892451
O           -2.88270197770374       -0.38813022535607        0.02043141151349
N           -0.99091274860395       -1.15572708032061       -0.03724511418806
C           -1.57843383634818       -2.48014306602230       -0.06980072647736
H            3.91602327513831        1.00906901574554        0.96602660783928
H            3.96540516964407        1.03736488565915       -0.80622737297488
H            2.81102613392784        2.07128956139573        0.06622885089103
H            3.49438517059434       -1.71729866790305       -0.02759918785198
H           -1.50724896082871        3.27512487808736        0.10383672194584
H           -3.64179932948076        0.28577234174790       -0.19750388723677
H           -3.07944607713837        2.26985220176035        0.08800254121364
H           -1.21884327824179       -3.06686687279611        0.77592885611793
H           -1.32151251172698       -2.98264110839111       -1.00333990258087
H           -2.65857867968634       -2.39330303001714       -0.00153503519494
H            1.24464364621829       -2.91409629180949       -0.08340967962516
25
 energy: -42.165864152110 gnorm: 0.082756257428 xtb: 6.6.1 (8d0f1dd)
C            3.31941452979112        1.10204248667539        0.06660134717113
N            2.32391718568929        0.06959740649937        0.02121005917912
C            2.54664146425852       -1.25347816324580       -0.01624583077994
N            1.36119815393308       -1.91681894333926       -0.04414045860124
C            0.37051709339530       -0.98645030546294       -0.02833711712677
C            0.95735478878991        0.27667079343258        0.01472557016579
C            0.22133040675736        1.48602846228609        0.04217044312252
O            0.62560804849278        2.62875896019946        0.07984538538512
N           -1.23515100867025        1.23510575737682        0.02593848006142
C           -2.01163798662548        2.33396858436750        0.06931145535601
C           -1.74352252415723       -0.01340473054179       -0.02436606797302
O           -3.00777471215278       -0.37789729785764        0.03793221823278
N           -0.96127024629452       -1.15329585662402       -0.04795929415909
C           -1.56178329356792       -2.47812624037484       -0.07309533730117
H            3.92118824276582        1.00535309610678        0.97059238745151
H            3.97242660864158        1.03338020220879       -0.80342182674895
H            2.81603499224126        2.06747927178095        0.06861103128684
H            3.50518319053467       -1.72311530812648       -0.02371668004485
H           -1.50801690133056        3.27781608943256        0.09965782833270
H           -3.75883210606970        0.30033866051271       -0.17482857857466
H           -3.07987629381125        2.27041883987538        0.08790920841677
H           -1.20990475182847       -3.06377331497679        0.77527440504613
H           -1.31164306916412       -2.98311817886911       -1.00593594385770
H           -2.64373352416752       -2.40157992067805       -0.00461310566365
H            1.25276322664892       -2.91766180905746       -0.08194796047663
25
 energy: -42.168513182512 gnorm: 0.064802816273 xtb: 6.6.1 (8d0f1dd)
C            3.32123730463635        1.10198607359908        0.06766878823451
N            2.32396609538723        0.06891278353940        0.02105290980758
C            2.54849741392413       -1.25253968658740       -0.01436001088600
N            1.36236070262700       -1.91796475315004       -0.04553944655006
C            0.36520623113835       -0.99190566797641       -0.03047970462105
C            0.95513122230607        0.27181386002005        0.01151289030544
C            0.21568503263499        1.47803012018867        0.03697390506630
O            0.61723862729102        2.62079070526333        0.07408677426190
N           -1.24123842178661        1.22468855779361        0.02867251706993
C           -2.01035721102608        2.32610434888042        0.06989849945240
C           -1.75515020457171       -0.02050405669926       -0.02085076707729
O           -3.04858013632189       -0.31735972981025        0.04350636618567
N           -0.97018721706364       -1.16280098236362       -0.04996707722490
C           -1.54828215633436       -2.49531669409567       -0.07615538409788
H            3.92366796256328        1.00774122101741        0.97178300864480
H            3.97737917981571        1.03511855228692       -0.80045234449941
H            2.81943966315622        2.06807954315107        0.06883386482004
H            3.50961510184189       -1.72015975387770       -0.01833517780167
H           -1.50304050969200        3.26866037645065        0.09136883874754
H           -3.78100353849406        0.37521526412545       -0.16802716291129
H           -3.07805154139566        2.26541870564372        0.09346561595692
H           -1.18378982745476       -3.07163143843824        0.77378864185516
H           -1.28675314020226       -2.99481709703561       -1.00933944824601
H           -2.62949637006754       -2.43002648503195       -0.00676433760810
H            1.25693725118813       -2.91929522529343       -0.08117014098435
25
 energy: -42.169267249489 gnorm: 0.055154599619 xtb: 6.6.1 (8d0f1dd)
C            3.32342329099831        1.10196854078119        0.06980375046510
N            2.32449092839005        0.06987635388443        0.02036278067102
C            2.54957694056650       -1.25092902672710       -0.01340390813064
N            1.36351224488596       -1.91712559405861       -0.04704764882898
C            0.36285199312163       -0.99266296072118       -0.03314126510707
C            0.95477083514831        0.27134454246926        0.00739026043405
C            0.21242805026058        1.47590329468078        0.03044641100339
O            0.61246923343690        2.61901325723289        0.06440216318419
N           -1.24541019527753        1.21854785243278        0.02688368897271
C           -2.01049085089175        2.32045400868558        0.06875138269170
C           -1.75780153464526       -0.03027818897973       -0.01720441429320
O           -3.06620205384667       -0.29736720617987        0.05035063582012
N           -0.97399078482243       -1.16726199910449       -0.05112122878596
C           -1.54495615116809       -2.49999241294269       -0.07859553802405
H            3.92426044380290        1.00642105715229        0.97511040300281
H            3.98208179483783        1.03477904896387       -0.79662546814621
H            2.82340607930996        2.06896938788699        0.07053339399882
H            3.51182624179987       -1.71788125305771       -0.01360583470966
H           -1.50127540093292        3.26217532454779        0.08350201699938
H           -3.78543932040632        0.40137748842086       -0.16114914768241
H           -3.07785230943839        2.26253931486556        0.10589816592848
H           -1.17785396742590       -3.07497418725627        0.77186405217973
H           -1.27797379582389       -2.99928380172603       -1.01100916494812
H           -2.62592090368493       -2.42827294426652       -0.01132735983560
H            1.26050070590510       -2.91910135538387       -0.07989650895939
25
 energy: -42.169971756601 gnorm: 0.047418329170 xtb: 6.6.1 (8d0f1dd)
C            3.32545955701105        1.10157596617620        0.07270683487335
N            2.32431093289851        0.07148894906892        0.01888544135495
C            2.54936655521776       -1.24914109684249       -0.01260368493517
N            1.36384703412740       -1.91563071341215       -0.04832297286570
C            0.36081221440315       -0.99129855004532       -0.03652029463172
C            0.95436437152838        0.27272629203470        0.00175845430363
C            0.20919897042300        1.47584962674321        0.02147912598392
O            0.60820392964612        2.61925455054664        0.04909513082509
N           -1.25023396163975        1.21472337735482        0.02386934554549
C           -2.01165617034447        2.31644925903180        0.06736798080617
C           -1.75839396171478       -0.04042527054044       -0.01116909144812
O           -3.07729868123532       -0.28633414171416        0.05884709693285
N           -0.97673538818066       -1.16972755676818       -0.05164504910821
C           -1.54328005636606       -2.50245969713134       -0.08164238556878
H            3.92315227717708        1.00294547910729        0.97999719918927
H            3.98727776490703        1.03340075912515       -0.79138791905748
H            2.82820071223912        2.06995016999423        0.07285862504431
H            3.51217462212819       -1.71585516916322       -0.00834738106605
H           -1.50025987932112        3.25715679217768        0.07336442984698
H           -3.77962163543227        0.41671320943182       -0.15389880679082
H           -3.07864572661164        2.26305957429007        0.12616272174428
H           -1.17823421181907       -3.07899447220432        0.76904272447055
H           -1.27064030189579       -3.00305729627663       -1.01218520757280
H           -2.62444020498938       -2.42586683301817       -0.01939627437225
H            1.26350275194335       -2.91826466636590       -0.07714442560350
25
 energy: -42.171026908535 gnorm: 0.039979709034 xtb: 6.6.1 (8d0f1dd)
C            3.32716618414737        1.10075709215552        0.07662461018573
N            2.32309846894021        0.07366683278820        0.01599573181738
C            2.54786424657875       -1.24717406515942       -0.01132398015511
N            1.36348509768002       -1.91404463594965       -0.04894520679265
C            0.35873420704582       -0.98868163196283       -0.04145139672864
C            0.95343609624341        0.27529409460800       -0.00678456602603
C            0.20514983939322        1.47684547032969        0.00776764800763
O            0.60329261091860        2.62062387220134        0.02355819415840
N           -1.25695052794417        1.21217028852427        0.02032428919330
C           -2.01471486640599        2.31297130306716        0.06677369298104
C           -1.75790754003081       -0.05192391162662       -0.00013683912430
O           -3.08490618813663       -0.28016410490592        0.07073738769021
N           -0.97901387117722       -1.17117886096990       -0.05175987659042
C           -1.54289510283949       -2.50363724307955       -0.08648649697436
H            3.91939664931270        0.99756105020684        0.98721856392756
H            3.99377886873507        1.03115553518078       -0.78375507502298
H            2.83382234166185        2.07104070079822        0.07540435359883
H            3.51103238450453       -1.71350209838499       -0.00134478180474
H           -1.50045146054190        3.25240190293125        0.05872486932353
H           -3.75775749270215        0.42663680776448       -0.14562718546035
H           -3.08057717689560        2.26730518447114        0.15977386847743
H           -1.18590576218437       -3.08312552700745        0.76603070456798
H           -1.26079282995147       -3.00608733519624       -1.01367695959771
H           -2.62480029797833       -2.42331401170583       -0.03500129425954
H            1.26684763572639       -2.91735816747828       -0.07146863749197
25
 energy: -42.172235171249 gnorm: 0.033568800596 xtb: 6.6.1 (8d0f1dd)
C            3.32649977779856        1.10024292555788        0.07929590694381
N            2.32080451459373        0.07520047892809        0.01237799991403
C            2.54558869510752       -1.24610252291365       -0.00938510798748
N            1.36255070353306       -1.91387379314460       -0.04761030547475
C            0.35765213803156       -0.98712691932113       -0.04616844770886
C            0.95179538506616        0.27705601571561       -0.01509906369013
C            0.20212324086080        1.47772674590358       -0.00562277402657
O            0.59982006794315        2.62178799876243       -0.00407381127075
N           -1.26235546597088        1.21203994442751        0.01949173069222
C           -2.01891054665341        2.31146813467493        0.06970450195316
C           -1.75707946209562       -0.05811911765378        0.01311086134537
O           -3.08484661342376       -0.28138347382705        0.08110632460779
N           -0.97961795496988       -1.17138250787420       -0.05184239802872
C           -1.54483643690742       -2.50320474943009       -0.09184959634511
H            3.91273032705941        0.99417502185528        0.99346760041323
H            3.99798931970702        1.02945877395710       -0.77712997650903
H            2.83583083490799        2.07179491628883        0.07547493627854
H            3.50899533847376       -1.71139174183594        0.00479016941258
H           -1.50278151312526        3.25002142775273        0.04657764097049
H           -3.71870986113138        0.42751280637519       -0.14126562475539
H           -3.08204031356845        2.27395734759430        0.19456773217866
H           -1.20192660593121       -3.08450460712419        0.76556480343074
H           -1.25044424900238       -3.00745609679624       -1.01435797744366
H           -2.62776172422802       -2.42216861162796       -0.05598499664406
H            1.26936191802479       -2.91748985464443       -0.06396851035586
25
 energy: -42.173088141958 gnorm: 0.027055946400 xtb: 6.6.1 (8d0f1dd)
C            3.32238250972497        1.10127028522821        0.07819500978377
N            2.31863624813239        0.07478927659918        0.01011866721048
C            2.54431533605353       -1.24666969228538       -0.00735454318492
N            1.36192619821990       -1.91576972691710       -0.04412815918642
C            0.35824581072350       -0.98917070330206       -0.04728003423440
C            0.95006234063047        0.27564990391882       -0.01809193365850
C            0.20245724168266        1.47697809340629       -0.01095871591899
O            0.59998896616975        2.62106120205175       -0.01802919739163
N           -1.26157316442918        1.21333801026629        0.02284619507897
C           -2.02097497195508        2.31197948078658        0.07637065820582
C           -1.75675232070083       -0.05402403351866        0.02039477147945
O           -3.07768124496361       -0.28667358084563        0.08231924009584
N           -0.97832220979776       -1.17123749377879       -0.05214647713961
C           -1.54879149504282       -2.50217523476009       -0.09461694588436
H            3.90556244223100        0.99782584357858        0.99431658449587
H            3.99620784972871        1.03032800506240       -0.77615988005673
H            2.83016898479964        2.07204624760530        0.07092012808766
H            3.50799237552224       -1.71036829508687        0.00652596174761
H           -1.50578788550148        3.25077047762970        0.04705825040203
H           -3.67956384226361        0.42318799378008       -0.14611021419268
H           -3.08113304996232        2.27699070123170        0.21135633485575
H           -1.22034499060066       -3.08161267114957        0.76966436009578
H           -1.24411325937500       -3.00812104188918       -1.01233585821787
H           -2.63222767793516       -2.42303742361429       -0.07315981694928
H            1.26975132300856       -2.91911708239706       -0.05854276762341
25
 energy: -42.173434065987 gnorm: 0.021957027660 xtb: 6.6.1 (8d0f1dd)
C            3.31754463073971        1.10360012465869        0.07417835182786
N            2.31802462368070        0.07303148369464        0.01024872106296
C            2.54502068081031       -1.24807563300355       -0.00627523401231
N            1.36231810924663       -1.91807195778200       -0.04027560680942
C            0.35950539671811       -0.99332512011435       -0.04371865448005
C            0.94931036403175        0.27215158986614       -0.01515223802078
C            0.20519212826972        1.47505344560752       -0.00766613814117
O            0.60277306558534        2.61903033405064       -0.01424052592198
N           -1.25586333446707        1.21355920239455        0.02651421289168
C           -2.01916989149280        2.31255121137694        0.08190631803555
C           -1.75674714321611       -0.04611194532860        0.01761064447180
O           -3.07180464293036       -0.28874193568666        0.07292060437890
N           -0.97691528100435       -1.17189159132533       -0.05157373919987
C           -1.55218589213495       -2.50207626371506       -0.09329551303278
H            3.90171058841214        1.00670429908699        0.99013510616748
H            3.99065786815777        1.03330678565524       -0.78061149200473
H            2.82058975804827        2.07209666789108        0.06400343774511
H            3.50898857895515       -1.71070530733715        0.00392891357844
H           -1.50618721698959        3.25231014490354        0.05880194020974
H           -3.66182937581600        0.42307749904401       -0.15937609285731
H           -3.07926654346480        2.27339892341003        0.21156816431916
H           -1.23210767628545       -3.07745651270494        0.77638875264934
H           -1.24236458647297       -3.00993873662293       -1.00762598679453
H           -2.63546183359864       -2.42417993668437       -0.07997630231804
H            1.26869913931733       -2.92105822973486       -0.05724602584481
25
 energy: -42.173598288782 gnorm: 0.019249240659 xtb: 6.6.1 (8d0f1dd)
C            3.31377121732034        1.10606198261099        0.06904853581942
N            2.31830203617892        0.07127978646480        0.01100165811521
C            2.54647964710840       -1.24934394837964       -0.00593265905318
N            1.36324365389070       -1.91972489168272       -0.03665116020852
C            0.36036914703775       -0.99705120174830       -0.03822835551854
C            0.94917643467908        0.26888977545727       -0.01044899713760
C            0.20759941259572        1.47323593852464       -0.00152823001779
O            0.60558438272870        2.61712802464077       -0.00448118461661
N           -1.25038567711756        1.21270625358562        0.03014194524740
C           -2.01626290043198        2.31251476618333        0.08720495238723
C           -1.75691164217422       -0.04091269736462        0.01095253080790
O           -3.07027798042703       -0.28764175278613        0.05844117627153
N           -0.97630331599023       -1.17328448311895       -0.04992220842002
C           -1.55432737687220       -2.50287353675701       -0.09020199286306
H            3.90028992209221        1.01618671761828        0.98417546927798
H            3.98527313422175        1.03597711769565       -0.78696123044768
H            2.81194500059324        2.07219416087509        0.05628027824761
H            3.51065014054638       -1.71162860294443        0.00027821348817
H           -1.50501088884432        3.25329074817303        0.07371735729100
H           -3.65507160990587        0.42822956338835       -0.17721487187441
H           -3.07758479094151        2.26768189653725        0.20915712751021
H           -1.24023200488728       -3.07408897310627        0.78408493266955
H           -1.24022743989332       -3.01368216607361       -1.00120811846843
H           -2.63738464117815       -2.42433260864993       -0.08353578392277
H            1.26772765377030       -2.92257332754328       -0.05699776668435
25
 energy: -42.173753375119 gnorm: 0.018134379671 xtb: 6.6.1 (8d0f1dd)
C            3.31032182012882        1.10874648959192        0.06177452091430
N            2.31884717300311        0.06962950550881        0.01155412126972
C            2.54815529566688       -1.25047614613958       -0.00590890709774
N            1.36447715086881       -1.92106729163051       -0.03222122285176
C            0.36086983448656       -1.00040864987812       -0.03101827104508
C            0.94922215345381        0.26587316156017       -0.00466435182293
C            0.20919706743392        1.47139392705775        0.00681606957952
O            0.60794055279189        2.61517005939594        0.00856950663063
N           -1.24580507642133        1.21116646797189        0.03568527229313
C           -2.01330983942084        2.31190489607360        0.09560880106269
C           -1.75721961125402       -0.03829156488091        0.00194350185518
O           -3.07163449050852       -0.28483044283075        0.03666481643899
N           -0.97617154937807       -1.17535134113933       -0.04721196506625
C           -1.55596730824214       -2.50432300476740       -0.08567539037685
H            3.89977552793189        1.02710476581420        0.97584625547240
H            3.97982641733217        1.03756882793983       -0.79569629734199
H            2.80362370570055        2.07243099526974        0.04549902213421
H            3.51240408007805       -1.71287639924576       -0.00370333679014
H           -1.50344839365648        3.25355475972043        0.09301616162905
H           -3.64781595313931        0.43865241256303       -0.20410097352618
H           -3.07595122221127        2.26117905851983        0.20956394690106
H           -1.24999877992133       -3.07045338445375        0.79470092751197
H           -1.23507120675486       -3.02034001555971       -0.99141251282370
H           -2.63885332175572       -2.42380847458365       -0.08880093154899
H            1.26701748788729       -2.92391007027749       -0.05565714550099
25
 energy: -42.173991286464 gnorm: 0.016817509306 xtb: 6.6.1 (8d0f1dd)
C            3.30609139763632        1.11240991566276        0.04869853537765
N            2.31952190341138        0.06777945598434        0.01167514940116
C            2.55019788079203       -1.25165773673244       -0.00610719758172
N            1.36627424082209       -1.92256653539478       -0.02503454293404
C            0.36109265179097       -1.00418649362692       -0.01961544267995
C            0.94929699632739        0.26237793018499        0.00389189142768
C            0.20978216348248        1.46881180691995        0.02056319759228
O            0.60978024106232        2.61240011125217        0.02943009519293
N           -1.24154702113853        1.20832613246008        0.04639019505389
C           -2.01026585838065        2.30995612934206        0.11269550624192
C           -1.75765349167920       -0.03817100131458       -0.01281701991233
O           -3.07600057233521       -0.27952725817437       -0.00435614446365
N           -0.97637145543490       -1.17875727150466       -0.04245879412127
C           -1.55771377927800       -2.50685197272777       -0.07761886280925
H            3.89976889811788        1.04353108927521        0.96125620783339
H            3.97263622130019        1.03716336754802       -0.81075751176781
H            2.79344567407732        2.07295484905422        0.02587110866406
H            3.51437381636962       -1.71463295569329       -0.00865858985647
H           -1.50180474930977        3.25237161023417        0.12475917685986
H           -3.63190162344227        0.46022822495083       -0.25560578973493
H           -3.07436971923723        2.25214438412127        0.21862282906941
H           -1.26700210599187       -3.06427807297523        0.81368650957061
H           -1.22338890785928       -3.03333235750731       -0.97276601864538
H           -2.64030270033857       -2.42277163728036       -0.09946477591984
H            1.26649141333537       -2.92548317245821       -0.05110809395792
25
 energy: -42.174254546122 gnorm: 0.013091447232 xtb: 6.6.1 (8d0f1dd)
C            3.30310297687046        1.11521416272335        0.03342995311395
N            2.31963455190357        0.06692581646846        0.01084576764404
C            2.55124322203924       -1.25204417979579       -0.00609173863228
N            1.36771877933427       -1.92353073425311       -0.01747166254765
C            0.36075900557751       -1.00627880335058       -0.00891321223512
C            0.94916523488622        0.26034210082441        0.01099471943707
C            0.20795246245441        1.46646445658977        0.03436493694338
O            0.60898046983464        2.60991760094023        0.04992732185051
N           -1.24093794941338        1.20489581116877        0.05933125054151
C           -2.00998048755352        2.30611755486322        0.13529400650790
C           -1.75765824690878       -0.04214992950684       -0.02839046622752
O           -3.08132558972867       -0.27336096293986       -0.05483891018225
N           -0.97681777791537       -1.18210888972561       -0.03784717716484
C           -1.55880491081992       -2.50939923682761       -0.06844407956800
H            3.90009221899916        1.05922616511642        0.94481944201117
H            3.96715461319252        1.03244646763969       -0.82734044807425
H            2.78679746893714        2.07356246603067        0.00215978571789
H            3.51522131649986       -1.71574120103712       -0.01097239504236
H           -1.50231094887296        3.24866122013428        0.15821588639155
H           -3.60643717166582        0.48911756352329       -0.32044067341661
H           -3.07448244652077        2.24410766588181        0.24234653794870
H           -1.28677082977131       -3.05649330825084        0.83558159586628
H           -1.20790440341145       -3.04917051621016       -0.94966648994081
H           -2.64072434834471       -2.42190154094540       -0.11320680911114
H            1.26676430449755       -2.92658120746131       -0.04251552393082
25
 energy: -42.174468178521 gnorm: 0.007307611272 xtb: 6.6.1 (8d0f1dd)
C            3.30302697633163        1.11533961421955        0.02359653689491
N            2.31868411469385        0.06781795002202        0.00922554251859
C            2.55036096579350       -1.25118095696274       -0.00512295055508
N            1.36788301706583       -1.92350701752325       -0.01324559535192
C            0.35998383421124       -1.00543555695630       -0.00568138008407
C            0.94860850405668        0.26108779243380        0.01124956792161
C            0.20413943937407        1.46560192605427        0.03946896033365
O            0.60514068415991        2.60909983775592        0.05741114850910
N           -1.24517622278472        1.20237509571408        0.06724984592991
C           -2.01409615183409        2.30106794089936        0.15312552084234
C           -1.75675278648483       -0.04857982626017       -0.03682056254511
O           -3.08350663871016       -0.26904534258979       -0.09056469149695
N           -0.97725513769726       -1.18358191152038       -0.03673870066594
C           -1.55900531096660       -2.51050116263042       -0.06297937293639
H            3.89991686614938        1.06590596693507        0.93520198383112
H            3.96694810541059        1.02436275324485       -0.83650059350992
H            2.78792484798972        2.07388631004381       -0.01473821222028
H            3.51429783923591       -1.71499772616663       -0.00757495473925
H           -1.50650077642438        3.24332824881125        0.17611245380732
H           -3.57846644496854        0.51359308685947       -0.36859479375808