25
 energy: -43.834715478148 gnorm: 0.075145163194 xtb: 6.6.1 (8d0f1dd)
C            3.25850683325018        1.16472631818025        0.09162775400333
N            2.31347827350514        0.08716377473331        0.03851114441764
C            2.59970724753023       -1.23272957395110        0.02495676940085
N            1.43316244230642       -1.95450339217317       -0.01393053080703
C            0.41187418707789       -1.06468690303779       -0.00261848926735
C            0.92926790542275        0.22146150510706        0.04001888108149
C            0.09919120247785        1.38656078179949        0.01716225232385
O            0.50257055162196        2.55413728536405        0.03390878491885
N           -1.29934603617961        1.06955563544080       -0.00862707745798
C           -2.29779595539623        2.20680971383594       -0.09016613682166
C           -1.82225498450936       -0.19851239842955       -0.01952579752707
O           -3.01932642798312       -0.40413172418818       -0.03714387659273
N           -0.92671206576696       -1.29955625036261       -0.00925291421610
C           -1.44947362174232       -2.65255590378495       -0.05452192610576
H            3.75543906891636        1.19308032765954        1.07357454736652
H            4.02537560300411        1.03145592229743       -0.67565446257066
H            2.72502684991688        2.08473023033583       -0.06221954209420
H            3.58688305368750       -1.66767125742797        0.02677146122311
H           -1.73723112678451        3.13929758194756       -0.06014844222984
H           -2.87967532068211        2.14875060948079       -0.97574582365837
H           -2.93579920906290        2.13868305900375        0.78765684918602
H           -1.14111576686368       -3.21223928360620        0.82992715554514
H           -1.12040484846179       -3.17907954966884       -0.95368174897691
H           -2.53587950333848       -2.57395752515977       -0.06465029995253
H            1.36538597518480       -2.95763803859053       -0.04191222726760
25
 energy: -43.836932590202 gnorm: 0.031367360434 xtb: 6.6.1 (8d0f1dd)
C            3.25925063832756        1.17005299991650        0.09523531636219
N            2.31185981839972        0.09998371012475        0.03708162190615
C            2.60210818169031       -1.23883965935361        0.02345831141152
N            1.42131303269831       -1.94375419260447       -0.01090734696612
C            0.40331974222938       -1.05563068164582       -0.00240355081005
C            0.92175776304559        0.23093020494734        0.03476838809443
C            0.09813394343086        1.38865381560417        0.01417201087263
O            0.48495636092787        2.56352794112915        0.02747379656580
N           -1.29519893337151        1.05866558034179       -0.01595126926061
C           -2.26755943235651        2.17661008007052       -0.07439663838208
C           -1.82954919729915       -0.19705451549913       -0.02694333803909
O           -3.02676038474639       -0.40216577092500       -0.04206868352826
N           -0.93686123397672       -1.29381446260449       -0.01220143206060
C           -1.45635832112807       -2.64323380902984       -0.05233315958605
H            3.75593546938724        1.19780593594900        1.07332767164120
H            4.02251863261164        1.03885136196143       -0.67574491279371
H            2.72038503614329        2.09771620456654       -0.05935083478841
H            3.57856557848520       -1.67348009804489        0.02385658236429
H           -1.69430184842187        3.10145962474073       -0.05337472982794
H           -2.85372548944166        2.11207289461234       -0.97936575348796
H           -2.92313341704145        2.12130803865342        0.79309955670497
H           -1.14258391082948       -3.20247829591244        0.83206485305948
H           -1.12033003190553       -3.16414211383333       -0.95253154588194
H           -2.54256647178223       -2.56774065047839       -0.06457609023552
H            1.34967880205461       -2.94615319788112       -0.03807251941329
25
 energy: -43.838058436350 gnorm: 0.012082472304 xtb: 6.6.1 (8d0f1dd)
C            3.26487303267463        1.16134402066363        0.09598318519842
N            2.31378609068503        0.09996020933209        0.03806778819177
C            2.61089866157826       -1.24908383965700        0.02533385369786
N            1.42337375418787       -1.94539575924250       -0.01206220545496
C            0.40524138921588       -1.05854466509586       -0.00108207149078
C            0.91983364475455        0.22966394301408        0.03598892348433
C            0.10125081653346        1.38727940305879        0.02012470802778
O            0.48968567082285        2.56135481009202        0.03465014615010
N           -1.29819421602711        1.06694252744519       -0.01911028648021
C           -2.26864907994860        2.17946441551498       -0.07397567369211
C           -1.82752382894980       -0.19103891152415       -0.02178867564198
O           -3.02324554474770       -0.40168438670419       -0.03597358952581
N           -0.93648871355603       -1.29283092291659       -0.01204191621616
C           -1.45029974574166       -2.64486564373800       -0.05299200400662
H            3.75861226344347        1.19155010857014        1.07277889023620
H            4.02657693629422        1.02768672308105       -0.67612706571102
H            2.72473828319849        2.09229079978329       -0.06428157492377
H            3.58438032760020       -1.67518302792509        0.02667649713500
H           -1.73122174969281        3.12696033347787       -0.05979782657075
H           -2.87810406938725        2.13035727542209       -0.97921444333079
H           -2.93883524208026        2.13627313908932        0.78442783118403
H           -1.13534663477825       -3.20923026172943        0.82894925232334
H           -1.11545531701196       -3.16998986845876       -0.95252134748556
H           -2.53593041926505       -2.57510777604240       -0.06430424790028
H            1.35689801732857       -2.94902170070539       -0.04339184327701
25
 energy: -43.837991938618 gnorm: 0.009461069096 xtb: 6.6.1 (8d0f1dd)
C            3.25711786243044        1.16581154587166        0.09608872310042
N            2.31106272145405        0.09965403478635        0.03646556081352
C            2.61141075202156       -1.24728559569329        0.02420634405541
N            1.42747574815034       -1.94904599041648       -0.01070417147431
C            0.40741204368371       -1.06582750989684       -0.00144809388105
C            0.91892308839365        0.22384231523610        0.03465589184459
C            0.10307858335396        1.38243307403382        0.01690271186906
O            0.49474172903241        2.55427474804973        0.02895184975724
N           -1.29909281188910        1.06626759062042       -0.01947716754565
C           -2.26369138970339        2.18363756295203       -0.07481839974700
C           -1.82531126691960       -0.19466616155853       -0.02213218986152
O           -3.02056426992257       -0.40761643321301       -0.03902917681818
N           -0.93447600472878       -1.29849284990103       -0.01319187808039
C           -1.45554522364466       -2.64808809601782       -0.05322310322277
H            3.75056857104705        1.19901223369774        1.07327229605918
H            4.01998987866793        1.04249874109883       -0.67647672019085
H            2.71453912481169        2.09394164427105       -0.05998278216492
H            3.58882279207160       -1.66520874688169        0.02505663087335
H           -1.71661765837402        3.12567503224952       -0.05661003681895
H           -2.87353329930056        2.14660590980074       -0.97847389330762
H           -2.92803152751638        2.13497732744886        0.78799717456838
H           -1.14833585007788       -3.21102356744507        0.83206399236167
H           -1.12585259393994       -3.17890406797999       -0.95168411094610
H           -2.54082180635237       -2.56930635396529       -0.06542125959917
H            1.36758513438189       -2.95401544234266       -0.03867188772334
25
 energy: -43.838220441777 gnorm: 0.004308904089 xtb: 6.6.1 (8d0f1dd)
C            3.26212876934967        1.16237601295541        0.09539733505159
N            2.31073127054326        0.10019691997859        0.03698291646176
C            2.60664285951711       -1.24620415208870        0.02452766878661
N            1.42277649378046       -1.94617816715900       -0.01159683271510
C            0.40584233971161       -1.06145412515785       -0.00084272161269
C            0.91909043998461        0.22770383763701        0.03621033298173
C            0.10203618768096        1.38649113482903        0.01904226814984
O            0.49183903883919        2.55869847715478        0.03175204705042
N           -1.30108763016538        1.06846166006554       -0.01524622051289
C           -2.26994180221464        2.18067342565855       -0.07617381461580
C           -1.82683782067320       -0.19259324367774       -0.02000651363920
O           -3.02224357981880       -0.40563157139334       -0.03778285585860
N           -0.93497353221001       -1.29490139811667       -0.01201291479630
C           -1.45246621138040       -2.64531619707064       -0.05373510104108
H            3.75706035811935        1.19364950011448        1.07251388567921
H            4.02488261218552        1.03337258194454       -0.67641755933653
H            2.72644985341151        2.09306243614453       -0.06139699050216
H            3.58378040512158       -1.66708761352995        0.02512271772083
H           -1.72072140236617        3.12140483757354       -0.06007013727112
H           -2.87292500005280        2.13315489580148       -0.98089254862148
H           -2.93341168843981        2.12966913544253        0.78747657441277
H           -1.14050371519151       -3.20718017531533        0.83037045882876
H           -1.11968261329764       -3.17096878720192       -0.95385996358614
H           -2.53831563645863       -2.57124722083309       -0.06463991107972
H            1.36070433115515       -2.95100125895063       -0.04040581601369
25
 energy: -43.838220923546 gnorm: 0.003301878829 xtb: 6.6.1 (8d0f1dd)
C            3.26095550857758        1.16270462575409        0.09581130009708
N            2.31200372255472        0.09923010399400        0.03739105008972
C            2.60789768253116       -1.24858469403602        0.02566673115205
N            1.42240397643245       -1.94617115187166       -0.01240499289768
C            0.40596484061490       -1.06113618042049       -0.00231303877377
C            0.91992888922490        0.22777293226010        0.03455248884331
C            0.10340936327289        1.38649317530828        0.01661954602624
O            0.49129584873950        2.55949145964329        0.03188654865850
N           -1.30013500197904        1.06829728277984       -0.01840449801336
C           -2.26818837292064        2.18110148244882       -0.07359453169445
C           -1.82674535647087       -0.19185240971211       -0.02478068046483
O           -3.02253547249882       -0.40345440916837       -0.03914923322040
N           -0.93523467246071       -1.29451243858395       -0.01378549109679
C           -1.45128845942339       -2.64583619909481       -0.05250879831099
H            3.75448485972109        1.19588865086013        1.07358133422952
H            4.02419293183989        1.03313790784417       -0.67548995411023
H            2.72068485209028        2.09150730731143       -0.06356323644298
H            3.58418032002612       -1.67185991119388        0.02741363225818
H           -1.72241360823247        3.12404371529942       -0.05732968930712
H           -2.87337529052575        2.13315308083819       -0.97745601003915
H           -2.93379263307023        2.13510345121615        0.78862863155466
H           -1.13804975103154       -3.20786774638982        0.83120125776554
H           -1.11689392780752       -3.17221220366285       -0.95133981057431
H           -2.53729159414449       -2.57459722123413       -0.06420888501015
H            1.35939567207102       -2.95068966538467       -0.04210736679757
25
 energy: -43.838239137679 gnorm: 0.002053861613 xtb: 6.6.1 (8d0f1dd)
C            3.26160764734378        1.16326437185242        0.09569660107007
N            2.31240370508700        0.09992650798046        0.03752540770337
C            2.60891438645371       -1.24787644254585        0.02461375358297
N            1.42360102504585       -1.94596894145793       -0.01145500506659
C            0.40652928490845       -1.06171260716846       -0.00038612321807
C            0.92008398589583        0.22758370508182        0.03654584747580
C            0.10350500756164        1.38589890532221        0.01909617925641
O            0.49074467750705        2.55905742570723        0.03245268287538
N           -1.30041369927462        1.06754408234766       -0.01700328467725
C           -2.26802569078441        2.18023908426265       -0.07580690962451
C           -1.82655380684113       -0.19269800334173       -0.02134241786433
O           -3.02224068455348       -0.40479456164434       -0.03684563357753
N           -0.93490825019652       -1.29519021422627       -0.01169860188174
C           -1.45302689966158       -2.64564143561580       -0.05316682759815
H            3.75692822281058        1.19436766012141        1.07257602732667
H            4.02373557405971        1.03447151650092       -0.67688975333045
H            2.72206548981877        2.09299992981574       -0.06121886229702
H            3.58561197511738       -1.66994250430419        0.02428688391969
H           -1.72271992515831        3.12354071954999       -0.05926387414827
H           -2.87310773491238        2.13311543429673       -0.98007760399248
H           -2.93450161015689        2.13434309296089        0.78574667469515
H           -1.14164610413687       -3.20991702366437        0.82972521128894
H           -1.12059899254655       -3.17148570513294       -0.95312475439750
H           -2.53881854678385       -2.57135176076193       -0.06479100122968
H            1.36168529052784       -2.95062229113119       -0.04087831236986
25
 energy: -43.838238313798 gnorm: 0.001966218071 xtb: 6.6.1 (8d0f1dd)
C            3.26179993814829        1.16273187128287        0.09549831637050
N            2.31133200819283        0.10019357990221        0.03668962633960
C            2.60745734935225       -1.24705172729366        0.02501964089449
N            1.42288169829752       -1.94591166013435       -0.01170602920887
C            0.40592304504689       -1.06173431538662       -0.00159649873495
C            0.91924743118122        0.22768444046121        0.03520992862464
C            0.10307474309999        1.38605842782714        0.01769220985712
O            0.49099081770174        2.55878861986161        0.03074100070296
N           -1.30131284321096        1.06787104654680       -0.01742467491643
C           -2.26884450190376        2.18068383876377       -0.07541488968012
C           -1.82700080619203       -0.19279172514347       -0.02159906978438
O           -3.02254387499276       -0.40544260495347       -0.03837876939469
N           -0.93516934095777       -1.29517872743784       -0.01290541785309
C           -1.45247387607581       -2.64578665085857       -0.05350900968205
H            3.75571695985684        1.19394753576448        1.07311040913882
H            4.02527566068401        1.03307213570140       -0.67557016415564
H            2.72519190118843        2.09337107590629       -0.06237544514666
H            3.58454256885892       -1.66790540571222        0.02647495783891
H           -1.72128228047692        3.12264013832143       -0.05810501984844
H           -2.87471476446234        2.13607845037408       -0.97894783992595
H           -2.93233026772171        2.13056888401392        0.78820458738788
H           -1.14048013948187       -3.20727570928779        0.83085383241582
H           -1.11966276156473       -3.17274902031445       -0.95286697579358
H           -2.53827643102631       -2.57189379890018       -0.06472973254616
H            1.36151209358904       -2.95081775449943       -0.04004866897873
25
 energy: -43.838239678565 gnorm: 0.001629343066 xtb: 6.6.1 (8d0f1dd)
C            3.26057336347903        1.16290666752000        0.09562521844415
N            2.31158793233547        0.09926725753960        0.03746476320647
C            2.60752849688445       -1.24820532012425        0.02475998973829
N            1.42253955628520       -1.94638914301163       -0.01237850964257
C            0.40594602555170       -1.06184243582411       -0.00108253715926
C            0.91959956797065        0.22734382287587        0.03632516137119
C            0.10406378712774        1.38612173436700        0.01930652418089
O            0.49210357903282        2.55881094667333        0.03340954317452
N           -1.30054544983060        1.06824702042860       -0.01618027244377
C           -2.26814913047224        2.18095107691071       -0.07554331242602
C           -1.82657683447579       -0.19215058306616       -0.02160766203420
O           -3.02223866267210       -0.40415524859597       -0.03799875066127
N           -0.93514572255039       -1.29489963796007       -0.01227571986472
C           -1.45192250584330       -2.64577444163211       -0.05296359457061
H            3.75545222925501        1.19559161863259        1.07276289375903
H            4.02299152670884        1.03475738461997       -0.67674578893143
H            2.72091034932071        2.09196758099607       -0.06186945485549
H            3.58435751734535       -1.66999967252519        0.02512646092718
H           -1.72132802303808        3.12340254643581       -0.05987395700354
H           -2.87190905134481        2.13283320724475       -0.98009417130155
H           -2.93410143902410        2.13450030834926        0.78666067427233
H           -1.13936551303599       -3.20828810381064        0.83061923051501
H           -1.11827255414212       -3.17153396358095       -0.95257416491336
H           -2.53781210753128       -2.57313141219069       -0.06432982149039
H            1.36056738979484       -2.95118026546662       -0.04222643836987
25
 energy: -43.838236796863 gnorm: 0.002177242471 xtb: 6.6.1 (8d0f1dd)
C            3.26215356625654        1.16299541337182        0.09581166317858
N            2.31275168009481        0.09981647019898        0.03741958341945
C            2.60886838615383       -1.24798281204157        0.02529568302859
N            1.42355453082519       -1.94579299093336       -0.01101786531603
C            0.40665354231474       -1.06151497901767       -0.00098854887850
C            0.92027618455106        0.22793117436559        0.03533862260945
C            0.10399206974694        1.38624487450374        0.01684841469597
O            0.49049983133977        2.55953691886602        0.03042094316655
N           -1.30060196313860        1.06768163763065       -0.01804100008513
C           -2.26879945744761        2.18005134078789       -0.07444772744773
C           -1.82638010637990       -0.19254253018396       -0.02307920700462
O           -3.02206464707798       -0.40479903500706       -0.03750374653180
N           -0.93473421368974       -1.29494617861944       -0.01253723893419
C           -1.45306033437335       -2.64541118477540       -0.05317889608237
H            3.75705236024073        1.19456227139060        1.07296491233244
H            4.02472547826685        1.03374933949590       -0.67627321025346
H            2.72280367218757        2.09261380749198       -0.06181529970235
H            3.58559760289939       -1.67023823676967        0.02564868916776
H           -1.72374528734182        3.12350484615567       -0.05772959934447
H           -2.87405723419323        2.13260618139789       -0.97835782137183
H           -2.93478905647266        2.13380858349204        0.78754148738860
H           -1.14196792317196       -3.20977992768238        0.82977477561583
H           -1.12064794020700       -3.17139260270884       -0.95298456174913
H           -2.53886338404578       -2.57105837123569       -0.06497369642050
H            1.36163696979320       -2.95049306536858       -0.03982005156012
25
 energy: -43.825438051798 gnorm: 0.093222705874 xtb: 6.6.1 (8d0f1dd)
C            3.27751679198094        1.15351765821545        0.09915136287542
N            2.33144434703241        0.09156599813147        0.03611813675670
C            2.61681800042231       -1.25144549326491        0.01627342448933
N            1.42838880201444       -1.96500586190945       -0.03770798629501
C            0.43057331691176       -1.06934878463629        0.00973465739695
C            0.92405190785743        0.22567365160302        0.06443450804821
C            0.09738231804369        1.37431647251945        0.04278163223078
O            0.49346129172389        2.55130105425717        0.07838211281865
N           -1.34480419781301        1.09056660521403        0.01261088865343
C           -2.37160859900954        2.26013992364164       -0.13710576052197
C           -1.82622888294363       -0.19374145567883        0.00781016434852
O           -3.02398165534351       -0.42853950495903        0.00429309286445
N           -0.92373212630997       -1.29131752182072        0.01772564822826
C           -1.42882989864678       -2.65628172228493       -0.04749050027387
H            3.79359693135725        1.16261220728725        1.07856283683603
H            4.04213525770900        1.02507835793752       -0.67576840355874
H            2.75341161682895        2.07523837622988       -0.03402526803843
H            3.60052810760538       -1.69488044195086        0.00003345419642
H           -1.79943132897721        3.18515114746830       -0.10195445848214
H           -2.93220632518217        2.19674098238996       -1.01419994201701
H           -2.99405899222910        2.19882609840665        0.75614196447777
H           -1.10953650872032       -3.22457897805103        0.82860813518788
H           -1.09464951678266       -3.17851435493458       -0.95015292320055
H           -2.51796013467253       -2.59274288485280       -0.05402652759956
H            1.36017977580833       -2.96548939642744       -0.07667006312188
25
 energy: -43.830204778244 gnorm: 0.038914184554 xtb: 6.6.1 (8d0f1dd)
C            3.27476072234926        1.15641145085758        0.10365121408260
N            2.31831998354707        0.10054148838184        0.03534741957463
C            2.60597235284724       -1.24739674276294        0.01344922519668
N            1.41655624544433       -1.94702546598923       -0.03077792993550
C            0.41051379418948       -1.05637059872514        0.00674041410167
C            0.91458796489913        0.23594130421877        0.05611345762213
C            0.09345817910009        1.38697399570180        0.03781743236894
O            0.47522769258116        2.56315182538023        0.06727969733178
N           -1.32727320626692        1.07434897486288       -0.00238934098819
C           -2.31569261838714        2.20983273270571       -0.10584703871926
C           -1.83611481859345       -0.19237019889097       -0.00469426949429
O           -3.03141795828225       -0.41999399323334       -0.00608623590089
N           -0.93682625336234       -1.28519622780593        0.01064666776431
C           -1.43949087072906       -2.64374612058935       -0.04401625052328
H            3.78785929982468        1.16630748882175        1.07713913198759
H            4.03443899553930        1.03108974118843       -0.67461637594793
H            2.74762149088715        2.09141455950516       -0.03131246463776
H            3.58046200894002       -1.68698280076119       -0.00572509835390
H           -1.74282611333700        3.13504618750883       -0.08968271298303
H           -2.88523939518426        2.13261836704343       -1.01346491671853
H           -2.97421908170722        2.17268286151839        0.76174353483263
H           -1.11350579207147       -3.20918846589774        0.83253907285377
H           -1.09687648865284       -3.15426560196458       -0.94898845860452
H           -2.52675047973874       -2.58564465143710       -0.05308168218065
H            1.34891464482909       -2.94933797710638       -0.06822430642938
25
 energy: -43.832291754546 gnorm: 0.014175835669 xtb: 6.6.1 (8d0f1dd)
C            3.28426584847596        1.14483918503386        0.10494560312221
N            2.32026497318113        0.09395243900923        0.03843070818068
C            2.61348157636007       -1.25760152263668        0.01569017047814
N            1.42291997257266       -1.94848732035459       -0.03256659515177
C            0.41034644334740       -1.05903777956991        0.00775124983902
C            0.91693882326880        0.23213579827143        0.05832340898389
C            0.09186501329474        1.38785753429802        0.04678197529254
O            0.47761290025125        2.55890452854866        0.07832501720023
N           -1.32908857922925        1.08407849348572       -0.01042723923859
C           -2.31543988848016        2.21100346658456       -0.10674094669464
C           -1.83572986740548       -0.18627836288168        0.00490578932003
O           -3.02706691220577       -0.42059997688773        0.00502516361041
N           -0.93406706483798       -1.28449885669822        0.01156273524237
C           -1.43057668325710       -2.64579960271944       -0.04447444944404
H            3.79462139011800        1.15923137510750        1.07547219330348
H            4.04050264355725        1.02016077767123       -0.67592544235650
H            2.75438723900269        2.08416383226200       -0.03514651198574
H            3.58664826087959       -1.69244188563142       -0.00097689711729
H           -1.78944172174146        3.16695642983783       -0.10031455047298
H           -2.92370498687272        2.16409566402294       -1.01398489890595
H           -2.99326159302545        2.19282732276217        0.74761348997876
H           -1.10415515116911       -3.21771532705477        0.82866536933255
H           -1.08969419216264       -3.16174322127140       -0.94808056441293
H           -2.51648642570401       -2.59408649051328       -0.05309691395023
H            1.35731828044694       -2.95307436814509       -0.07819767785400
25
 energy: -43.832208888602 gnorm: 0.011391436525 xtb: 6.6.1 (8d0f1dd)
C            3.27647104910715        1.15357340560722        0.10415655437572
N            2.32102657996531        0.09468573801468        0.03569987319665
C            2.61860852616095       -1.25756471625174        0.01395532210304
N            1.42887733830571       -1.95390489680940       -0.02950178168707
C            0.41439622094556       -1.06654155941995        0.00878221055279
C            0.91891231429668        0.22553240790368        0.05577744724635
C            0.09215461805808        1.38137823280670        0.04267639532920
O            0.48455596835261        2.55100263761759        0.07114325730957
N           -1.33281922026247        1.08495213177035       -0.00620168882898
C           -2.31205265696992        2.21730778501054       -0.10747375446970
C           -1.83473126885879       -0.18973945145123        0.00496984740366
O           -3.02538680588695       -0.42880919156285        0.00065034416216
N           -0.93098494913135       -1.29057838635089        0.01081275470481
C           -1.43723693428245       -2.64935839227029       -0.04579801205579
H            3.78348731398326        1.17118829201516        1.07676870570824
H            4.03429118578182        1.03852063855325       -0.67637121858639
H            2.73992902372928        2.08732300282771       -0.03363126792574
H            3.59579854399411       -1.68703550636792       -0.00221126183790
H           -1.76963695752423        3.16310470821647       -0.09584486036402
H           -2.91857875511925        2.18651630209537       -1.01519741362350
H           -2.98269220530541        2.18849828105308        0.75296698836654
H           -1.11995873116535       -3.22113319449381        0.83081043639855
H           -1.10258991583110       -3.17420116238423       -0.94766128673912
H           -2.52346206229307       -2.58652769679259       -0.05524296390738
H            1.36408207861516       -2.95934727680597       -0.07047444053205
25
 energy: -43.832547186864 gnorm: 0.005517675579 xtb: 6.6.1 (8d0f1dd)
C            3.28248772350822        1.14987519528443        0.10444836935319
N            2.32090163242860        0.09680556148682        0.03642555516202
C            2.61408532794870       -1.25646836243176        0.01343641667753
N            1.42321983898304       -1.95056960793832       -0.03179858754060
C            0.41269929029095       -1.06095322025461        0.00926906469820
C            0.91907574233661        0.23052787328235        0.05718734076085
C            0.09089709959909        1.38604007565286        0.04446299549983
O            0.48294350386747        2.55665497334946        0.07419264338342
N           -1.33549151987190        1.08872419038783       -0.00021390884562
C           -2.32005164511949        2.21365004016419       -0.10878311790871
C           -1.83671329320009       -0.18620982106977        0.00627988632831
O           -3.02765178863539       -0.42562749634866        0.00153593509203
N           -0.93181801301953       -1.28609582237839        0.01207330963501
C           -1.43350587101566       -2.64596452714858       -0.04574566953334
H            3.79149199822997        1.16175404799911        1.07668887455036
H            4.03902951985333        1.02646170026346       -0.67596173331849
H            2.75396227405341        2.08663291727622       -0.03289998407767
H            3.59027483957828       -1.68899855859062       -0.00287284929789
H           -1.77619546633387        3.15871989446802       -0.10197346135082
H           -2.91714325759274        2.16665884528186       -1.01805342424909