25
 energy: 38.657780005616 xtb: 6.6.1 (8d0f1dd)
C            3.47811384811597        1.58365606215438        0.08940939039516
N            2.64621918718442        0.40869739003128        0.05954689456855
C            3.06135481749239       -0.85263630500049        0.04972417063595
N            1.99465593588976       -1.68270502520142        0.01604327725823
C            0.84238247606700       -0.92075371869093        0.00460882165456
C            1.27728402190576        0.41224191114098        0.03374512113790
C            0.31797524168254        1.49457117802637        0.00413614775967
O            0.60540548178516        2.68459212511675        0.00255001388956
N           -0.96021190683796        1.00035686625427       -0.02842379827565
C           -2.06604494753864        1.94355394220024       -0.05219831074569
C           -1.35212724877546       -0.39116941066527       -0.04095956614674
O           -2.53982370324029       -0.61186338812086       -0.06280277032506
N           -0.39198997485932       -1.34567539186518       -0.02869131405231
C           -3.32618362793993       -3.51594009644343       -0.11013618968802
H            3.97243904082123        1.66443128485777        1.05826907802860
H            4.23269166180730        1.53284871455596       -0.69841000305209
H            2.83585754103857        2.45427762633588       -0.05725750956124
H            4.08558833324623       -1.16837051398073        0.06767580218355
H           -1.65716643029151        2.95166927123978       -0.02988617212896
H           -2.66334739407511        1.79477798837236       -0.95256498441492
H           -2.71241604719714        1.77330019401846        0.80932530516744
H           -3.07678044214373       -3.99619741481404        0.80817086111648
H           -3.04359125505811       -3.96045779498155       -1.03650199821521
H           -3.69688027265050       -2.51558935882594       -0.09910063158292
H            2.03497829797365       -2.68846222329104        0.00742594467728
