25
 energy: -40.458797059551 gnorm: 8.786751076156 xtb: 6.6.1 (8d0f1dd)
C            3.31492237586078        1.06139974923891       -0.17898984358539
N            2.42147893644556        0.09322054341615       -0.10712972175525
C            2.53212137233016       -1.11664758507591        0.48116206270502
N            1.35732973300070       -1.79987070881578        0.38441901407164
C            0.44243445216480       -1.07299506850004       -0.30073948259176
C            1.07117572856496        0.23155554423642       -0.74258553897444
C            0.21611629328568        1.32090973623720        0.11283927943263
O            0.76131698994837        2.21911828328634        0.69013960363117
N           -1.11956916925397        1.09520495497598       -0.00027610072679
C           -2.02254752033174        2.17263340434585        0.39498465470180
C           -1.73736363416188       -0.11535080584689       -0.34361426966817
O           -2.91859300319679       -0.20304943216337       -0.54692926185248
N           -0.89888837598180       -1.23880024917192       -0.33783835767480
C           -1.50933646345935       -2.55506499961208       -0.29312079176072
H            3.06158612173000        1.97989140264106       -0.67012342318663
H            4.27438601914181        0.92956825848875        0.28340143061453
H            1.06774762520643        0.34822040782021       -1.15066634427076
H            3.41113743105182       -1.48700467197052        0.96406030824719
H           -1.49851339268302        3.12098681800198        0.30328573874918
H           -2.89400141759914        2.14973032163546       -0.25724560393767
H           -2.34772970070359        2.03804128757405        1.42728690286786
H           -1.46624142695819       -2.96980694709082        0.71598384845310
H           -1.00924754941700       -3.22276965722504       -0.99304256862759
H           -2.55441793273885       -2.44349750879852       -0.58098121422604
H            1.20512802185309       -2.71738453602722        0.77689129726517
25
 energy: -42.172082449647 gnorm: 0.125068231712 xtb: 6.6.1 (8d0f1dd)
C            3.31478497518305        1.06148579795516       -0.17935474334581
N            2.42469963190013        0.09069292568638       -0.10046938976394
C            2.53305001893352       -1.11717878666938        0.48178422481845
N            1.35724943985434       -1.80092556858400        0.38497815034423
C            0.44131379879880       -1.07809279572213       -0.29480627255939
C            1.07332739564550        0.15224306234354       -0.46123241174524
C            0.21527122836178        1.32130568179262        0.11688010144407
O            0.76119067141436        2.21958211218969        0.69016681880724
N           -1.11963933103906        1.09525565787603       -0.00034998755694
C           -2.02254675664376        2.17265161285315        0.39492546017057
C           -1.73732077690139       -0.11533613604220       -0.34344304064930
O           -2.91859341994287       -0.20305609258178       -0.54695397995927
N           -0.89904586487873       -1.23883103308491       -0.33806460444060
C           -1.50937481890001       -2.55507591847700       -0.29320421929534
H            3.06148696047309        1.97990279756347       -0.67006077748852
H            4.27442087655633        0.92960630598159        0.28327241461561
H            1.06389584476433        0.43589934849138       -1.44901018903984
H            3.41122856385369       -1.48707900497742        0.96400692985467
H           -1.49851006562806        3.12098519637762        0.30328707945434
H           -2.89400463453543        2.14973265209991       -0.25724970429315
H           -2.34773584654652        2.03803923944903        1.42728693311253
H           -1.46625008675393       -2.96979924194488        0.71596740195531
H           -1.00924899955505       -3.22276644077706       -0.99303341409231
H           -2.55440460933899       -2.44349876647982       -0.58098536182829
H            1.20518731902374       -2.71750406371877        0.77683419938171
25
 energy: -42.189196923362 gnorm: 0.062514919936 xtb: 6.6.1 (8d0f1dd)
C            3.31072197973048        1.05438383640937       -0.16561998370808
N            2.42004006553990        0.08377632686130       -0.08317117093328
C            2.54026479201498       -1.13912152222758        0.48900208453133
N            1.36811411799801       -1.83236269839311        0.39053803604545
C            0.44700149142530       -1.09604090164871       -0.28727019871602
C            1.06205329881137        0.20776684860726       -0.51029068207275
C            0.21307205766987        1.33436800519713        0.14924204263263
O            0.74167860647625        2.26589245550403        0.69519390663911
N           -1.11877544430281        1.09897168369402        0.00862980308405
C           -2.02712024211592        2.17666574607553        0.38708551230100
C           -1.72968351979603       -0.11764286882051       -0.33619969018043
O           -2.90986947486916       -0.20512011149124       -0.54747744805867
N           -0.89553561994627       -1.24700625771287       -0.32821949088691
C           -1.51088478367866       -2.55991182213491       -0.28819695755814
H            3.05710484190529        1.97147850493704       -0.66042362877306
H            4.27944505277723        0.91721072269528        0.27424439208904
H            1.05309930491975        0.49450713308785       -1.50151003002458
H            3.42277320735701       -1.51083639534880        0.96306697316852
H           -1.50100104336491        3.12382660205583        0.29579024001084
H           -2.89616977457161        2.15084889342089       -0.26768835801692
H           -2.35364005097596        2.04388180284740        1.41927273747233
H           -1.46869740560835       -2.97264480392118        0.72126094084832
H           -1.01048933516839       -3.22798901208444       -0.98693158781862
H           -2.55485606243059       -2.44534582899618       -0.57742223103023
H            1.22178545430207       -2.75131779701316        0.77826640685592
25
 energy: -42.193318430077 gnorm: 0.056819325001 xtb: 6.6.1 (8d0f1dd)
C            3.30942873091222        1.05048486351726       -0.15056594484767
N            2.41415620044910        0.08411822212814       -0.06120473097193
C            2.54233516358094       -1.14449123793360        0.49844534826583
N            1.37147483037955       -1.83870007012019        0.39620494124387
C            0.44811628765333       -1.09682445724556       -0.27410789015925
C            1.05953346914836        0.22715736038055       -0.55947566972062
C            0.21665219910075        1.33156703224427        0.16005236232625
O            0.73161090804315        2.28356829983164        0.68652433961463
N           -1.11770230219304        1.09875310359834        0.01539732580621
C           -2.02912648249971        2.17725295171018        0.38600835918976
C           -1.72704492228384       -0.11816767417058       -0.32646663332169
O           -2.90657134553798       -0.20582842866708       -0.54286626516108
N           -0.89478912702011       -1.24764710685755       -0.31489983990327
C           -1.51202855510609       -2.56018345386510       -0.28376130584118
H            3.05146511197346        1.96951200966284       -0.63925392161249
H            4.28547353173189        0.90987834719575        0.27251402205805
H            1.05279345055335        0.51177019648875       -1.55829691325901
H            3.43178613399130       -1.52324582844071        0.95561501345448
H           -1.50255623921140        3.12407013449889        0.29238460684639
H           -2.89605679309467        2.14970646028640       -0.27137094463419
H           -2.36130681700425        2.05137845164708        1.41766592270819
H           -1.47409593420268       -2.97850230675259        0.72353994837732
H           -1.00992949391968       -3.22655065364178       -0.98318366457721
H           -2.55482052852040       -2.44537226915194       -0.57700627989661
H            1.23163403717527       -2.76546540474315        0.76927943191602
25
 energy: -42.194067567115 gnorm: 0.054240622303 xtb: 6.6.1 (8d0f1dd)
C            3.31449936586798        1.04776243180907       -0.14309794466321
N            2.41508708562634        0.08536121519770       -0.05469558616318
C            2.54099655511727       -1.14318377940615        0.49942355373993
N            1.36958473214566       -1.83525554075899        0.39418203054859
C            0.44667049101158       -1.09197376898729       -0.26937481638607
C            1.06399054956809        0.22975816002791       -0.58080804388253
C            0.21815068004269        1.33098035978490        0.14884652892017
O            0.72873056916247        2.28182653143706        0.67699947472072
N           -1.11941039501021        1.09758061537215        0.01805223524517
C           -2.03077004593428        2.17637685102622        0.38717817015417
C           -1.72861025355085       -0.11846495326078       -0.32014366786680
O           -2.90872996161962       -0.20846499648595       -0.53376168922469
N           -0.89545037345308       -1.24610212819860       -0.30830717949926
C           -1.51213916349771       -2.55939135091890       -0.27836123522393
H            3.05211515287043        1.97377377764956       -0.61568922194586
H            4.28870669939626        0.90592597416949        0.28261821554616
H            1.05944055651485        0.51211637980982       -1.58648124317270
H            3.43320191058355       -1.52748911686155        0.94699090917183
H           -1.50500990731985        3.12341191707256        0.28906373097382
H           -2.89614515372811        2.14505446851196       -0.27235213135299
H           -2.36611851691994        2.05614813409660        1.41841465556857
H           -1.47739192142150       -2.98092681571002        0.72795051956207
H           -1.00927656197285       -3.22509452636170       -0.97806369621359
H           -2.55438977822612       -2.44394656702450       -0.57355100442300
H            1.23269919884578       -2.76754473039030        0.75613905376745
25
 energy: -42.194674800331 gnorm: 0.046674494957 xtb: 6.6.1 (8d0f1dd)
C            3.31898493717035        1.04665047682971       -0.13344039483567
N            2.41638769617575        0.08659330781719       -0.05265149214656
C            2.53913141712650       -1.14200328398603        0.49488501370262
N            1.36713776474461       -1.83165913111727        0.38705297526932
C            0.44472795901354       -1.08659991108339       -0.26715427627518
C            1.06807111076215        0.22828302315535       -0.59591652855094
C            0.22021097544299        1.33098475508684        0.13411969942225
O            0.72758626314329        2.27996783695865        0.66629889802749
N           -1.12096504761241        1.09520130825616        0.02220364680608
C           -2.03135292877875        2.17603671074888        0.38637791764061
C           -1.73099015638614       -0.11923240417165       -0.31162921253697
O           -2.91214638521616       -0.21197663428792       -0.52064931165131
N           -0.89612200641568       -1.24477125519334       -0.30198113985628
C           -1.51167354299559       -2.55886555288979       -0.27133241611254
H            3.05288446948012        1.98184892678805       -0.58545143439134
H            4.28995172885174        0.90234710912974        0.29907310024247
H            1.06572109178417        0.50871563217740       -1.61198108265272
H            3.43317527666970       -1.53111975287075        0.93447503606392
H           -1.50619321896574        3.12308438565392        0.28422743430548
H           -2.89469802029799        2.14062837280481       -0.27621607725041
H           -2.37072452434069        2.06142490096587        1.41661193007460
H           -1.47986403401503       -2.98124226797975        0.73476490710847
H           -1.00800632088297       -3.22467529818325       -0.97043336264674
H           -2.55356280505316       -2.44241319993410       -0.56796818932360
H            1.23275981469426       -2.76896951307509        0.73788597746775
25
 energy: -42.195278317394 gnorm: 0.033911540682 xtb: 6.6.1 (8d0f1dd)
C            3.32020484940018        1.04813390031731       -0.12039802435782
N            2.41724638112505        0.08703515575894       -0.05456760954310
C            2.53884665082176       -1.14370951499400        0.48373847997940
N            1.36630759808157       -1.83116089751029        0.37407639905497
C            0.44315936522633       -1.08206312086763       -0.26796688356619
C            1.07003392796892        0.22561070288271       -0.60227624677475
C            0.22232740180421        1.33077815388022        0.12208902227193
O            0.72727265424312        2.27996372461894        0.65694275096403
N           -1.12211110683621        1.09221628435181        0.02773382406617
C           -2.03090026161728        2.17714142607765        0.38224674422716
C           -1.73366645886339       -0.12002023307148       -0.30270106406225
O           -2.91626950382489       -0.21569439150065       -0.50506948512982
N           -0.89659099793702       -1.24397443335119       -0.29721495581868
C           -1.51067700562006       -2.55879745055586       -0.26235050785441
H            3.05242407289556        1.99267983494818       -0.55202614160487
H            4.28751963820169        0.89941136268033        0.31972842259882
H            1.06955813081135        0.50548558379075       -1.63296291140870
H            3.43396651698389       -1.53598997435966        0.91776670177267
H           -1.50448863050512        3.12312228455636        0.27778887217710
H           -2.89103426024394        2.13901709907912       -0.28502923628606
H           -2.37660157980953        2.06820543822269        1.41068809397366
H           -1.48099222579293       -2.97860905265781        0.74489355502186
H           -1.00602697004491       -3.22593208010098       -0.95933256751908
H           -2.55246083549370       -2.44252483707382       -0.55993717919225
H            1.23338416312418       -2.77208642352137        0.71531156491102
25
 energy: -42.195821333551 gnorm: 0.018610081397 xtb: 6.6.1 (8d0f1dd)
C            3.31642778517413        1.05261939152868       -0.10271143999815
N            2.41693432017597        0.08632942915036       -0.05820896219064
C            2.54188038752601       -1.15083019264602        0.46568473718886
N            1.36912064041113       -1.83702863242988        0.35466481382711
C            0.44254937550960       -1.07971773522819       -0.27202256952852
C            1.06883003008536        0.22430019370549       -0.59747148539280
C            0.22314852077004        1.33064271404156        0.11817159854490
O            0.72615035368993        2.28344140794192        0.65135194653484
N           -1.12293246891654        1.09023293126577        0.03320000056619
C           -2.03024430506746        2.18090383916448        0.37343710507573
C           -1.73594189759927       -0.12043771576375       -0.29427452481075
O           -2.91987417538075       -0.21853338838565       -0.48907496570387
N           -0.89687189277269       -1.24396064054390       -0.29455120857936
C           -1.50915347317445       -2.55939201772613       -0.25107784570664
H            3.04902425642450        2.00423274470868       -0.51842531620577
H            4.28123385903281        0.89768131551014        0.34131613538409
H            1.06952574730918        0.50615350068983       -1.64581871932683
H            3.43808413919987       -1.54507768657012        0.89479561477184
H           -1.49925890831592        3.12408299776794        0.26935387886158
H           -2.88523096484385        2.14289946365163       -0.30085196437399
H           -2.38593746310992        2.07818753436986        1.39918807159572
H           -1.47948497037853       -2.97232449935789        0.75919096254296
H           -1.00300889298797       -3.22960140650008       -0.94384227038894
H           -2.55138062626401       -2.44616712765930       -0.54887545928684
H            1.23684213760166       -2.78039787908518        0.68802348450015
25
 energy: -42.196126948233 gnorm: 0.008852427875 xtb: 6.6.1 (8d0f1dd)
C            3.30935838779988        1.05772419436861       -0.08655896539444
N            2.41545421634610        0.08509460961468       -0.05962178156284
C            2.54714360108076       -1.16039336146723        0.44864162396150
N            1.37428395527235       -1.84720840706157        0.33772796534340
C            0.44298198906761       -1.08165505211800       -0.27653644545350
C            1.06525925428085        0.22608750792734       -0.58477986534195
C            0.22168397002510        1.33274144880513        0.12186005504770
O            0.72437633105305        2.29057698735926        0.64832980546305
N           -1.12338623926945        1.09144663046658        0.03384961038960
C           -2.03021169815586        2.18551425984733        0.36406276384959
C           -1.73650607091312       -0.12022103405410       -0.28979532106120
O           -2.92095628301584       -0.21966759310358       -0.47862593504068
N           -0.89664381176483       -1.24486143504372       -0.29451051957220
C           -1.50776945141772       -2.56014416572956       -0.24202695774228
H            3.04359489589630        2.01130033462071       -0.49666072988193
H            4.27484007098618        0.89684339537656        0.35412751409598
H            1.06686264737438        0.51067674838628       -1.64660351340282
H            3.44466502231319       -1.55535944608005        0.87410472684779
H           -1.49421744026518        3.12622042338578        0.26411925256678
H           -2.88026208702967        2.15032747824231       -0.31632418026878
H           -2.39425323963092        2.08452621691496        1.38718936811289
H           -1.47640911843605       -2.96440804763625        0.77179417543684
H           -1.00117711329508       -3.23508168094885       -0.92972424027144
H           -2.55023629163808       -2.45032003578916       -0.54004635138182
H            1.24195601743488       -2.79152143468318        0.66717956316161
