72
 energy: -100.173852068577 gnorm: 0.176273687410 xtb: 6.6.1 (8d0f1dd)
N           -1.47310948490000        2.74401344020000        2.22063962890000
C           -1.55658908660000        2.16490325710000        1.13274294970000
C           -2.74549250730000        2.05621270340000        0.23826252860000
C           -3.31377614600000        0.64333423480000        0.32332518650000
C           -4.30230235840000        0.24487114700000       -0.58026172470000
C           -4.85238853070000       -1.02286509430000       -0.53363598620000
O           -5.81420080700000       -1.48606061760000       -1.36157907990000
C           -6.39655751930000       -0.60827011470000       -2.29568516900000
C           -4.39972583170000       -1.94646138300000        0.44396937360000
O           -4.98748403830000       -3.16146055820000        0.41085999630000
C           -4.66362214440000       -4.10093903850000        1.40909153890000
C           -3.42072576950000       -1.54561413490000        1.33436571020000
C           -2.88302853110000       -0.26315805280000        1.27400174410000
C           -2.19303838800000        2.30467043070000       -1.18742999140000
C           -1.26651561740000        1.17243391200000       -1.65249460350000
C            0.01082525140000        1.09745474840000       -0.89354820080000
N            0.61779404940000       -0.02034948430000       -0.57705533220000
C            2.00145247490000       -0.02376006830000       -0.15611402500000
C            2.92554988940000       -0.53865292670000       -1.27700112500000
C            4.35756923930000       -0.43050765220000       -0.83075559740000
C            5.07346229610000        0.73206422670000       -1.03980985120000
C            6.38628105150000        0.84224457050000       -0.60344833900000
C            7.00047394670000       -0.20824760200000        0.05722315480000
O            8.26703810540000       -0.21011317000000        0.52410953370000
C            9.06912396130000        0.92943618280000        0.31863063920000
C            6.27040080620000       -1.40439780020000        0.28033471210000
O            6.94830068840000       -2.38012969870000        0.92752016290000
C            6.31537434930000       -3.61583267180000        1.15217733090000
C            4.96302886720000       -1.49347499580000       -0.16064433340000
C           -0.05511212390000       -1.29906271910000       -0.62085697840000
C           -3.86758108790000        3.07992657580000        0.58498071070000
C           -4.49286243030000        2.77383544520000        1.94313325540000
C           -3.39165242810000        4.52917750630000        0.54797533640000
H           -4.66030112940000        0.94509084900000       -1.31640593250000
H           -6.85038055670000        0.25803166980000       -1.80468878800000
H           -7.17287575700000       -1.18600132850000       -2.79318209390000
H           -5.66836922630000       -0.26952971320000       -3.04040311660000
H           -4.88416811300000       -3.71589529470000        2.40913586890000
H           -5.29223668820000       -4.96637550910000        1.20969259350000
H           -3.61139880150000       -4.39919916960000        1.35529382990000
H           -3.07077853590000       -2.21868806880000        2.10002701660000
H           -2.14562794240000        0.02067851080000        2.01001381680000
H           -3.02188931450000        2.38238056520000       -1.88813580090000
H           -1.65198561550000        3.25146761010000       -1.20556306940000
H           -1.81103407850000        0.23006528910000       -1.62116331710000
H           -0.99335706960000        1.37490237710000       -2.69443306970000
H           -0.67628076910000        1.65183917700000        0.61785738610000
H            0.63525852980000        1.98466406620000       -0.92314038320000
H            2.11132591670000       -0.65949705080000        0.72532626690000
H            2.30680515860000        0.98978270070000        0.11078974850000
H            2.76694250160000        0.06750736400000       -2.17075292480000
H            2.67954631090000       -1.57455657020000       -1.51167771570000
H            4.62170084310000        1.56295641050000       -1.56123607970000
H            6.92357803100000        1.75715848550000       -0.79119611400000
H            8.65159273530000        1.81001856910000        0.81701570320000
H            9.20136341880000        1.14042878990000       -0.74699005810000
H           10.03429024200000        0.69003252980000        0.76064952080000
H            7.05567305890000       -4.23621250400000        1.65347596620000
H            5.43848101970000       -3.50813623270000        1.79970599180000
H            6.02060153620000       -4.09420573090000        0.21253286580000
H            4.40102840160000       -2.40127310930000       -0.00490198340000
H           -0.22071303810000       -1.61775613620000       -1.65116039620000
H           -1.01972276930000       -1.24102740460000       -0.10935208860000
H            0.55899964520000       -2.04486123870000       -0.12333732710000
H           -4.63991961830000        2.95501147630000       -0.18098091430000
H           -3.76095286260000        2.90314758830000        2.73380871780000
H           -4.87457704480000        1.75695674120000        1.97884639820000
H           -5.31925651250000        3.45579274450000        2.12325603650000
H           -2.60025638380000        4.69225133210000        1.27368941860000
H           -3.03987462820000        4.81897741740000       -0.43870983200000
H           -4.22191819010000        5.18069744220000        0.80616708920000
H           -0.59832444890000        2.77744746490000        2.72959035090000
72
 energy: -100.251087907063 gnorm: 0.097474741015 xtb: 6.6.1 (8d0f1dd)
N           -1.50449668364590        2.79247886208650        2.23640034791800
C           -1.56710743386291        2.16039686591340        1.15865712611818
C           -2.75024393693970        2.05246384311062        0.25040820034498
C           -3.31490354720033        0.64039196203234        0.34097816418975
C           -4.29563633918990        0.23409407085760       -0.56447017080615
C           -4.84423023038052       -1.03202616872491       -0.51588568317145
O           -5.78697611900901       -1.49311564716864       -1.37541649208108
C           -6.33180815991395       -0.59830760717712       -2.32185933401943
C           -4.40128867907477       -1.95135349459895        0.46756664493294
O           -4.99026238320128       -3.17363509085955        0.43755242173326
C           -4.66330843546239       -4.10682922280371        1.43904682229956
C           -3.42961761951840       -1.54472506939131        1.36270880451397
C           -2.89307294092651       -0.26190892426368        1.29926826412153
C           -2.20127881254940        2.29339415421072       -1.17939471949898
C           -1.27710004154069        1.17169393135733       -1.67491162353122
C            0.00143116348608        1.11274579324386       -0.91337269170374
N            0.62823332847897       -0.04381514357412       -0.58549690375042
C            2.00248246011291       -0.03238493496212       -0.17390650252795
C            2.93594956648631       -0.53819377806575       -1.29140480187007
C            4.36211463113042       -0.43226349401299       -0.84539010345240
C            5.07904055567371        0.73226185926025       -1.04533172807924
C            6.38905218993493        0.84128593763817       -0.60309393355426
C            6.99994152983737       -0.21175879271314        0.05592917436634
O            8.27293624043162       -0.21715393685968        0.52742317658468
C            9.07177079859829        0.92267042233618        0.32572044456610
C            6.26941631394575       -1.40563652138981        0.27462114783366
O            6.94886801529510       -2.38691514394660        0.92337938570641
C            6.31246356021374       -3.62034551335507        1.14375934802241
C            4.96523776468172       -1.49508030914910       -0.17149484462178
C           -0.04944757615920       -1.31189745318254       -0.63850255136753
C           -3.88326367511543        3.06604962965660        0.57981218869324
C           -4.51085665729423        2.77005613521656        1.93990220901606
C           -3.41683556233551        4.51891278742664        0.53424858674453
H           -4.64194619092647        0.92656295054444       -1.31432648896711
H           -6.78243777122733        0.25354164313040       -1.85541579388713
H           -7.10690804960301       -1.19354311634225       -2.82956239812762
H           -5.56969567823155       -0.00746357157513       -2.96005883488435
H           -4.88420516495313       -3.72008610682236        2.43904123901859
H           -5.28990116979014       -4.97498786603982        1.24243100429041
H           -3.61008259028002       -4.40305581906544        1.38765732882242
H           -3.08079317918422       -2.21533529485773        2.13236394503477
H           -2.15691189618085        0.02583344632800        2.03366995283640
H           -3.03440087221607        2.38192750648970       -1.87666417777253
H           -1.65413339523023        3.23750043180305       -1.19602101273670
H           -1.81576448388421        0.22558439995244       -1.62554726379526
H           -1.03937216987755        1.37350061485095       -2.72721743208936
H           -0.68708698671031        1.64579199961819        0.66857673855396
H            0.63257145865615        1.98861873894021       -0.96249914659999
H            2.11530616734441       -0.66203102920163        0.71248725319095
H            2.29451428808758        0.98672492062453        0.09196924194769
H            2.77289163267358        0.07118010446836       -2.18190636802656
H            2.68484209845107       -1.57253900597812       -1.52764577056253
H            4.62707588350252        1.56475665228854       -1.56365827823636
H            6.92807495600200        1.75673545645681       -0.78703339263744
H            8.65255120390138        1.80293256053885        0.82422032974955
H            9.20705825443846        1.13704148591023       -0.73939426721005
H           10.03579487048325        0.68220888675534        0.77025690928139
H            7.05146579009946       -4.24265038108715        1.64551511360663
H            5.43392192521137       -3.51303948691971        1.78927544895513
H            6.01770898965106       -4.09729434579877        0.20298387458500
H            4.40051145983256       -2.40178430783190       -0.01718729870763
H           -0.22228093324008       -1.62710167321098       -1.67184827682012
H           -1.01336679830980       -1.25242082911809       -0.12470570668057
H            0.56536875095930       -2.05844691362114       -0.14426878201517
H           -4.65444305641278        2.93405420834559       -0.18735627624947
H           -3.77699059661240        2.90717662385029        2.72773719041300
H           -4.88580256820935        1.75037604136875        1.98227965909576
H           -5.34194304443956        3.44946075147493        2.11414566250503
H           -2.62402633413389        4.68806125549849        1.25698351077191
H           -3.06498625293200        4.80091473287147       -0.45500445032968
H           -4.25118980461987        5.16902642977403        0.78741487860253
H           -0.62629362617659        2.81001060463897        2.74334849820510
72
 energy: -100.310201506384 gnorm: 0.058116246569 xtb: 6.6.1 (8d0f1dd)
N           -1.54492477069027        2.84872979819472        2.24322503816517
C           -1.57581333115795        2.16408028197111        1.18424803493875
C           -2.75517171605631        2.04596810553707        0.26467022289411
C           -3.31206363090845        0.63374480198756        0.36433445622989
C           -4.28267886118086        0.21974713257550       -0.54333754400646
C           -4.82805221652544       -1.04506653582643       -0.49765363593028
O           -5.74764983177394       -1.48627595397441       -1.40067699702509
C           -6.24073426782717       -0.56183232819555       -2.35061735026991
C           -4.40385552147056       -1.95853057414083        0.49737878879664
O           -4.99363915723025       -3.18796168499280        0.47356128459184
C           -4.66288961181583       -4.11380674508372        1.47908830017825
C           -3.44189636143339       -1.54487707169266        1.40064833749430
C           -2.90406656113246       -0.26320019053934        1.33337581692808
C           -2.21127376422121        2.28300914593391       -1.16933934786372
C           -1.29363656446523        1.16401850863991       -1.68832813964037
C           -0.00790480380669        1.11913033710982       -0.94158222579958
N            0.63239863745789       -0.06102403211592       -0.60477704475045
C            1.99892323224561       -0.03564447934020       -0.19799943380120
C            2.94554941670192       -0.53614686827032       -1.30978251511010
C            4.36657048939390       -0.43282394472782       -0.85952492839288
C            5.08615614256366        0.73186613568274       -1.05133101476024
C            6.39421157219158        0.83941010082971       -0.60289082498871
C            6.99993972253967       -0.21658190764814        0.05381626678105
O            8.27752871201819       -0.22603799138523        0.53045546524123
C            9.07450550643832        0.91349029995491        0.33539869506081
C            6.26900149129514       -1.40792437803329        0.26617470345287
O            6.94808391397774       -2.39510364902522        0.91632074195867
C            6.30810973397843       -3.62623100489577        1.13176774539215
C            4.96715875162550       -1.49667922759309       -0.18577371797257
C           -0.04541216361869       -1.32229322487181       -0.66531899104892
C           -3.90108005279976        3.04813675069482        0.57532461064227
C           -4.53453508514891        2.76335571004355        1.93593367682135
C           -3.45004769140701        4.50614388318234        0.51512370221637
H           -4.61455319669798        0.90577739241010       -1.30495821098858
H           -6.72915844814028        0.26301084521140       -1.89762386798289
H           -6.98566782520224       -1.18433202627212       -2.88732188707976
H           -5.44636316911876        0.26351814795389       -2.87428336676199
H           -4.88484936568289       -3.72576487909139        2.47900421840076
H           -5.28642248239790       -4.98580270173661        1.28655319163506
H           -3.60856667551141       -4.40814898869357        1.43092570462814
H           -3.09611351216771       -2.21103488325427        2.17646880153629
H           -2.17218657414596        0.03055343967823        2.06890421717245
H           -3.05103740082142        2.38440330915023       -1.85951007032786
H           -1.65686848789110        3.22336783182182       -1.18353161896368
H           -1.82461705162923        0.21377798456318       -1.62807277868185
H           -1.09461120795691        1.36946427639129       -2.75098456639956
H           -0.69996002892254        1.63426411941775        0.73582249664765
H            0.62987851512722        1.98396896936254       -1.00385782554881
H            2.12042538143660       -0.66221838780661        0.69272639304358
H            2.28103239487668        0.98673793782616        0.06845327166280
H            2.78183950340033        0.07641572648838       -2.19793878906016
H            2.69154093108358       -1.56931606695934       -1.55072452876151
H            4.63460072174883        1.56633720360685       -1.56690525075249
H            6.93440846910369        1.75586420216143       -0.78084571038256
H            8.65417459583575        1.79333772168442        0.83450448047509
H            9.21528079666325        1.13253370674786       -0.72859863562892
H           10.03700911144101        0.67163481102124        0.78335832185244
H            7.04519443056029       -4.25107350486848        1.63404221149602
H            5.42783100779466       -3.51990230298860        1.77522749830773
H            6.01425276452984       -4.10174986566116        0.18962128148548
H            4.39942782604385       -2.40229275275980       -0.03461526391051
H           -0.22512304846416       -1.63820891169344       -1.69968719300764
H           -1.00739167514664       -1.26892663996189       -0.14679377004118
H            0.57220297961986       -2.07135639015656       -0.17570673933181
H           -4.66926083889659        2.90258017559389       -0.19386466116643
H           -3.80129579760921        2.91325698325484        2.72182466371830
H           -4.90222422747819        1.74100238904421        1.98789556729528
H           -5.37100459918335        3.43925536922475        2.10039481250238
H           -2.65719678352169        4.68506870534144        1.23500148806032
H           -3.09975012323519        4.77840755624153       -0.47757916162484
H           -4.29016968778956        5.15197950427358        0.76172451826382
H           -0.66362017851259        2.85011350064839        2.75152531859731
72
 energy: -100.346582712364 gnorm: 0.042581701328 xtb: 6.6.1 (8d0f1dd)
N           -1.58217597903334        2.89270714344050        2.24886187344411
C           -1.58545072620114        2.17678460526378        1.20783690967601
C           -2.75956236332112        2.04006967554413        0.28030631381043
C           -3.30393029616710        0.62681806251234        0.39415580010831
C           -4.26375192586514        0.20836227660825       -0.51546966159716
C           -4.80690796320692       -1.05484702645797       -0.47818664774878
O           -5.70107214127514       -1.46142505186451       -1.42610138267963
C           -6.14194099058685       -0.50697694540798       -2.37815293727827
C           -4.40551144586457       -1.96603020276954        0.52772841931461
O           -4.99548592197210       -3.19936856660548        0.51152814585578
C           -4.66266131972240       -4.11994162811501        1.52137882296933
C           -3.45368837230535       -1.54569187890638        1.44107511867643
C           -2.91131636575347       -0.26599704042893        1.37286003549274
C           -2.22156694919811        2.27327830602884       -1.15776227169398
C           -1.31304084402306        1.15454772199448       -1.69730366279762
C           -0.01620716282619        1.11514168116687       -0.97519595028157
N            0.63030763832039       -0.07055275265927       -0.63093217282038
C            1.99456984970230       -0.03653472101585       -0.22290185564285
C            2.95233397294063       -0.53281114349890       -1.33033351589986
C            4.37079194184384       -0.43216675315705       -0.87241012716133
C            5.09332741458693        0.73228492410521       -1.05695136492824
C            6.39985904069151        0.83775561670149       -0.60278075259388
C            7.00122890115593       -0.22185204119799        0.05166710300489
O            8.27949148308765       -0.23519755483465        0.53282828312188
C            9.07740685020018        0.90374406787666        0.34620966149413
C            6.26887598260061       -1.41209063318505        0.25702283660508
O            6.94536881055144       -2.40324794472710        0.90722954702673
C            6.30303477699306       -3.63314619577391        1.11799478770492
C            4.96848858135824       -1.49877100664890       -0.20050775765890
C           -0.04214219506234       -1.33261018119812       -0.69482752221420
C           -3.92037096435077        3.03017980722245        0.57257841193785
C           -4.55986076169035        2.75550242930044        1.93252707029911
C           -3.48593352614144        4.49258247494453        0.49469274503079
H           -4.57983171413229        0.88896589990125       -1.28613866942795
H           -6.69690386794591        0.28002584383628       -1.93762835707081
H           -6.84667044156213       -1.15338649248101       -2.95288535206559
H           -5.32225040497085        0.46896884839608       -2.81753304047597
H           -4.88629797608757       -3.73111738063896        2.52098804620380
H           -5.28271783970271       -4.99591691628409        1.33311789842602
H           -3.60742605636882       -4.41276449514418        1.47688071300907
H           -3.11543927354762       -2.20666098571087        2.22486060262459
H           -2.18693910761463        0.03310489479766        2.11302762753082
H           -3.06668829659630        2.38661484860259       -1.84030672355056
H           -1.66006214920492        3.20908774500346       -1.17058802629370
H           -1.83761004360082        0.20175689249552       -1.62939223957261
H           -1.14683654166043        1.36387558341369       -2.76751147673252
H           -0.71172203673402        1.62578427458715        0.80319203639986
H            0.62323771808263        1.97686364337684       -1.04145772936875
H            2.12335798290903       -0.66138956840086        0.67013850874808
H            2.26923301983772        0.98767158928094        0.04329963715055
H            2.79265622816577        0.08255046031379       -2.21733397343402
H            2.69885588413375       -1.56522298867691       -1.57636919100753
H            4.64340825930836        1.56893801402809       -1.57056792352420
H            6.94092257971332        1.75490934649732       -0.77438805493763
H            8.65607443573274        1.78269998677535        0.84642705943664
H            9.22442530052801        1.12760497442824       -0.71625813260663
H           10.03793597834981        0.65988500397588        0.79798108192817
H            7.03803013629255       -4.26039277596149        1.62076584475157
H            5.42114957831347       -3.52764384668890        1.75949753337712
H            6.01067548942824       -4.10676132298728        0.17428063411664
H            4.39860363381492       -2.40380638590094       -0.05395867479134
H           -0.22682751641925       -1.64797842111114       -1.72930479479394
H           -1.00193271851304       -1.28746776394884       -0.17103045761429
H            0.57987001839394       -2.08377696072153       -0.21116672899128
H           -4.68334981099662        2.86645605912064       -0.19930279151375
H           -3.83025803807000        2.92008481468951        2.71860946157764
H           -4.92020371381665        1.73089879510764        1.99408524423674
H           -5.40212429104789        3.42708288255775        2.08504735226617
H           -2.69421507783201        4.68501242636472        1.21196512476730
H           -3.13861410866684        4.75488771941989       -0.50170328105604
H           -4.33263606450522        5.13240228520256        0.73378884297617
H           -0.70148778197497        2.89694665542788        2.76069480352764
72
 energy: -100.365312934167 gnorm: 0.028054927199 xtb: 6.6.1 (8d0f1dd)
N           -1.60985474402000        2.92705148528841        2.25202366395520
C           -1.59378911900713        2.19247074060598        1.22767375954677
C           -2.76166047754311        2.03538124112706        0.29556494130003
C           -3.29200843077923        0.62109535681698        0.42685150446678
C           -4.24301088284987        0.20006489640198       -0.48364226758914
C           -4.78633250934874       -1.06164328353275       -0.45969424708557
O           -5.65630294155542       -1.43218520924878       -1.44586095553409
C           -6.05853750155877       -0.46433296157463       -2.40390251392818
C           -4.40608495434962       -1.97235600177462        0.55396625726362
O           -4.99569109678162       -3.20725120603875        0.54606521869155
C           -4.66227841690007       -4.12414507980799        1.56004164964832
C           -3.46367495963381       -1.54587299770843        1.47756907091021
C           -2.91417479688209       -0.26912768456567        1.41296797229015
C           -2.22963976808612        2.26507158712301       -1.14612800344420
C           -1.33190177479907        1.14463025504632       -1.70244259274164
C           -0.02174546170562        1.10449189539852       -1.01005173549031
N            0.62556946520359       -0.07515766881967       -0.65702751373333
C            1.99063428755262       -0.03578641318582       -0.24570634863063
C            2.95654301296275       -0.52917585557645       -1.34942312092918
C            4.37396557047924       -0.43088375619069       -0.88326115153300
C            5.09921579141723        0.73307191964891       -1.06165660778066
C            6.40456914661558        0.83608532591277       -0.60288546094896
C            7.00281099140050       -0.22678162510553        0.04957650501097
O            8.27943322918676       -0.24362502851516        0.53427136888336
C            9.07992433367040        0.89470234226826        0.35620845286608
C            6.26838878708394       -1.41683849353465        0.24839272244491
O            6.94161764520401       -2.41036533835564        0.89766893445551
C            6.29798111625900       -3.63995628207370        1.10459000337458
C            4.96894002143997       -1.50069310526121       -0.21376021641543
C           -0.03957442881225       -1.34190037282884       -0.72241403595961
C           -3.93688301498307        3.01434429746452        0.57173824167141
C           -4.58274963350317        2.74840832147707        1.93006862192312
C           -3.51931406734125        4.48040146325218        0.47617872264026
H           -4.54557456648041        0.87619380586543       -1.26028072030582
H           -6.66451448365552        0.29378715933298       -1.99399710907690
H           -6.72187497871768       -1.12316953536164       -3.01625924599876
H           -5.22091442567129        0.63307650313493       -2.78056644173945
H           -4.88845205170043       -3.73450424719824        2.55890076835217
H           -5.27945179305350       -5.00313392821881        1.37485737885373
H           -3.60639576351800       -4.41560804921138        1.51887761988551
H           -3.13578087598309       -2.20267530361925        2.26926160588938
H           -2.19814254384001        0.03251446235731        2.15971024887681
H           -3.07878380184626        2.38914271091685       -1.82161562990982
H           -1.66169011258721        3.19653153433470       -1.15858812991367
H           -1.85232351720234        0.19052590718174       -1.62895414979731
H           -1.19154764415714        1.35783340737740       -2.77660151690864
H           -0.72021870579608        1.62383569597192        0.86282123535232
H            0.61347057732211        1.96959892784389       -1.07073192403631
H            2.12232529351330       -0.65967959197647        0.64783558150105
H            2.25953488293774        0.98960617521473        0.01983492128678
H            2.80321006481276        0.08859162980114       -2.23582391630751
H            2.70534538855395       -1.56101092905090       -1.60029224795051
H            4.65174249880845        1.57183643969723       -1.57403523827194
H            6.94660474213815        1.75354078112147       -0.76889115307828
H            8.65773172149010        1.77252583395943        0.85775550023085
H            9.23288216061182        1.12279370212805       -0.70460684881189
H           10.03820315918843        0.64825619327469        0.81167441580836
H            7.03116192752867       -4.26906623623549        1.60777935285677
H            5.41476498088709       -3.53509121680384        1.74443974330282
H            6.00727882685456       -4.11166539796855        0.15941102298447
H            4.39790464610347       -2.40572132403261       -0.07220123450914
H           -0.22790144712681       -1.65493219436285       -1.75681799284493
H           -0.99711200975641       -1.30514126990500       -0.19340354459336
H            0.58796166769171       -2.09323313082636       -0.24507015668032
H           -4.69404528749163        2.83187441579176       -0.20222508598042
H           -3.85897074286400        2.92679901399859        2.71821923322564
H           -4.93650030545352        1.72210744298642        1.99996679968660
H           -5.43072936403628        3.41530972915767        2.07049386357976
H           -2.72928988023846        4.68807565892494        1.19080881901053
H           -3.17542818268079        4.73363536701007       -0.52360446211331
H           -4.37254189583730        5.11381660694722        0.70791847309620
H           -0.73442417588575        2.94292319350942        2.77292606225232
72
 energy: -100.370868001436 gnorm: 0.017833199228 xtb: 6.6.1 (8d0f1dd)
N           -1.62432186043672        2.95471550899389        2.25177190341874
C           -1.59918855405407        2.20348312246905        1.24188502390370
C           -2.76143493554420        2.03264617118307        0.30720701831641
C           -3.28260039279364        0.61807691947895        0.45181828765742
C           -4.22897189092610        0.19498164981582       -0.45893069246614
C           -4.77419730323026       -1.06536818844337       -0.44671664547510
O           -5.62439358398296       -1.41234198839652       -1.45744653572654
C           -6.00542414354021       -0.44564276070379       -2.42057071774865
C           -4.40700823755797       -1.97595514796206        0.57080790373699
O           -4.99504201138226       -3.21136124301244        0.56924604937010
C           -4.66183314684755       -4.12586594211434        1.58641406385430
C           -3.47106753058226       -1.54495586270913        1.50162482677196
C           -2.91488235004322       -0.27102694158929        1.44262127512993
C           -2.23343753155755        2.25906340674663       -1.13689625848005
C           -1.34500785304752        1.13705275286987       -1.70552605806902
C           -0.02351860593385        1.09338045514980       -1.03827010772904
N            0.62134977614430       -0.07672680976399       -0.67429249772798
C            1.98804941244081       -0.03493492317596       -0.26141545800170
C            2.95842943587752       -0.52639163372444       -1.36243996218276