72
 energy: 0.000000000000 xtb: 6.6.1 (8d0f1dd)
N           -1.47310921155849        2.74401293103706        2.22063921685122
C           -1.55658879776851        2.16490285539332        1.13274273951491
C           -2.74549199786261        2.05621232186130        0.23826248438941
C           -3.31377553111525        0.64333411542669        0.32332512650568
C           -4.30230156009016        0.24487110156316       -0.58026161703006
C           -4.85238763031941       -1.02286490450319       -0.53363588718165
O           -5.81419972815119       -1.48606034185536       -1.36157882725342
C           -6.39655633239252       -0.60827000183299       -2.29568474302620
C           -4.39972501531283       -1.94646102182611        0.44396929121966
O           -4.98748311285188       -3.16145997157803        0.41085992006324
C           -4.66362127904578       -4.10093827755394        1.40909127743729
C           -3.42072513477031       -1.54561384810496        1.33436546260297
C           -2.88302799614223       -0.26315800396994        1.27400150770375
C           -2.19303798107274        2.30467000305896       -1.18742977106749
C           -1.26651538239283        1.17243369445008       -1.65249429687285
C            0.01082524939134        1.09745454476277       -0.89354803499847
N            0.61779393476578       -0.02034948052406       -0.57705522512502
C            2.00145210352228       -0.02376006389122       -0.15611399603240
C            2.92554934655222       -0.53865282675074       -1.27700088804721
C            4.35756843073516       -0.43050757231754       -0.83075544324989
C            5.07346135469827        0.73206409086248       -1.03980965825901
C            6.38627986649936        0.84224441421807       -0.60344822702769
C            7.00047264773336       -0.20824756335880        0.05722314418200
O            8.26703657141718       -0.21011313101264        0.52410943644933
C            9.06912227848686        0.92943601033931        0.31863058007678
C            6.27039964270142       -1.40439753960823        0.28033466008274
O            6.94829939911432       -2.38012925705718        0.92751999079483
C            6.31537317745639       -3.61583200086742        1.15217711710877
C            4.96302794628964       -1.49347471867959       -0.16064430359178
C           -0.05511211367372       -1.29906247805359       -0.62085686319744
C           -3.86758037025447        3.07992600430699        0.58498060215443
C           -4.49286159663096        2.77383493050346        1.94313289484366
C           -3.39165179876499        4.52917666589254        0.54797523472093
H           -4.66030026466202        0.94509067363451       -1.31640568823548
H           -6.85037928558380        0.25803162192116       -1.80468845313260
H           -7.17287442604349       -1.18600110843259       -2.79318157561361
H           -5.66836817451085       -0.26952966318766       -3.04040255244073
H           -4.88416720672258       -3.71589460520039        2.40913542187496
H           -5.29223570620378       -4.96637458756866        1.20969236903657
H           -3.61139813139015       -4.39919835331056        1.35529357841967
H           -3.07077796610445       -2.21868765711333        2.10002662693138
H           -2.14562754426994        0.02067850696302        2.01001344383370
H           -3.02188875377605        2.38238012313952       -1.88813545054866
H           -1.65198530896729        3.25146700677685       -1.20556284570283
H           -1.81103374245520        0.23006524641044       -1.62116301628650
H           -0.99335688527853        1.37490212198123       -2.69443256973690
H           -0.67628064361333        1.65183887049447        0.61785727145403
H            0.63525841192517        1.98466369793744       -0.92314021190751
H            2.11132552493482       -0.65949692842762        0.72532613231274
H            2.30680473056284        0.98978251704176        0.11078972794250
H            2.76694198818247        0.06750735147374       -2.17075252200790
H            2.67954581369920       -1.57455627803457       -1.51167743520200
H            4.62169998552446        1.56295612048703       -1.56123579000624
H            6.92357674630170        1.75715815945204       -0.79119596719031
H            8.65159112996149        1.81001823324363        0.81701555159939
H            9.20136171144928        1.14042857828877       -0.74698991949293
H           10.03428838009630        0.69003240176163        0.76064937965836
H            7.05567174969094       -4.23621171795340        1.65347565939075
H            5.43848001056755       -3.50813558175093        1.79970565785717
H            6.02060041905269       -4.09420497120334        0.21253282636366
H            4.40102758497114       -2.40127266373392       -0.00490198249042
H           -0.22071299714579       -1.61775583601871       -1.65116008982042
H           -1.01972258008625       -1.24102717432227       -0.10935206830928
H            0.55899954147532       -2.04486085926761       -0.12333730421426
H           -4.63991875734388        2.95501092798550       -0.18098088071825
H           -3.76095216473977        2.90314704960906        2.73380821053058
H           -4.87457614030224        1.75695641518947        1.97884603101694
H           -5.31925552549014        3.45579210326349        2.12325564252114
H           -2.60025590131176        4.69225046143352        1.27368918226171
H           -3.03987406413880        4.81897652321898       -0.43870975059559
H           -4.22191740670577        5.18069648090034        0.80616693961239
H           -0.59832433787845        2.77744694953323        2.72958984441332
72
 energy: 0.000000000000 xtb: 6.6.1 (8d0f1dd)
N           -1.49301555697039        2.77522588926890        2.23214514867509
C           -1.56339002370791        2.16119851400953        1.14906559043916
C           -2.74943203355419        2.05323240728972        0.24823256281549
C           -3.31488048190292        0.64001856515986        0.34265300826650
C           -4.29422814139329        0.23221908258153       -0.56178568352692
C           -4.84472818755560       -1.03153598376265       -0.51669879975415
O           -5.78573486079460       -1.49310561858648       -1.37612915528742
C           -6.33474076535126       -0.59894996231550       -2.32081042683617
C           -4.40095640721115       -1.95035422956444        0.46299715894345
O           -4.98975284111965       -3.17143297569368        0.43247289809124
C           -4.66335841947042       -4.10591758808134        1.43418879244899
C           -3.42799578401215       -1.54476557127179        1.35760024892089
C           -2.89216152973047       -0.26192645338610        1.29675362653207
C           -2.19896752796287        2.29629110935628       -1.18166921379261
C           -1.27268901497988        1.17208289405881       -1.66756968894362
C           -0.00034020543159        1.11440691567058       -0.91800982470184
N            0.62619841875165       -0.03813719892878       -0.58267984177753
C            2.00238099629484       -0.03085423923656       -0.16900538791702
C            2.93341241864609       -0.53836006903806       -1.28749963682534
C            4.36018068372995       -0.43168940441778       -0.83918685216949
C            5.07731031003340        0.73223717690046       -1.04369911948262
C            6.38952599918591        0.84111506953539       -0.60306642245104
C            6.99994058569658       -0.21169033336530        0.05595650512830
O            8.27120997555813       -0.21478592690939        0.52640584218706
C            9.07139204985960        0.92374663665173        0.32458980973784
C            6.26938364511722       -1.40573723026650        0.27420129183052
O            6.94886661518753       -2.38699900212551        0.92331821241770
C            6.31249070836150       -3.62030381420413        1.14383912388839
C            4.96486801576746       -1.49479698866726       -0.16936887054753
C           -0.05042043815679       -1.30957705672018       -0.63448735070641
C           -3.87850172910045        3.07042177499178        0.58125720276212
C           -4.50674256107861        2.77100720119649        1.94062299875298
C           -3.41254382781829        4.52062218460163        0.53663626010235
H           -4.64138104610170        0.92607144961991       -1.31422894745159
H           -6.80108230198447        0.25401079009175       -1.84123487924180
H           -7.08494167711942       -1.19310477504225       -2.84054980143221
H           -5.60530366255943       -0.09739701982143       -2.98787029601925
H           -4.88419353080086       -3.71934361599133        2.43377489546789
H           -5.29036141386511       -4.97338854789945        1.23619348681863
H           -3.61028468698036       -4.40242781886433        1.38236903439074
H           -3.07951280519611       -2.21573355109487        2.12841826035723
H           -2.15769175145685        0.02611780050000        2.03538381799667
H           -3.03298334330874        2.38193589314603       -1.87802816982470
H           -1.65355229259547        3.24100853730892       -1.19862290320655
H           -1.81774540169648        0.22312802477371       -1.62634218335968
H           -1.02276485877793        1.37411157930985       -2.71692138245363
H           -0.68565248635444        1.64675122267695        0.66154262455520
H            0.63350844510215        1.98796513227988       -0.94859740825779
H            2.11518791123602       -0.66201982506258        0.71290225123103
H            2.29777721230448        0.98703511404315        0.09717614840863
H            2.77270105988760        0.07106570531357       -2.18155720528886
H            2.68434060757117       -1.57274966316054       -1.52604409092568
H            4.62672140527816        1.56466220484877       -1.56350171558065
H            6.92748618752527        1.75679892335734       -0.78758909037620
H            8.65246546750038        1.80349779892947        0.82363157641528
H            9.20653446098009        1.13734091241440       -0.74008576019385
H           10.03568172872035        0.68294836824053        0.76934503172438
H            7.05166652769804       -4.24235868470735        1.64589127407260
H            5.43432360631467       -3.51259692151604        1.79019966426776
H            6.01781600004398       -4.09716714221610        0.20336926978517
H            4.40055814875112       -2.40174997837463       -0.01622295883048
H           -0.22199520728973       -1.62564378009638       -1.66846073865851
H           -1.01388741884535       -1.25128143947633       -0.12317510239505
H            0.56470697259360       -2.05711253151458       -0.14175845194349
H           -4.65295760931430        2.93658395838120       -0.18670437657330
H           -3.77668792636271        2.90710037549091        2.72782714670094
H           -4.88450192533698        1.75112919420870        1.98186328942837
H           -5.33795669726196        3.45066930914302        2.11584537806084
H           -2.62156386842989        4.68837585871666        1.25867077324660
H           -3.06103640330603        4.80363934654880       -0.45244098874783
H           -4.24782772407874        5.17041763386887        0.78959371240756
H           -0.62347744539242        2.80684065118095        2.74241004179480
72
 energy: 0.000000000000 xtb: 6.6.1 (8d0f1dd)
N           -1.51411275397608        2.80648116185451        2.23852662479405
C           -1.56957955625203        2.16076803316661        1.16572670487072
C           -2.75293733898669        2.04911552109777        0.25790684934995
C           -3.31255948924742        0.63452934672495        0.36143495453945
C           -4.28328722272145        0.22024469076244       -0.54428098374615
C           -4.83331453019750       -1.04148399168652       -0.50294316403507
O           -5.75827369133497       -1.48901391644605       -1.39398631967150
C           -6.27430069021241       -0.57757158462196       -2.34058767877438
C           -4.40254653816064       -1.95472055548005        0.48188953407610
O           -4.99199181184459       -3.18070543696033        0.45440956907957
C           -4.66307807149535       -4.11050120056935        1.45936116520186
C           -3.43551256441708       -1.54476522264527        1.38076801139091
C           -2.90028206575365       -0.26251648574871        1.31994229496990
C           -2.20539921130504        2.28886027402986       -1.17532809637322
C           -1.28122308000427        1.17043812479959       -1.67940440386317
C           -0.00981756053417        1.11888390832031       -0.94844416877344
N            0.63097995688196       -0.05312266063686       -0.59356000380723
C            2.00170012404775       -0.03402365832237       -0.18275428464960
C            2.94016057697617       -0.53758389998704       -1.29863751464296
C            4.36281694501928       -0.43239625948636       -0.84763800199757
C            5.08135066524604        0.73216024633214       -1.04736737669993
C            6.39276802436029        0.83990768892638       -0.60293152038453
C            6.99993859833684       -0.21509227723214        0.05446976372534
O            8.27470114362869       -0.21997674903646        0.52848957837990
C            9.07321019705878        0.91798565112236        0.33062427031793
C            6.26905164734150       -1.40733182749105        0.26803367760690
O            6.94836541399395       -2.39320114260628        0.91814265404412
C            6.30943806613354       -3.62445542753327        1.13539762601501
C            4.96623591741872       -1.49583856166727       -0.17820600276822
C           -0.04743987603672       -1.31686980268872       -0.65003342235834
C           -3.88905206166320        3.06034909665365        0.57817680514953
C           -4.52046974198096        2.76750731325679        1.93822855447056
C           -3.43332991180949        4.51250962340639        0.52480257836444
H           -4.62079767537414        0.90978086417593       -1.30755439389556
H           -6.75199673214653        0.25721207847895       -1.87810631277357
H           -6.99429832803395       -1.18531097453948       -2.88324694859281
H           -5.53624394293683        0.07206338205555       -2.93473802323640
H           -4.88441695721855       -3.72286889584524        2.45840252974201
H           -5.28832235468778       -4.98009617528141        1.26276127800755
H           -3.60927191073446       -4.40567464826789        1.40944739988907
H           -3.08896650121761       -2.21293530181452        2.15659518950316
H           -2.16920196804282        0.02983075221574        2.06136201909838
H           -3.04359090749716        2.38301352386863       -1.86750234148566
H           -1.65526641165795        3.23130945943149       -1.19079098746695
H           -1.82440332795675        0.21401841097078       -1.62803837321252
H           -1.05440274366233        1.37268012528628       -2.73475369200239
H           -0.69423068340074        1.63953225638442        0.70506959501692
H            0.63187901554336        1.98805909487157       -0.97406579926375
H            2.11879205148953       -0.66219070642315        0.70015064918873
H            2.28920793197510        0.98672665235327        0.08314885526860
H            2.77865864485637        0.07457823430083       -2.19226848529928
H            2.68864142230246       -1.57078486119876       -1.54054194953143
H            4.63190849487581        1.56576202269826       -1.56575825712351
H            6.93130464027587        1.75631435010556       -0.78390292073913
H            8.65350675762400        1.79713521385358        0.83037460585560
H            9.21179869890406        1.13441713827464       -0.73318008522778
H           10.03658305086609        0.67586763473363        0.77810369964374
H            7.04743445759881       -4.24812686597615        1.63813743631186
H            5.43020886497001       -3.51719247208079        1.78073994313305
H            6.01537489065924       -4.10024202172257        0.19414606241130
H            4.39985843800530       -2.40206135048340       -0.02753966785719
H           -0.22377255893718       -1.63295438448006       -1.68596947149509
H           -1.00974096560800       -1.26182958282404       -0.13734115599520
H            0.56935527499148       -2.06619614346671       -0.16204437328829
H           -4.66327594134689        2.91633996186836       -0.19129419782144
H           -3.79292831776109        2.91119105467605        2.72343220924218
H           -4.89440766561725        1.74543891392618        1.98518276370199
H           -5.35604390434217        3.44472548544076        2.10765289819024
H           -2.64333324239384        4.68580564407113        1.24402501418627
H           -3.08261975455339        4.78925530215530       -0.46651935711945
H           -4.27334846567435        5.15948081706902        0.77284554203779
H           -0.65086435663572        2.83611616104320        2.74891753489638
72
 energy: 0.000000000000 xtb: 6.6.1 (8d0f1dd)
N           -1.53654976955018        2.83775935584105        2.24196857476367
C           -1.57520181686461        2.16369265821742        1.18258081627439
C           -2.75610713777392        2.04476043413099        0.26763746098153
C           -3.30830886403537        0.62989052445151        0.38002218640728
C           -4.27079484358481        0.21197174999012       -0.52580519868261
C           -4.81984988909699       -1.04940502524115       -0.48979777094682
O           -5.73170643202663       -1.47985204959931       -1.40988762836777
C           -6.21568031256783       -0.54906917385531       -2.35777443195324
C           -4.40407753141495       -1.95935013652492        0.50072732116694
O           -4.99384275997107       -3.18903190344344        0.47671623387675
C           -4.66285277275509       -4.11467443140060        1.48460286871272
C           -3.44291014003339       -1.54490913767992        1.40397188635495
C           -2.90639255525471       -0.26379795155921        1.34361254280170
C           -2.21214469855706        2.28215493869252       -1.16841373007916
C           -1.29337580232393        1.16414291782396       -1.68817124887113
C           -0.01703297269898        1.11429139639088       -0.97948627545144
N            0.63223921317310       -0.06373768253272       -0.61030645588092
C            1.99906732588187       -0.03559200435051       -0.19711930966323
C            2.94578289181486       -0.53607000354868       -1.31036037624283
C            4.36548272688446       -0.43277895525190       -0.85611918135215
C            5.08556475105855        0.73187350333634       -1.05085105765643
C            6.39605976680922        0.83885318158228       -0.60284124186108
C            7.00019263660218       -0.21846282128645        0.05304126486170
O            8.27743186671452       -0.22573931798677        0.53036639860359
C            9.07487279025728        0.91225549662996        0.33674200754282
C            6.26894333966492       -1.40958317938338        0.26211333097028
O            6.94714213618761       -2.39877227444658        0.91247758249138
C            6.30635247232390       -3.62862215122120        1.12697421035439
C            4.96730112498057       -1.49684819002815       -0.18709640956880
C           -0.04523579754191       -1.32280320535567       -0.66671132649688
C           -3.89935872117096        3.04982177960931        0.57565549269971
C           -4.53410253443556        2.76348307693841        1.93599797993254
C           -3.45410444059576        4.50459664584692        0.51280021973109
H           -4.59920626129055        0.89759616078291       -1.29756045409721
H           -6.71001075529872        0.27241381915534       -1.91947867424649
H           -6.90496471798860       -1.16811569971934       -2.92507969762887
H           -5.45926975606064        0.23833903779797       -2.88181149888608
H           -4.88494335828578       -3.72630902998775        2.48303692473765
H           -5.28619536578725       -4.98645845200917        1.28940535144874
H           -3.60840801796710       -4.40875911764957        1.43654746451480
H           -3.09914466015286       -2.21028696441977        2.18452379022165
H           -2.17912846310408        0.03208356664538        2.08809321555449
H           -3.05367434888115        2.38477261479511       -1.85651130210866
H           -1.65714837562357        3.22206540415969       -1.18236624936737
H           -1.83240722754737        0.20620236562521       -1.62912310589133
H           -1.08849457565562        1.36999337665363       -2.74872819697333
H           -0.70231405695713        1.63232892411297        0.74871403863915
H            0.63026726333399        1.98460558899982       -0.99950393638022
H            2.12141724904477       -0.66214298958721        0.68718115952840
H            2.28117133726303        0.98673746855803        0.06872234895457
H            2.78464789374015        0.07802099878936       -2.20298520964068
H            2.69279048246507       -1.56865957817167       -1.55506522294157
H            4.63709056252196        1.56699648338954       -1.56795051597170
H            6.93508211004608        1.75576968407374       -0.78017964491480
H            8.65460706897714        1.79088747086748        0.83721551541204
H            9.21705198714514        1.13157666725803       -0.72623109179800
H           10.03727741564596        0.66880135884370        0.78689771126914
H            7.04316014937935       -4.25374686820258        1.63029469984279
H            5.42614455756289       -3.52183806105203        1.77128258069156
H            6.01311461900869       -4.10330624840039        0.18487296997779
H            4.39922452112838       -2.40252287214468       -0.03884712845646
H           -0.22540921453409       -1.63965459975591       -1.70371873968416
H           -1.00624426768099       -1.27255762318425       -0.15158874886916
H            0.57377659941863       -2.07409911399150       -0.18303268351109
H           -4.67234891366696        2.89524132922925       -0.19513252809783
H           -3.80947388088654        2.91521570312205        2.72059481279779
H           -4.90431774994456        1.73981542461312        1.98861260543670
H           -5.37378106528044        3.43821879380783        2.09904973864038
H           -2.66544430608441        4.68504567330774        1.22975672834860
H           -3.10455422542935        4.77541546550232       -0.48062054253606
H           -4.29869282997645        5.14811829773614        0.75610715527870
H           -0.67741392240420        2.86645602440498        2.75463915044116
72
 energy: 0.000000000000 xtb: 6.6.1 (8d0f1dd)
N           -1.56058883712296        2.86761452581872        2.24572006095282
C           -1.58126169478644        2.17026030231243        1.19786244390722
C           -2.75901253524218        2.04097250483347        0.27769549885295
C           -3.30254184942659        0.62597451580363        0.39843444038296
C           -4.25791988543108        0.20576434339086       -0.50673906356199
C           -4.80524890591454       -1.05547429539906       -0.47669076142422
O           -5.70577867477586       -1.46426110068668       -1.42377146197978
C           -6.15882152304131       -0.51630051797406       -2.37332349340969
C           -4.40518775698109       -1.96402607582567        0.51958660020238
O           -4.99515641996790       -3.19610340962747        0.49953744098189
C           -4.66272810427869       -4.11843462091428        1.50991664572848
C           -3.44978234909655       -1.54544649423123        1.42733528189452
C           -2.91071980155292       -0.26561001827510        1.36775478293680
C           -2.21884303651887        2.27587844164583       -1.16106754949853
C           -1.30624020004880        1.15793705573491       -1.69469539500374
C           -0.02172820177821        1.10455758673430       -1.00986042873151
N            0.63048501751610       -0.07015843469265       -0.62932592007049
C            1.99662212933995       -0.03630140695049       -0.21137908886590
C            2.95010162319226       -0.53416496147959       -1.32256406615762
C            4.36823400847782       -0.43268619634681       -0.86457262519133
C            5.08984887554692        0.73201062158508       -1.05424345381443
C            6.39938811805912        0.83790301403488       -0.60278188785691
C            7.00121291256300       -0.22179951176563        0.05168890589595
O            8.27915300425001       -0.23193757321898        0.53208144110862
C            9.07655369546439        0.90665225391774        0.34296873752860
C            6.26885884335530       -1.41240897700868        0.25639185012513
O            6.94511340075842       -2.40384325286097        0.90649206040915
C            6.30325361480402       -3.63284720070907        1.11858527482231
C            4.96818459861198       -1.49810813421602       -0.19597753722003
C           -0.04333237477925       -1.32865665985748       -0.68329892514645
C           -3.91012669488923        3.03965481473404        0.57378305485877
C           -4.54772500920900        2.75930753268833        1.93406477319025
C           -3.47494103723776        4.49669299087496        0.50090376820303
H           -4.57747614222368        0.88799570791451       -1.28461665906074
H           -6.67731453782078        0.28901119178172       -1.96895978057152
H           -6.81668345042388       -1.14592035009282       -2.96777195380315
H           -5.36662778135043        0.39811418634330       -2.83594843304542
H           -4.88575007140440       -3.72958098754302        2.50769349057227
H           -5.28406422721897       -4.99244955602536        1.31614298807191
H           -3.60774048188596       -4.41159103300943        1.46368602913850
H           -3.11011750811639       -2.20779573534593        2.21218330231985
H           -2.18760014980738        0.03310288382447        2.11541144341792
H           -3.06320266900018        2.38606504185073       -1.84495734582237
H           -1.65933553236945        3.21282378013787       -1.17403204376462
H           -1.84102066571745        0.19895918893377       -1.62936031496733
H           -1.12306988590472        1.36662401543675       -2.76076218641155
H           -0.71002756849729        1.62652755947484        0.79266730258072
H            0.62684693575727        1.98039052902757       -1.02456064142083
H            2.12322251061798       -0.66158668127906        0.67403073169419
H            2.27397399824007        0.98713827048184        0.05388839239282
H            2.79062888108780        0.08140013358317       -2.21372685860255
H            2.69694268056935       -1.56635240127280       -1.56955954245868
H            4.64222175182836        1.56855915760554       -1.57007556648287
H            6.93884602643048        1.75524967429838       -0.77643677589383
H            8.65571861387939        1.78473571766732        0.84414192793339
H            9.22224956689721        1.12879314585230       -0.71921691156669
H           10.03784803576067        0.66174580773991        0.79570935518293
H            7.03889563806292       -4.25927927982713        1.62238545746653
H            5.42213011069509       -3.52650114006123        1.76181250384150
H            6.01096940192701       -4.10634062351982        0.17556195674102
H            4.39875501314476       -2.40345767200099       -0.05014327719705
H           -0.22646260167163       -1.64571862794574       -1.72176690187510
H           -1.00307619959726       -1.28341879400033       -0.16580009474217
H            0.57830015711551       -2.08152044421244       -0.20412598828237
H           -4.68074266218756        2.87378176722513       -0.19842385313080
H           -3.82624682088787        2.91914496791533        2.71877606743394
H           -4.91424738531561        1.73420877433320        1.99201149544976
H           -5.39136569512470        3.43138754284917        2.09041271308910
H           -2.68784876104546        4.68501325615697        1.21586640442791
H           -3.12682535752861        4.76188893481674       -0.49449574447865
H           -4.32395708262382        5.13643208950383        0.73947019829110
H           -0.70230897591051        2.89802773687531        2.76093865193217
72
 energy: 0.000000000000 xtb: 6.6.1 (8d0f1dd)
N           -1.58558693754418        2.89676618430648        2.24932622945590
C           -1.58721792450093        2.17972798758955        1.21204442327662
C           -2.76099241885278        2.03754047680705        0.28808485188276
C           -3.29587289357537        0.62267266435400        0.41664750843631
C           -4.24518158574320        0.20088045303134       -0.48716971459254
C           -4.79034867033612       -1.06038422920157       -0.46350284226582
O           -5.68004330490745       -1.44799565002550       -1.43588346174766
C           -6.10153691550730       -0.48512938863335       -2.39043247651944
C           -4.40575612121338       -1.96866931190194        0.53847336788204
O           -4.99558963341716       -3.20213660969390        0.52265163366714
C           -4.66254747134337       -4.12163066931694        1.53530113307607
C           -3.45636074089763       -1.54576488550979        1.45078588172656
C           -2.91302045757595       -0.26751454652985        1.39208003183474
C           -2.22512104862715        2.26988479849109       -1.15314364155268
C           -1.31961186411813        1.15118426900959       -1.69932117170603
C           -0.02349679384985        1.09278627882676       -1.03973080263703
N            0.62734536679370       -0.07399116923360       -0.64853230448486
C            1.99409108455951       -0.03651659200533       -0.22565318638393
C            2.95352012570760       -0.53197217122693       -1.33500169617747
C            4.37097844151845       -0.43212092413542       -0.87301421342541