25
 energy: -42.155045617858 gnorm: 0.004080682966 xtb: 6.6.1 (8d0f1dd)
C            3.05086606242842        1.13884792146839        0.02240383281373
N            2.24017272982936       -0.04747609189259       -0.00408630164312
C            2.66222523014878       -1.31105138998253       -0.02004367851995
N            1.59781076397758       -2.14974693572732       -0.01992254793086
C            0.45949786979668       -1.39021819388911       -0.00276484333175
C            0.86831633790363       -0.05906928621928        0.00719380029841
C           -0.13222376936859        1.01519460110494        0.00574607809907
O            0.15760472926548        2.20282852852391       -0.00561352686481
N           -1.38862540713310        0.54472568598117        0.01178219039072
C           -2.61187912730632        3.86917598314243       -0.00454637357702
C           -1.82795484688168       -0.70478340094646        0.00281027551729
O           -2.98425007712341       -1.04001661562734       -0.00609218250065
N           -0.82024609414380       -1.77292359316082        0.00037586628265
C           -1.24580959049970       -3.14943323933349        0.00382907265010
H            3.49225624854683        1.27589063760503        1.01213964774581
H            3.85208720786888        1.06914554290300       -0.71280893369096
H            2.41626150258434        1.99863999261359       -0.19720852830056
H            3.68717015887472       -1.62383952221311       -0.03342989284796
H           -1.61387162070975        3.45412079197682       -0.01565518222255
H           -3.11730725349135        4.09317281655740       -0.92510335553626
H           -3.11459379051791        4.04293982179177        0.92835963214317
H           -0.88696491684183       -3.66569159887465        0.89649490787048
H           -0.89692552769911       -3.66854877440213       -0.89091232141639
H           -2.33725279229591       -3.14584979850269        0.00931762357380
H            1.65406748688128       -3.15779534129285       -0.03109364111036
