      -----------------------------------------------------------      
     |                   =====================                   |     
     |                           x T B                           |     
     |                   =====================                   |     
     |                         S. Grimme                         |     
     |          Mulliken Center for Theoretical Chemistry        |     
     |                    University of Bonn                     |     
      -----------------------------------------------------------      

   * xtb version 6.6.1 (8d0f1dd) compiled by 'conda@1efc2f54142f' on 2023-08-01

   xtb is free software: you can redistribute it and/or modify it under
   the terms of the GNU Lesser General Public License as published by
   the Free Software Foundation, either version 3 of the License, or
   (at your option) any later version.
   
   xtb is distributed in the hope that it will be useful,
   but WITHOUT ANY WARRANTY; without even the implied warranty of
   MERCHANTABILITY or FITNESS FOR A PARTICULAR PURPOSE.  See the
   GNU Lesser General Public License for more details.
   
   Cite this work as:
   * C. Bannwarth, E. Caldeweyher, S. Ehlert, A. Hansen, P. Pracht,
     J. Seibert, S. Spicher, S. Grimme, WIREs Comput. Mol. Sci., 2020, 11,
     e01493. DOI: 10.1002/wcms.1493
   
   for GFN2-xTB:
   * C. Bannwarth, S. Ehlert and S. Grimme., J. Chem. Theory Comput., 2019,
     15, 1652-1671. DOI: 10.1021/acs.jctc.8b01176
   for GFN1-xTB:
   * S. Grimme, C. Bannwarth, P. Shushkov, J. Chem. Theory Comput., 2017,
     13, 1989-2009. DOI: 10.1021/acs.jctc.7b00118
   for GFN0-xTB:
   * P. Pracht, E. Caldeweyher, S. Ehlert, S. Grimme, ChemRxiv, 2019, preprint.
     DOI: 10.26434/chemrxiv.8326202.v1
   for GFN-FF:
   * S. Spicher and S. Grimme, Angew. Chem. Int. Ed., 2020, 59, 15665-15673.
     DOI: 10.1002/anie.202004239
   
   for ALPB and GBSA implicit solvation:
   * S. Ehlert, M. Stahn, S. Spicher, S. Grimme, J. Chem. Theory Comput.,
     2021, 17, 4250-4261. DOI: 10.1021/acs.jctc.1c00471
   
   for DFT-D4:
   * E. Caldeweyher, C. Bannwarth and S. Grimme, J. Chem. Phys., 2017,
     147, 034112. DOI: 10.1063/1.4993215
   * E. Caldeweyher, S. Ehlert, A. Hansen, H. Neugebauer, S. Spicher,
     C. Bannwarth and S. Grimme, J. Chem. Phys., 2019, 150, 154122.
     DOI: 10.1063/1.5090222
   * E. Caldeweyher, J.-M. Mewes, S. Ehlert and S. Grimme, Phys. Chem. Chem. Phys.
     2020, 22, 8499-8512. DOI: 10.1039/D0CP00502A
   
   for sTDA-xTB:
   * S. Grimme and C. Bannwarth, J. Chem. Phys., 2016, 145, 054103.
     DOI: 10.1063/1.4959605
   
   in the mass-spec context:
   * V. Asgeirsson, C. Bauer and S. Grimme, Chem. Sci., 2017, 8, 4879.
     DOI: 10.1039/c7sc00601b
   * J. Koopman and S. Grimme, ACS Omega 2019, 4, 12, 15120-15133.
     DOI: 10.1021/acsomega.9b02011
   
   for metadynamics refer to:
   * S. Grimme, J. Chem. Theory Comput., 2019, 155, 2847-2862
     DOI: 10.1021/acs.jctc.9b00143
   
   for SPH calculations refer to:
   * S. Spicher and S. Grimme, J. Chem. Theory Comput., 2021, 17, 1701-1714
     DOI: 10.1021/acs.jctc.0c01306
   
   with help from (in alphabetical order)
   P. Atkinson, C. Bannwarth, F. Bohle, G. Brandenburg, E. Caldeweyher
   M. Checinski, S. Dohm, S. Ehlert, S. Ehrlich, I. Gerasimov, C. Hölzer
   A. Katbashev, J. Koopman, C. Lavigne, S. Lehtola, F. März, M. Müller,
   F. Musil, H. Neugebauer, J. Pisarek, C. Plett, P. Pracht, F. Pultar,
   J. Seibert, P. Shushkov, S. Spicher, M. Stahn, M. Steiner, T. Strunk,
   J. Stückrath, T. Rose, and J. Unsleber
   
 * started run on 2024/04/06 at 11:17:04.113     

           -------------------------------------------------
          |                Calculation Setup                |
           -------------------------------------------------

          program call               : xtb struc.xyz --opt loose --input .xc1 --gfn2
          hostname                   : n-62-30-23
          coordinate file            : struc.xyz
          omp threads                :                     1

   ID    Z sym.   atoms
    1    7 N      1, 17
    2    6 C      2-6, 8, 9, 11-16, 18-23, 25, 26, 28-33
    3    8 O      7, 10, 24, 27
    4    1 H      34-72
constraining bond 26 53 to    4.7133300 Å, actual value:    3.8619669 Å

           -------------------------------------------------
          |                 G F N 2 - x T B                 |
           -------------------------------------------------

        Reference                      10.1021/acs.jctc.8b01176
      * Hamiltonian:
        H0-scaling (s, p, d)           1.850000    2.230000    2.230000
        zeta-weighting                 0.500000
      * Dispersion:
        s8                             2.700000
        a1                             0.520000
        a2                             5.000000
        s9                             5.000000
      * Repulsion:
        kExp                           1.500000    1.000000
        rExp                           1.000000
      * Coulomb:
        alpha                          2.000000
        third order                    shell-resolved
        anisotropic                    true
        a3                             3.000000
        a5                             4.000000
        cn-shift                       1.200000
        cn-exp                         4.000000
        max-rad                        5.000000


          ...................................................
          :                      SETUP                      :
          :.................................................:
          :  # basis functions                 171          :
          :  # atomic orbitals                 171          :
          :  # shells                          105          :
          :  # electrons                       180          :
          :  max. iterations                   250          :
          :  Hamiltonian                  GFN2-xTB          :
          :  restarted?                      false          :
          :  GBSA solvation                  false          :
          :  PC potential                    false          :
          :  electronic temp.         5000.0000000     K    :
          :  accuracy                    1.0000000          :
          :  -> integral cutoff          0.2500000E+02      :
          :  -> integral neglect         0.1000000E-07      :
          :  -> SCF convergence          0.1000000E-05 Eh   :
          :  -> wf. convergence          0.1000000E-03 e    :
          :  Broyden damping             0.4000000          :
          ...................................................

 iter      E             dE          RMSdq      gap      omega  full diag
   1   -100.5973919 -0.100597E+03  0.374E+00    3.20       0.0  T
   2   -100.7362642 -0.138872E+00  0.221E+00    1.08       1.0  T
   3   -100.7049001  0.313641E-01  0.141E+00    3.29       1.0  T
   4   -100.7721690 -0.672689E-01  0.526E-01    1.50       1.0  T
   5   -100.7894292 -0.172602E-01  0.190E-01    1.98       1.0  T
   6   -100.7911978 -0.176856E-02  0.792E-02    1.77       1.0  T
   7   -100.7914750 -0.277198E-03  0.375E-02    1.83       1.0  T
   8   -100.7914914 -0.164582E-04  0.140E-02    1.83       1.0  T
   9   -100.7914976 -0.616739E-05  0.474E-03    1.82       2.5  T
  10   -100.7914988 -0.118227E-05  0.172E-03    1.82       6.8  T
  11   -100.7914989 -0.139928E-06  0.766E-04    1.82      15.4  T
  12   -100.7914989 -0.773143E-08  0.318E-04    1.82      37.0  T

   *** convergence criteria satisfied after 12 iterations ***

         #    Occupation            Energy/Eh            Energy/eV
      -------------------------------------------------------------
         1        2.0000           -0.8078051             -21.9815
       ...           ...                  ...                  ...
        84        1.9966           -0.5157491             -14.0342
        85        1.9959           -0.5128261             -13.9547
        86        1.9840           -0.4911498             -13.3649
        87        1.9795           -0.4872543             -13.2589
        88        1.9640           -0.4782114             -13.0128
        89        1.8920           -0.4602041             -12.5228
        90        1.8557           -0.4553147             -12.3897 (HOMO)
        91        0.3166           -0.3884132             -10.5693 (LUMO)
        92        0.0218           -0.3434697              -9.3463
        93        0.0041           -0.3169887              -8.6257
        94        0.0034           -0.3139726              -8.5436
        95        0.0029           -0.3112618              -8.4699
       ...           ...                  ...                  ...
       171                          0.5822580              15.8440
      -------------------------------------------------------------
                  HL-Gap            0.0669015 Eh            1.8205 eV
             Fermi-level           -0.4148687 Eh          -11.2892 eV

 SCC (total)                   0 d,  0 h,  0 min,  0.189 sec
 SCC setup                      ...        0 min,  0.001 sec (  0.517%)
 Dispersion                     ...        0 min,  0.002 sec (  0.938%)
 classical contributions        ...        0 min,  0.000 sec (  0.230%)
 integral evaluation            ...        0 min,  0.018 sec (  9.697%)
 iterations                     ...        0 min,  0.097 sec ( 51.570%)
 molecular gradient             ...        0 min,  0.069 sec ( 36.711%)
 printout                       ...        0 min,  0.001 sec (  0.329%)

         :::::::::::::::::::::::::::::::::::::::::::::::::::::
         ::                     SUMMARY                     ::
         :::::::::::::::::::::::::::::::::::::::::::::::::::::
         :: total energy             -99.533549695180 Eh    ::
         :: gradient norm              0.227651779098 Eh/a0 ::
         :: HOMO-LUMO gap              1.820481192090 eV    ::
         ::.................................................::
         :: SCC energy              -100.791498925389 Eh    ::
         :: -> isotropic ES            0.109302908418 Eh    ::
         :: -> anisotropic ES          0.005415138735 Eh    ::
         :: -> anisotropic XC          0.042392697176 Eh    ::
         :: -> dispersion             -0.075527661009 Eh    ::
         :: repulsion energy           1.386151658689 Eh    ::
         :: add. restraining          -0.129418780986 Eh    ::
         :: total charge               1.000000000108 e     ::
         :::::::::::::::::::::::::::::::::::::::::::::::::::::

      ----------------------------------------------------------- 
     |                   =====================                   |
     |                        A N C O P T                        |
     |                   =====================                   |
     |               Approximate Normal Coordinate               |
     |                Rational Function Optimizer                |
      ----------------------------------------------------------- 

          ...................................................
          :                      SETUP                      :
          :.................................................:
          :   optimization level             loose          :
          :   max. optcycles                   200          :
          :   ANC micro-cycles                  20          :
          :   degrees of freedom               210          :
          :.................................................:
          :   RF solver                   davidson          :
          :   write xtbopt.log                true          :
          :   linear?                        false          :
          :   energy convergence         0.5000000E-04 Eh   :
          :   grad. convergence          0.4000000E-02 Eh/α :
          :   maxmium RF displ.          1.0000000          :
          :   Hlow (freq-cutoff)         0.1000000E-01      :
          :   Hmax (freq-cutoff)         5.0000000          :
          :   S6 in model hess.         20.0000000          :
          ...................................................

generating ANC from model Hessian ...
Using Lindh-Hessian (1995)
 Shifting diagonal of input Hessian by    9.9381225684522026E-003
 Lowest  eigenvalues of input Hessian
    0.000000    0.000000    0.000000    0.000000    0.000000    0.000000
    0.010000    0.010066    0.010248    0.010336    0.010404    0.010824
    0.010863    0.011080    0.011158    0.011678    0.011954    0.012820
 Highest eigenvalues
    2.035898    2.044337    2.045896    2.174865    2.179381    2.186993


........................................................................
.............................. CYCLE    1 ..............................
........................................................................

 iter      E             dE          RMSdq      gap      omega  full diag
   1   -100.7914989 -0.100791E+03  0.114E-04    1.82       0.0  T
   2   -100.7914989 -0.678995E-10  0.713E-05    1.82     165.2  T
   3   -100.7914989  0.665210E-10  0.496E-05    1.82     237.5  T
     SCC iter.                  ...        0 min,  0.026 sec
     gradient                   ...        0 min,  0.069 sec
 * total energy  :   -99.5335497 Eh     change       -0.4035485E-08 Eh
   gradient norm :     0.2276502 Eh/α   predicted     0.0000000E+00 (-100.00%)
   displ. norm   :     0.7953969 α      lambda       -0.1504088E+00
   maximum displ.:     0.2848589 α      in ANC's #53, #82, #83, ...

........................................................................
.............................. CYCLE    2 ..............................
........................................................................

 iter      E             dE          RMSdq      gap      omega  full diag
   1   -100.8283509 -0.100828E+03  0.513E-01    1.84       0.0  T
   2   -100.8298055 -0.145465E-02  0.303E-01    1.79       1.0  T
   3   -100.8294920  0.313551E-03  0.125E-01    1.80       1.0  T
   4   -100.8299307 -0.438761E-03  0.386E-02    1.83       1.0  T
   5   -100.8300060 -0.752813E-04  0.204E-02    1.78       1.0  T
   6   -100.8300411 -0.351012E-04  0.777E-03    1.81       1.5  T
   7   -100.8300442 -0.311614E-05  0.363E-03    1.80       3.2  T
   8   -100.8300447 -0.464821E-06  0.102E-03    1.80      11.6  T
   9   -100.8300447 -0.225163E-07  0.458E-04    1.80      25.7  T
  10   -100.8300447 -0.199059E-08  0.247E-04    1.80      47.7  T
     SCC iter.                  ...        0 min,  0.080 sec
     gradient                   ...        0 min,  0.069 sec
 * total energy  :   -99.6657797 Eh     change       -0.1322300E+00 Eh
   gradient norm :     0.2164405 Eh/α   predicted    -0.1228031E+00 (  -7.13%)
   displ. norm   :     0.8310124 α      lambda       -0.1280022E+00
   maximum displ.:     0.2986378 α      in ANC's #53, #41, #82, ...

........................................................................
.............................. CYCLE    3 ..............................
........................................................................

 iter      E             dE          RMSdq      gap      omega  full diag
   1   -100.7495283 -0.100750E+03  0.572E-01    1.72       0.0  T
   2   -100.7520105 -0.248217E-02  0.337E-01    1.74       1.0  T
   3   -100.7513461  0.664396E-03  0.154E-01    1.66       1.0  T
   4   -100.7514490 -0.102902E-03  0.937E-02    1.83       1.0  T
   5   -100.7522687 -0.819706E-03  0.212E-02    1.70       1.0  T
   6   -100.7523082 -0.395740E-04  0.763E-03    1.74       1.5  T
   7   -100.7523111 -0.290223E-05  0.344E-03    1.73       3.4  T
   8   -100.7523114 -0.250153E-06  0.115E-03    1.73      10.2  T
   9   -100.7523114 -0.500948E-07  0.488E-04    1.73      24.1  T
  10   -100.7523114 -0.250229E-08  0.262E-04    1.73      44.9  T
     SCC iter.                  ...        0 min,  0.080 sec
     gradient                   ...        0 min,  0.070 sec
 * total energy  :   -99.7751663 Eh     change       -0.1093866E+00 Eh
   gradient norm :     0.2801248 Eh/α   predicted    -0.1081993E+00 (  -1.09%)
   displ. norm   :     0.7568315 α      lambda       -0.1230016E+00
   maximum displ.:     0.2433509 α      in ANC's #53, #41, #82, ...

........................................................................
.............................. CYCLE    4 ..............................
........................................................................

 iter      E             dE          RMSdq      gap      omega  full diag
   1   -100.5142218 -0.100514E+03  0.440E-01    1.34       0.0  T
   2   -100.5155750 -0.135324E-02  0.488E-01    1.87       1.0  T
   3   -100.5307243 -0.151492E-01  0.248E-01    1.42       1.0  T
   4   -100.5268551  0.386916E-02  0.228E-01    1.81       1.0  T
   5   -100.5318130 -0.495786E-02  0.584E-02    1.51       1.0  T
   6   -100.5319873 -0.174297E-03  0.134E-02    1.53       1.0  T
   7   -100.5319993 -0.120606E-04  0.580E-03    1.54       2.0  T
   8   -100.5320018 -0.244986E-05  0.217E-03    1.53       5.4  T
   9   -100.5320020 -0.231645E-06  0.695E-04    1.53      16.9  T
  10   -100.5320020 -0.133398E-07  0.385E-04    1.53      30.6  T
     SCC iter.                  ...        0 min,  0.080 sec
     gradient                   ...        0 min,  0.069 sec
 * total energy  :   -99.8725211 Eh     change       -0.9735475E-01 Eh
   gradient norm :     0.2607130 Eh/α   predicted    -0.9672802E-01 (  -0.64%)
   displ. norm   :     0.8677569 α      lambda       -0.1368926E+00
   maximum displ.:     0.2744607 α      in ANC's #41, #53, #82, ...

........................................................................
.............................. CYCLE    5 ..............................
........................................................................

 iter      E             dE          RMSdq      gap      omega  full diag
   1   -100.3274686 -0.100327E+03  0.131E+00    0.21       0.0  T
   2   -100.3083306  0.191380E-01  0.114E+00    0.07       1.0  T
   3   -100.3083812 -0.505697E-04  0.665E-01    0.09       1.0  T
   4   -100.2716153  0.367659E-01  0.775E-01    0.02       1.0  T
   5   -100.3112341 -0.396187E-01  0.486E-01    0.10       1.0  T
   6   -100.3497508 -0.385167E-01  0.755E-02    0.11       1.0  T
   7   -100.3499661 -0.215259E-03  0.505E-02    0.11       1.0  T
   8   -100.3503515 -0.385365E-03  0.196E-02    0.11       1.0  T
   9   -100.3503446  0.680672E-05  0.153E-02    0.11       1.0  T
  10   -100.3503749 -0.302417E-04  0.445E-03    0.11       2.7  T
  11   -100.3503767 -0.178828E-05  0.175E-03    0.11       6.7  T
  12   -100.3503767 -0.189671E-07  0.121E-03    0.11       9.7  T
  13   -100.3503768 -0.148096E-06  0.362E-04    0.11      32.6  T
  14   -100.3503768 -0.732086E-09  0.236E-04    0.11      50.0  T
     SCC iter.                  ...        0 min,  0.112 sec
     gradient                   ...        0 min,  0.069 sec
 * total energy  :  -100.0592610 Eh     change       -0.1867400E+00 Eh
   gradient norm :     0.4122707 Eh/α   predicted    -0.1199865E+00 ( -35.75%)
   displ. norm   :     0.8506458 α      lambda       -0.1739291E+00
   maximum displ.:     0.2964698 α      in ANC's #208, #206, #53, ...

........................................................................
.............................. CYCLE    6 ..............................
........................................................................

 iter      E             dE          RMSdq      gap      omega  full diag
   1   -100.2468563 -0.100247E+03  0.990E-01    0.99       0.0  T
   2   -100.2148755  0.319807E-01  0.859E-01    0.29       1.0  T
   3   -100.1994099  0.154656E-01  0.785E-01    1.34       1.0  T
   4   -100.2536387 -0.542287E-01  0.488E-01    0.55       1.0  T
   5   -100.2715392 -0.179006E-01  0.196E-01    0.78       1.0  T
   6   -100.2750404 -0.350114E-02  0.895E-02    0.80       1.0  T
   7   -100.2758393 -0.798909E-03  0.295E-02    0.76       1.0  T
   8   -100.2758948 -0.555527E-04  0.131E-02    0.78       1.0  T
   9   -100.2759013 -0.651803E-05  0.740E-03    0.78       1.6  T
  10   -100.2759039 -0.251045E-05  0.315E-03    0.78       3.7  T
  11   -100.2759047 -0.877833E-06  0.142E-03    0.78       8.3  T
  12   -100.2759047  0.943020E-08  0.105E-03    0.78      11.2  T
  13   -100.2759048 -0.117592E-06  0.266E-04    0.78      44.2  T
  14   -100.2759048 -0.456640E-08  0.106E-04    0.78     111.1  T
     SCC iter.                  ...        0 min,  0.111 sec
     gradient                   ...        0 min,  0.069 sec
 * total energy  :   -99.6847349 Eh     change        0.3745261E+00 Eh
   gradient norm :     3.5540688 Eh/α   predicted    -0.1498919E+00 (-140.02%)
   displ. norm   :     0.3854228 α      lambda       -0.1201942E+01
   maximum displ.:     0.1064080 α      in ANC's #195, #162, #83, ...

........................................................................
.............................. CYCLE    7 ..............................
........................................................................

 iter      E             dE          RMSdq      gap      omega  full diag
   1   -100.1792696 -0.100179E+03  0.905E-01    0.35       0.0  T
   2    -99.8649881  0.314281E+00  0.185E+00    0.36       1.0  T
   3   -100.2404760 -0.375488E+00  0.638E-01    0.61       1.0  T
   4   -100.2125516  0.279243E-01  0.660E-01    0.36       1.0  T
   5   -100.2648764 -0.523248E-01  0.378E-01    0.53       1.0  T
   6   -100.2740459 -0.916952E-02  0.131E-01    0.50       1.0  T
   7   -100.2751908 -0.114482E-02  0.771E-02    0.48       1.0  T
   8   -100.2759289 -0.738156E-03  0.204E-02    0.50       1.0  T
   9   -100.2759694 -0.404746E-04  0.735E-03    0.50       1.6  T
  10   -100.2759725 -0.307624E-05  0.402E-03    0.50       2.9  T
  11   -100.2759727 -0.197588E-06  0.259E-03    0.50       4.5  T
  12   -100.2759735 -0.878329E-06  0.114E-03    0.51      10.4  T
  13   -100.2759737 -0.152170E-06  0.385E-04    0.51      30.6  T
  14   -100.2759737 -0.683123E-08  0.163E-04    0.50      72.5  T
     SCC iter.                  ...        0 min,  0.111 sec
     gradient                   ...        0 min,  0.069 sec
 * total energy  :  -100.2385766 Eh     change       -0.5538417E+00 Eh
   gradient norm :     0.6857724 Eh/α   predicted    -0.6902464E+00 (  24.63%)
   displ. norm   :     0.7580656 α      lambda       -0.3322082E+00
   maximum displ.:     0.3202921 α      in ANC's #81, #78, #54, ...

........................................................................
.............................. CYCLE    8 ..............................
........................................................................

 iter      E             dE          RMSdq      gap      omega  full diag
   1   -100.1328945 -0.100133E+03  0.781E-01    0.69       0.0  T
   2   -100.1017176  0.311769E-01  0.753E-01    0.68       1.0  T
   3   -100.1253006 -0.235830E-01  0.518E-01    0.76       1.0  T
   4   -100.1245846  0.715999E-03  0.463E-01    0.61       1.0  T
   5   -100.1411221 -0.165375E-01  0.208E-01    0.72       1.0  T
   6   -100.1467281 -0.560604E-02  0.780E-02    0.73       1.0  T
   7   -100.1475256 -0.797446E-03  0.273E-02    0.72       1.0  T
   8   -100.1475855 -0.598848E-04  0.124E-02    0.72       1.0  T
   9   -100.1475814  0.408264E-05  0.902E-03    0.72       1.3  T
  10   -100.1475891 -0.766952E-05  0.394E-03    0.72       3.0  T
  11   -100.1475908 -0.176105E-05  0.922E-04    0.72      12.8  T
  12   -100.1475909 -0.823251E-07  0.345E-04    0.72      34.2  T
  13   -100.1475909 -0.374953E-09  0.230E-04    0.72      51.2  T
     SCC iter.                  ...        0 min,  0.103 sec
     gradient                   ...        0 min,  0.069 sec
 * total energy  :  -100.5031469 Eh     change       -0.2645703E+00 Eh
   gradient norm :     0.7019095 Eh/α   predicted    -0.2615581E+00 (  -1.14%)
   displ. norm   :     0.7888849 α      lambda       -0.3897152E+00
   maximum displ.:     0.2792456 α      in ANC's #81, #78, #135, ...

........................................................................
.............................. CYCLE    9 ..............................
........................................................................

 iter      E             dE          RMSdq      gap      omega  full diag
   1    -99.9996319 -0.999996E+02  0.103E+00    0.71       0.0  T
   2    -99.7924622  0.207170E+00  0.127E+00    0.26       1.0  T
   3    -99.9458714 -0.153409E+00  0.833E-01    0.77       1.0  T
   4   -100.0230098 -0.771384E-01  0.460E-01    0.79       1.0  T
   5   -100.0315362 -0.852633E-02  0.219E-01    0.82       1.0  T
   6   -100.0356109 -0.407478E-02  0.695E-02    0.85       1.0  T
   7   -100.0354639  0.147024E-03  0.704E-02    0.85       1.0  T
   8   -100.0354030  0.609600E-04  0.567E-02    0.85       1.0  T
   9   -100.0358394 -0.436453E-03  0.241E-02    0.85       1.0  T
  10   -100.0358908 -0.514383E-04  0.717E-03    0.85       1.6  T
  11   -100.0358926 -0.175197E-05  0.490E-03    0.85       2.4  T
  12   -100.0358936 -0.103609E-05  0.320E-03    0.85       3.7  T
  13   -100.0358949 -0.129702E-05  0.894E-04    0.85      13.2  T
  14   -100.0358950 -0.252540E-07  0.443E-04    0.85      26.6  T
  15   -100.0358950 -0.784964E-08  0.273E-04    0.85      43.2  T
     SCC iter.                  ...        0 min,  0.118 sec
     gradient                   ...        0 min,  0.070 sec
 * total energy  :  -100.8569763 Eh     change       -0.3538294E+00 Eh
   gradient norm :     0.8396864 Eh/α   predicted    -0.3161250E+00 ( -10.66%)
   displ. norm   :     0.8996344 α      lambda       -0.5992367E+00
   maximum displ.:     0.3074970 α      in ANC's #199, #156, #133, ...

........................................................................
.............................. CYCLE   10 ..............................
........................................................................

 iter      E             dE          RMSdq      gap      omega  full diag
   1   -100.0140290 -0.100014E+03  0.110E+00    0.37       0.0  T
   2    -99.7608437  0.253185E+00  0.137E+00    0.06       1.0  T
   3    -99.9711399 -0.210296E+00  0.820E-01    0.47       1.0  T
   4   -100.0499060 -0.787661E-01  0.565E-01    0.37       1.0  T
   5   -100.0429938  0.691217E-02  0.511E-01    0.53       1.0  T
   6   -100.0674206 -0.244268E-01  0.246E-01    0.35       1.0  T
   7   -100.0755435 -0.812296E-02  0.885E-02    0.38       1.0  T
   8   -100.0759081 -0.364533E-03  0.431E-02    0.37       1.0  T
   9   -100.0760163 -0.108274E-03  0.276E-02    0.37       1.0  T
  10   -100.0760489 -0.325358E-04  0.121E-02    0.37       1.0  T
  11   -100.0760587 -0.982428E-05  0.717E-03    0.37       1.6  T
  12   -100.0760596 -0.898716E-06  0.506E-03    0.37       2.3  T
  13   -100.0760624 -0.278555E-05  0.197E-03    0.38       6.0  T
  14   -100.0760627 -0.348830E-06  0.619E-04    0.38      19.1  T
  15   -100.0760627 -0.189924E-07  0.276E-04    0.38      42.7  T
     SCC iter.                  ...        0 min,  0.119 sec
     gradient                   ...        0 min,  0.070 sec
 * total energy  :  -101.3973188 Eh     change       -0.5403425E+00 Eh
   gradient norm :     0.4364234 Eh/α   predicted    -0.5421121E+00 (   0.33%)
   displ. norm   :     0.7036597 α      lambda       -0.2300988E+00
   maximum displ.:     0.2422942 α      in ANC's #54, #199, #81, ...

........................................................................
.............................. CYCLE   11 ..............................
........................................................................

 iter      E             dE          RMSdq      gap      omega  full diag
   1   -100.1027290 -0.100103E+03  0.675E-01    0.25       0.0  T
   2   -100.0030610  0.996680E-01  0.104E+00    0.48       1.0  T
   3   -100.0915952 -0.885341E-01  0.578E-01    0.37       1.0  T
   4   -100.1080808 -0.164856E-01  0.350E-01    0.27       1.0  T
   5   -100.1212858 -0.132050E-01  0.158E-01    0.24       1.0  T
   6   -100.1237158 -0.243001E-02  0.311E-02    0.25       1.0  T
   7   -100.1237478 -0.320624E-04  0.183E-02    0.25       1.0  T
   8   -100.1237466  0.126845E-05  0.186E-02    0.25       1.0  T
   9   -100.1237902 -0.435989E-04  0.689E-03    0.25       1.7  T
  10   -100.1237930 -0.288577E-05  0.329E-03    0.25       3.6  T
  11   -100.1237940 -0.983170E-06  0.124E-03    0.25       9.5  T
  12   -100.1237942 -0.137189E-06  0.694E-04    0.25      17.0  T
  13   -100.1237942 -0.364268E-07  0.357E-04    0.25      33.0  T
     SCC iter.                  ...        0 min,  0.103 sec
     gradient                   ...        0 min,  0.070 sec
 * total energy  :  -101.0149837 Eh     change        0.3823351E+00 Eh
   gradient norm :     3.8936651 Eh/α   predicted    -0.1720146E+00 (-144.99%)
   displ. norm   :     0.3603312 α      lambda       -0.1228490E+01
   maximum displ.:     0.1405727 α      in ANC's #199, #156, #195, ...

........................................................................
.............................. CYCLE   12 ..............................
........................................................................

 iter      E             dE          RMSdq      gap      omega  full diag
   1   -100.1367885 -0.100137E+03  0.295E-01    0.29       0.0  T
   2   -100.1330446  0.374393E-02  0.274E-01    0.29       1.0  T
   3   -100.1345685 -0.152390E-02  0.201E-01    0.29       1.0  T
   4   -100.1324307  0.213780E-02  0.219E-01    0.31       1.0  T
   5   -100.1385152 -0.608450E-02  0.662E-02    0.28       1.0  T
   6   -100.1389433 -0.428138E-03  0.302E-02    0.29       1.0  T
   7   -100.1390189 -0.755561E-04  0.204E-02    0.29       1.0  T
   8   -100.1390449 -0.259701E-04  0.105E-02    0.29       1.1  T
   9   -100.1390512 -0.638733E-05  0.596E-03    0.29       2.0  T
  10   -100.1390535 -0.222289E-05  0.226E-03    0.29       5.2  T
  11   -100.1390538 -0.315604E-06  0.176E-03    0.29       6.7  T
  12   -100.1390540 -0.213430E-06  0.434E-04    0.29      27.2  T
  13   -100.1390540 -0.467026E-08  0.241E-04    0.29      48.9  T
     SCC iter.                  ...        0 min,  0.103 sec
     gradient                   ...        0 min,  0.069 sec
 * total energy  :  -101.4897368 Eh     change       -0.4747531E+00 Eh
   gradient norm :     0.1875225 Eh/α   predicted    -0.6939979E+00 (  46.18%)
   displ. norm   :     0.7948629 α      lambda       -0.1215788E+00
   maximum displ.:     0.2861784 α      in ANC's #208, #206, #135, ...

........................................................................
.............................. CYCLE   13 ..............................
........................................................................

 iter      E             dE          RMSdq      gap      omega  full diag
   1   -100.2029908 -0.100203E+03  0.958E-01    1.06       0.0  T
   2    -99.7274117  0.475579E+00  0.230E+00    0.32       1.0  T
   3   -100.2635366 -0.536125E+00  0.482E-01    0.81       1.0  T
   4   -100.1715296  0.920070E-01  0.878E-01    0.47       1.0  T
   5   -100.2801452 -0.108616E+00  0.186E-01    0.83       1.0  T
   6   -100.2809245 -0.779313E-03  0.105E-01    0.80       1.0  T
   7   -100.2824954 -0.157089E-02  0.347E-02    0.80       1.0  T
   8   -100.2825840 -0.885489E-04  0.200E-02    0.80       1.0  T
   9   -100.2826012 -0.171955E-04  0.656E-03    0.81       1.8  T
  10   -100.2826027 -0.154416E-05  0.269E-03    0.81       4.4  T
  11   -100.2826030 -0.326313E-06  0.146E-03    0.81       8.1  T
  12   -100.2826033 -0.275844E-06  0.415E-04    0.81      28.4  T
  13   -100.2826033 -0.188204E-08  0.219E-04    0.81      53.8  T
     SCC iter.                  ...        0 min,  0.104 sec
     gradient                   ...        0 min,  0.069 sec
 * total energy  :  -101.5335943 Eh     change       -0.4385743E-01 Eh
   gradient norm :     0.4344777 Eh/α   predicted    -0.9919805E-01 ( 126.18%)
   displ. norm   :     0.6035424 α      lambda       -0.1427765E+00
   maximum displ.:     0.2234948 α      in ANC's #135, #122, #50, ...

........................................................................
.............................. CYCLE   14 ..............................
........................................................................

 iter      E             dE          RMSdq      gap      omega  full diag
   1   -100.3101960 -0.100310E+03  0.610E-01    1.04       0.0  T
   2   -100.3023566  0.783938E-02  0.553E-01    1.05       1.0  T
   3   -100.3133978 -0.110412E-01  0.326E-01    1.00       1.0  T
   4   -100.3000725  0.133253E-01  0.397E-01    1.14       1.0  T
   5   -100.3217252 -0.216528E-01  0.865E-02    1.01       1.0  T
   6   -100.3217756 -0.504040E-04  0.828E-02    1.08       1.0  T
   7   -100.3224985 -0.722840E-03  0.271E-02    1.03       1.0  T
   8   -100.3225567 -0.582372E-04  0.793E-03    1.04       1.5  T
   9   -100.3225574 -0.700197E-06  0.488E-03    1.04       2.4  T
  10   -100.3225589 -0.149018E-05  0.185E-03    1.04       6.4  T
  11   -100.3225592 -0.316376E-06  0.668E-04    1.04      17.6  T
  12   -100.3225592  0.241496E-08  0.483E-04    1.04      24.4  T
     SCC iter.                  ...        0 min,  0.095 sec
     gradient                   ...        0 min,  0.069 sec
 * total energy  :  -101.6165426 Eh     change       -0.8294832E-01 Eh
   gradient norm :     0.3967856 Eh/α   predicted    -0.9739122E-01 (  17.41%)
   displ. norm   :     0.5983490 α      lambda       -0.6968892E-01
   maximum displ.:     0.2410705 α      in ANC's #31, #42, #36, ...

........................................................................
.............................. CYCLE   15 ..............................
........................................................................

 iter      E             dE          RMSdq      gap      omega  full diag
   1   -100.3432466 -0.100343E+03  0.371E-01    1.22       0.0  T
   2   -100.3399152  0.333135E-02  0.347E-01    1.07       1.0  T
   3   -100.3438413 -0.392605E-02  0.229E-01    1.18       1.0  T
   4   -100.3436090  0.232307E-03  0.178E-01    1.10       1.0  T
   5   -100.3469158 -0.330679E-02  0.672E-02    1.16       1.0  T
   6   -100.3469372 -0.214503E-04  0.599E-02    1.20       1.0  T
   7   -100.3474329 -0.495627E-03  0.136E-02    1.17       1.0  T
   8   -100.3474554 -0.225371E-04  0.473E-03    1.17       2.5  T
   9   -100.3474565 -0.106563E-05  0.219E-03    1.17       5.4  T
  10   -100.3474566 -0.118949E-06  0.862E-04    1.17      13.7  T
  11   -100.3474567 -0.911099E-07  0.299E-04    1.17      39.5  T
     SCC iter.                  ...        0 min,  0.087 sec
     gradient                   ...        0 min,  0.069 sec
 * total energy  :  -101.6559307 Eh     change       -0.3938806E-01 Eh
   gradient norm :     0.1430840 Eh/α   predicted    -0.4731960E-01 (  20.14%)
   displ. norm   :     0.7205501 α      lambda       -0.5208268E-01
   maximum displ.:     0.2888297 α      in ANC's #47, #50, #31, ...

........................................................................
.............................. CYCLE   16 ..............................
........................................................................

 iter      E             dE          RMSdq      gap      omega  full diag
   1   -100.4153211 -0.100415E+03  0.303E-01    1.20       0.0  T
   2   -100.4143287  0.992398E-03  0.212E-01    1.31       1.0  T
   3   -100.4059653  0.836342E-02  0.301E-01    1.06       1.0  T
   4   -100.4136966 -0.773137E-02  0.140E-01    1.29       1.0  T
   5   -100.4150899 -0.139327E-02  0.791E-02    1.23       1.0  T
   6   -100.4159884 -0.898527E-03  0.130E-02    1.24       1.0  T
   7   -100.4160088 -0.204057E-04  0.505E-03    1.24       2.3  T
   8   -100.4160096 -0.805809E-06  0.222E-03    1.24       5.3  T
   9   -100.4160098 -0.189291E-06  0.105E-03    1.24      11.3  T
  10   -100.4160099 -0.962414E-07  0.472E-04    1.24      25.0  T
  11   -100.4160099 -0.225094E-07  0.237E-04    1.24      49.8  T
     SCC iter.                  ...        0 min,  0.086 sec
     gradient                   ...        0 min,  0.069 sec
 * total energy  :  -101.6949108 Eh     change       -0.3898009E-01 Eh
   gradient norm :     0.2164908 Eh/α   predicted    -0.3956185E-01 (   1.49%)
   displ. norm   :     0.6928760 α      lambda       -0.4354391E-01
   maximum displ.:     0.2736080 α      in ANC's #47, #50, #31, ...

........................................................................
.............................. CYCLE   17 ..............................
........................................................................

 iter      E             dE          RMSdq      gap      omega  full diag
   1   -100.4636004 -0.100464E+03  0.328E-01    1.27       0.0  T
   2   -100.4623585  0.124191E-02  0.217E-01    1.18       1.0  T
   3   -100.4541789  0.817959E-02  0.302E-01    1.44       1.0  T
   4   -100.4616474 -0.746847E-02  0.153E-01    1.18       1.0  T
   5   -100.4639330 -0.228564E-02  0.799E-02    1.24       1.0  T
   6   -100.4647779 -0.844896E-03  0.164E-02    1.26       1.0  T
   7   -100.4647917 -0.138032E-04  0.729E-03    1.26       1.6  T
   8   -100.4647969 -0.514064E-05  0.300E-03    1.26       3.9  T
   9   -100.4647969 -0.209035E-07  0.174E-03    1.25       6.8  T
  10   -100.4647972 -0.345663E-06  0.359E-04    1.25      32.8  T
  11   -100.4647972 -0.502511E-08  0.221E-04    1.25      53.4  T
     SCC iter.                  ...        0 min,  0.087 sec
     gradient                   ...        0 min,  0.069 sec
 * total energy  :  -101.7287691 Eh     change       -0.3385834E-01 Eh
   gradient norm :     0.2170380 Eh/α   predicted    -0.3222420E-01 (  -4.83%)
   displ. norm   :     0.7152243 α      lambda       -0.3543213E-01
   maximum displ.:     0.3454414 α      in ANC's #47, #48, #31, ...

........................................................................
.............................. CYCLE   18 ..............................
........................................................................

 iter      E             dE          RMSdq      gap      omega  full diag
   1   -100.4870313 -0.100487E+03  0.302E-01    1.22       0.0  T
   2   -100.4850878  0.194357E-02  0.207E-01    1.18       1.0  T
   3   -100.4740775  0.110103E-01  0.319E-01    1.34       1.0  T
   4   -100.4868693 -0.127918E-01  0.115E-01    1.18       1.0  T
   5   -100.4879597 -0.109038E-02  0.229E-02    1.24       1.0  T
   6   -100.4879921 -0.323831E-04  0.941E-03    1.22       1.3  T
   7   -100.4880013 -0.916979E-05  0.575E-03    1.23       2.0  T
   8   -100.4880029 -0.164491E-05  0.301E-03    1.22       3.9  T
   9   -100.4880038 -0.917773E-06  0.125E-03    1.22       9.4  T
  10   -100.4880040 -0.181095E-06  0.336E-04    1.22      35.1  T
  11   -100.4880040 -0.579989E-08  0.161E-04    1.22      73.0  T
     SCC iter.                  ...        0 min,  0.088 sec
     gradient                   ...        0 min,  0.069 sec
 * total energy  :  -101.7545058 Eh     change       -0.2573670E-01 Eh
   gradient norm :     0.1416185 Eh/α   predicted    -0.2677865E-01 (   4.05%)
   displ. norm   :     0.6405715 α      lambda       -0.2653262E-01
   maximum displ.:     0.2505020 α      in ANC's #47, #31, #48, ...

........................................................................
.............................. CYCLE   19 ..............................
........................................................................

 iter      E             dE          RMSdq      gap      omega  full diag
   1   -100.4935553 -0.100494E+03  0.261E-01    1.07       0.0  T
   2   -100.4887249  0.483046E-02  0.293E-01    1.26       1.0  T
   3   -100.4947116 -0.598672E-02  0.137E-01    1.12       1.0  T
   4   -100.4942304  0.481178E-03  0.107E-01    1.15       1.0  T
   5   -100.4947108 -0.480370E-03  0.718E-02    1.20       1.0  T
   6   -100.4955070 -0.796203E-03  0.104E-02    1.17       1.1  T
   7   -100.4955169 -0.992797E-05  0.467E-03    1.17       2.5  T
   8   -100.4955178 -0.927670E-06  0.181E-03    1.17       6.5  T
   9   -100.4955180 -0.149625E-06  0.779E-04    1.17      15.1  T
  10   -100.4955180 -0.475700E-07  0.234E-04    1.17      50.3  T
     SCC iter.                  ...        0 min,  0.080 sec
     gradient                   ...        0 min,  0.069 sec
 * total energy  :  -101.7747367 Eh     change       -0.2023087E-01 Eh
   gradient norm :     0.0983745 Eh/α   predicted    -0.1870990E-01 (  -7.52%)
   displ. norm   :     0.6506158 α      lambda       -0.2080448E-01
   maximum displ.:     0.2952615 α      in ANC's #47, #48, #42, ...

........................................................................
.............................. CYCLE   20 ..............................
........................................................................

 iter      E             dE          RMSdq      gap      omega  full diag
   1   -100.5087768 -0.100509E+03  0.276E-01    0.94       0.0  T
   2   -100.4987722  0.100046E-01  0.382E-01    1.29       1.0  T
   3   -100.5114045 -0.126323E-01  0.124E-01    1.03       1.0  T
   4   -100.5101295  0.127501E-02  0.113E-01    1.14       1.0  T
   5   -100.5107463 -0.616826E-03  0.869E-02    1.06       1.0  T
   6   -100.5118594 -0.111314E-02  0.919E-03    1.09       1.3  T
   7   -100.5118629 -0.349213E-05  0.467E-03    1.08       2.5  T
   8   -100.5118636 -0.669035E-06  0.251E-03    1.08       4.7  T
   9   -100.5118638 -0.167888E-06  0.939E-04    1.08      12.5  T
  10   -100.5118639 -0.112336E-06  0.269E-04    1.08      43.8  T
     SCC iter.                  ...        0 min,  0.080 sec
     gradient                   ...        0 min,  0.070 sec
 * total energy  :  -101.7878520 Eh     change       -0.1311533E-01 Eh
   gradient norm :     0.2077582 Eh/α   predicted    -0.1480551E-01 (  12.89%)
   displ. norm   :     0.5083677 α      lambda       -0.1879978E-01
   maximum displ.:     0.1937220 α      in ANC's #47, #48, #44, ...
 * RMSD in coord.:     0.8789296 α      energy gain  -0.2254302E+01 Eh

generating ANC from model Hessian ...
Using Lindh-Hessian (1995)
 Shifting diagonal of input Hessian by    1.0102905355176828E-002
 Lowest  eigenvalues of input Hessian
    0.010000    0.000000    0.000000    0.000000    0.000000    0.000000
    0.000000    0.010139    0.010221    0.010336    0.010381    0.010465
    0.010751    0.010939    0.011048    0.011105    0.011316    0.011625
 Highest eigenvalues
    2.041233    2.064718    2.110961    2.181082    2.182842    2.565797


........................................................................
.............................. CYCLE   21 ..............................
........................................................................

 iter      E             dE          RMSdq      gap      omega  full diag
   1   -100.5075826 -0.100508E+03  0.206E-01    0.95       0.0  T
   2   -100.5023753  0.520733E-02  0.269E-01    1.25       1.0  T
   3   -100.5085629 -0.618764E-02  0.106E-01    0.99       1.0  T
   4   -100.5072500  0.131291E-02  0.103E-01    1.08       1.0  T
   5   -100.5085696 -0.131955E-02  0.559E-02    1.03       1.0  T
   6   -100.5089800 -0.410433E-03  0.609E-03    1.04       1.9  T
   7   -100.5089818 -0.179268E-05  0.295E-03    1.04       4.0  T
   8   -100.5089822 -0.407583E-06  0.162E-03    1.04       7.3  T
   9   -100.5089823 -0.123358E-06  0.528E-04    1.04      22.3  T
  10   -100.5089824 -0.191818E-07  0.197E-04    1.04      59.8  T
     SCC iter.                  ...        0 min,  0.080 sec
     gradient                   ...        0 min,  0.069 sec
 * total energy  :  -101.7994915 Eh     change       -0.1163948E-01 Eh
   gradient norm :     0.0770881 Eh/α   predicted     0.0000000E+00 (-100.00%)
   displ. norm   :     0.3910276 α      lambda       -0.8025028E-02
   maximum displ.:     0.1754618 α      in ANC's #20, #8, #29, ...

........................................................................
.............................. CYCLE   22 ..............................
........................................................................

 iter      E             dE          RMSdq      gap      omega  full diag
   1   -100.5196922 -0.100520E+03  0.136E-01    1.15       0.0  T
   2   -100.5150282  0.466399E-02  0.237E-01    0.90       1.0  T
   3   -100.5202070 -0.517879E-02  0.754E-02    1.10       1.0  T
   4   -100.5181497  0.205729E-02  0.126E-01    1.07       1.0  T
   5   -100.5204142 -0.226448E-02  0.327E-02    1.07       1.0  T
   6   -100.5205319 -0.117728E-03  0.453E-03    1.08       2.6  T
   7   -100.5205337 -0.178830E-05  0.175E-03    1.08       6.7  T
   8   -100.5205338 -0.100066E-06  0.973E-04    1.08      12.1  T
   9   -100.5205338 -0.252405E-07  0.501E-04    1.08      23.5  T
     SCC iter.                  ...        0 min,  0.072 sec
     gradient                   ...        0 min,  0.069 sec
 * total energy  :  -101.8063244 Eh     change       -0.6832932E-02 Eh
   gradient norm :     0.0712499 Eh/α   predicted    -0.4637276E-02 ( -32.13%)
   displ. norm   :     0.6553022 α      lambda       -0.1318302E-01
   maximum displ.:     0.2998186 α      in ANC's #20, #8, #29, ...

........................................................................
.............................. CYCLE   23 ..............................
........................................................................

 iter      E             dE          RMSdq      gap      omega  full diag
   1   -100.5294321 -0.100529E+03  0.249E-01    1.30       0.0  T
   2   -100.5113076  0.181245E-01  0.466E-01    0.82       1.0  T
   3   -100.5316914 -0.203838E-01  0.134E-01    1.18       1.0  T
   4   -100.5255367  0.615468E-02  0.221E-01    1.08       1.0  T
   5   -100.5322643 -0.672753E-02  0.624E-02    1.14       1.0  T
   6   -100.5326892 -0.424965E-03  0.848E-03    1.16       1.4  T
   7   -100.5326965 -0.732453E-05  0.325E-03    1.16       3.6  T
   8   -100.5326970 -0.420771E-06  0.176E-03    1.16       6.7  T
   9   -100.5326971 -0.103220E-06  0.755E-04    1.16      15.6  T
  10   -100.5326971 -0.269309E-07  0.304E-04    1.16      38.7  T
     SCC iter.                  ...        0 min,  0.080 sec
     gradient                   ...        0 min,  0.069 sec
 * total energy  :  -101.8149418 Eh     change       -0.8617350E-02 Eh
   gradient norm :     0.0878393 Eh/α   predicted    -0.9422124E-02 (   9.34%)
   displ. norm   :     0.5598942 α      lambda       -0.9116924E-02
   maximum displ.:     0.2733530 α      in ANC's #8, #20, #10, ...

........................................................................
.............................. CYCLE   24 ..............................
........................................................................

 iter      E             dE          RMSdq      gap      omega  full diag
   1   -100.5325025 -0.100533E+03  0.164E-01    1.27       0.0  T
   2   -100.5295715  0.293095E-02  0.207E-01    1.07       1.0  T
   3   -100.5324773 -0.290572E-02  0.105E-01    1.26       1.0  T
   4   -100.5310295  0.144778E-02  0.125E-01    1.19       1.0  T
   5   -100.5330184 -0.198892E-02  0.455E-02    1.20       1.0  T
   6   -100.5332800 -0.261540E-03  0.817E-03    1.22       1.4  T
   7   -100.5332876 -0.766856E-05  0.215E-03    1.21       5.5  T
   8   -100.5332877 -0.119939E-06  0.129E-03    1.21       9.2  T
   9   -100.5332878 -0.612998E-07  0.425E-04    1.21      27.7  T
  10   -100.5332878 -0.942602E-08  0.152E-04    1.21      77.3  T
     SCC iter.                  ...        0 min,  0.079 sec
     gradient                   ...        0 min,  0.069 sec
 * total energy  :  -101.8205453 Eh     change       -0.5603541E-02 Eh
   gradient norm :     0.0988228 Eh/α   predicted    -0.5987486E-02 (   6.85%)
   displ. norm   :     0.4657515 α      lambda       -0.5993529E-02
   maximum displ.:     0.2690212 α      in ANC's #8, #20, #10, ...

........................................................................
.............................. CYCLE   25 ..............................
........................................................................

 iter      E             dE          RMSdq      gap      omega  full diag
   1   -100.5375363 -0.100538E+03  0.111E-01    1.23       0.0  T
   2   -100.5372731  0.263215E-03  0.866E-02    1.27       1.0  T
   3   -100.5359058  0.136722E-02  0.113E-01    1.18       1.0  T
   4   -100.5371969 -0.129107E-02  0.602E-02    1.25       1.0  T
   5   -100.5376127 -0.415831E-03  0.161E-02    1.25       1.0  T
   6   -100.5376346 -0.218303E-04  0.521E-03    1.24       2.3  T
   7   -100.5376382 -0.363915E-05  0.168E-03    1.24       7.0  T
   8   -100.5376384 -0.144029E-06  0.777E-04    1.24      15.2  T
   9   -100.5376384 -0.343467E-07  0.283E-04    1.24      41.6  T
     SCC iter.                  ...        0 min,  0.071 sec
     gradient                   ...        0 min,  0.069 sec
 * total energy  :  -101.8258339 Eh     change       -0.5288559E-02 Eh
   gradient norm :     0.0911588 Eh/α   predicted    -0.3646843E-02 ( -31.04%)
   displ. norm   :     0.7023593 α      lambda       -0.1078342E-01
   maximum displ.:     0.3568085 α      in ANC's #8, #23, #20, ...

........................................................................
.............................. CYCLE   26 ..............................
........................................................................

 iter      E             dE          RMSdq      gap      omega  full diag
   1   -100.5421000 -0.100542E+03  0.217E-01    1.29       0.0  T
   2   -100.5385139  0.358611E-02  0.235E-01    1.42       1.0  T
   3   -100.5421753 -0.366145E-02  0.139E-01    1.24       1.0  T
   4   -100.5422944 -0.119108E-03  0.126E-01    1.36       1.0  T
   5   -100.5437156 -0.142121E-02  0.516E-02    1.34       1.0  T
   6   -100.5439693 -0.253623E-03  0.102E-02    1.34       1.2  T
   7   -100.5439835 -0.142444E-04  0.249E-03    1.33       4.7  T
   8   -100.5439835  0.121780E-08  0.147E-03    1.33       8.0  T
   9   -100.5439836 -0.116584E-06  0.449E-04    1.33      26.2  T
  10   -100.5439836 -0.959220E-08  0.169E-04    1.33      69.7  T
     SCC iter.                  ...        0 min,  0.078 sec
     gradient                   ...        0 min,  0.069 sec
 * total energy  :  -101.8356621 Eh     change       -0.9828193E-02 Eh
   gradient norm :     0.0435123 Eh/α   predicted    -0.8051501E-02 ( -18.08%)
   displ. norm   :     0.8668488 α      lambda       -0.1572346E-01
   maximum displ.:     0.4527488 α      in ANC's #23, #8, #26, ...

........................................................................
.............................. CYCLE   27 ..............................
........................................................................

 iter      E             dE          RMSdq      gap      omega  full diag
   1   -100.5459206 -0.100546E+03  0.419E-01    1.17       0.0  T
   2   -100.5408589  0.506169E-02  0.470E-01    1.61       1.0  T
   3   -100.5574990 -0.166401E-01  0.226E-01    1.20       1.0  T
   4   -100.5569763  0.522648E-03  0.187E-01    1.46       1.0  T
   5   -100.5580930 -0.111664E-02  0.129E-01    1.25       1.0  T
   6   -100.5598238 -0.173088E-02  0.184E-02    1.32       1.0  T
   7   -100.5598394 -0.155518E-04  0.102E-02    1.33       1.2  T
   8   -100.5598449 -0.548633E-05  0.541E-03    1.33       2.2  T
   9   -100.5598455 -0.655097E-06  0.282E-03    1.33       4.2  T
  10   -100.5598461 -0.546661E-06  0.786E-04    1.33      15.0  T
  11   -100.5598461 -0.241494E-07  0.453E-04    1.33      26.0  T
     SCC iter.                  ...        0 min,  0.086 sec
     gradient                   ...        0 min,  0.070 sec
 * total energy  :  -101.8568132 Eh     change       -0.2115116E-01 Eh
   gradient norm :     0.1036972 Eh/α   predicted    -0.1376927E-01 ( -34.90%)
   displ. norm   :     0.8115411 α      lambda       -0.3269305E-01
   maximum displ.:     0.4494694 α      in ANC's #23, #26, #8, ...

........................................................................
.............................. CYCLE   28 ..............................
........................................................................

 iter      E             dE          RMSdq      gap      omega  full diag
   1   -100.5562035 -0.100556E+03  0.486E-01    1.12       0.0  T
   2   -100.5433426  0.128609E-01  0.633E-01    1.64       1.0  T
   3   -100.5718780 -0.285354E-01  0.262E-01    1.17       1.0  T
   4   -100.5716684  0.209659E-03  0.181E-01    1.40       1.0  T
   5   -100.5686742  0.299418E-02  0.201E-01    1.10       1.0  T
   6   -100.5736676 -0.499345E-02  0.254E-02    1.27       1.0  T
   7   -100.5736858 -0.181938E-04  0.146E-02    1.28       1.0  T
   8   -100.5736861 -0.290690E-06  0.109E-02    1.27       1.1  T
   9   -100.5736940 -0.789031E-05  0.229E-03    1.27       5.1  T
  10   -100.5736943 -0.238605E-06  0.101E-03    1.27      11.6  T
  11   -100.5736944 -0.102375E-06  0.396E-04    1.27      29.7  T
  12   -100.5736944 -0.486963E-08  0.193E-04    1.27      60.9  T
     SCC iter.                  ...        0 min,  0.094 sec
     gradient                   ...        0 min,  0.069 sec
 * total energy  :  -101.8792717 Eh     change       -0.2245850E-01 Eh
   gradient norm :     0.1319923 Eh/α   predicted    -0.2711241E-01 (  20.72%)
   displ. norm   :     0.5165886 α      lambda       -0.3401417E-01
   maximum displ.:     0.1815881 α      in ANC's #14, #11, #23, ...

........................................................................
.............................. CYCLE   29 ..............................
........................................................................

 iter      E             dE          RMSdq      gap      omega  full diag
   1   -100.5725038 -0.100573E+03  0.327E-01    1.30       0.0  T
   2   -100.5728431 -0.339304E-03  0.198E-01    1.29       1.0  T
   3   -100.5716751  0.116804E-02  0.147E-01    1.25       1.0  T
   4   -100.5728810 -0.120593E-02  0.578E-02    1.34       1.0  T
   5   -100.5730561 -0.175067E-03  0.478E-02    1.23       1.0  T
   6   -100.5733249 -0.268776E-03  0.120E-02    1.29       1.0  T
   7   -100.5733288 -0.394468E-05  0.834E-03    1.28       1.4  T
   8   -100.5733317 -0.292397E-05  0.368E-03    1.28       3.2  T
   9   -100.5733321 -0.327769E-06  0.170E-03    1.28       6.9  T
  10   -100.5733323 -0.235641E-06  0.454E-04    1.28      26.0  T
  11   -100.5733323 -0.597360E-08  0.228E-04    1.28      51.8  T
     SCC iter.                  ...        0 min,  0.087 sec
     gradient                   ...        0 min,  0.071 sec
 * total energy  :  -101.8907725 Eh     change       -0.1150077E-01 Eh
   gradient norm :     0.1129484 Eh/α   predicted    -0.2154569E-01 (  87.34%)
   displ. norm   :     0.3622373 α      lambda       -0.1569964E-01
   maximum displ.:     0.1021041 α      in ANC's #124, #84, #49, ...

........................................................................
.............................. CYCLE   30 ..............................
........................................................................

 iter      E             dE          RMSdq      gap      omega  full diag
   1   -100.5845446 -0.100585E+03  0.223E-01    1.39       0.0  T
   2   -100.5846837 -0.139153E-03  0.148E-01    1.32       1.0  T
   3   -100.5843868  0.296918E-03  0.133E-01    1.42       1.0  T
   4   -100.5848500 -0.463144E-03  0.658E-02    1.30       1.0  T
   5   -100.5851509 -0.300903E-03  0.345E-02    1.39       1.0  T
   6   -100.5852965 -0.145608E-03  0.139E-02    1.35       1.0  T
   7   -100.5853151 -0.186391E-04  0.388E-03    1.36       3.0  T
   8   -100.5853159 -0.832570E-06  0.167E-03    1.36       7.1  T
   9   -100.5853160 -0.811226E-07  0.695E-04    1.36      17.0  T
  10   -100.5853160 -0.277963E-07  0.311E-04    1.36      37.9  T
     SCC iter.                  ...        0 min,  0.079 sec
     gradient                   ...        0 min,  0.069 sec
 * total energy  :  -101.8957791 Eh     change       -0.5006635E-02 Eh
   gradient norm :     0.0630896 Eh/α   predicted    -0.8879854E-02 (  77.36%)
   displ. norm   :     0.4105606 α      lambda       -0.1146825E-01
   maximum displ.:     0.1523174 α      in ANC's #20, #29, #26, ...

........................................................................
.............................. CYCLE   31 ..............................
........................................................................

 iter      E             dE          RMSdq      gap      omega  full diag
   1   -100.6064866 -0.100606E+03  0.193E-01    1.33       0.0  T
   2   -100.6072713 -0.784734E-03  0.149E-01    1.42       1.0  T
   3   -100.6070856  0.185786E-03  0.115E-01    1.27       1.0  T
   4   -100.6070069  0.786232E-04  0.979E-02    1.45       1.0  T
   5   -100.6078679 -0.860939E-03  0.203E-02    1.35       1.0  T
   6   -100.6078853 -0.173945E-04  0.162E-02    1.37       1.0  T
   7   -100.6079066 -0.213027E-04  0.387E-03    1.36       3.0  T
   8   -100.6079066 -0.438202E-07  0.264E-03    1.36       4.5  T
   9   -100.6079068 -0.210153E-06  0.695E-04    1.36      17.0  T
  10   -100.6079068 -0.243762E-07  0.309E-04    1.36      38.2  T
     SCC iter.                  ...        0 min,  0.078 sec
     gradient                   ...        0 min,  0.069 sec
 * total energy  :  -101.8990980 Eh     change       -0.3318915E-02 Eh
   gradient norm :     0.0550153 Eh/α   predicted    -0.6700666E-02 ( 101.89%)
   displ. norm   :     0.4766487 α      lambda       -0.1017560E-01
   maximum displ.:     0.2353691 α      in ANC's #40, #14, #8, ...

........................................................................
.............................. CYCLE   32 ..............................
........................................................................

 iter      E             dE          RMSdq      gap      omega  full diag
   1   -100.5948721 -0.100595E+03  0.199E-01    1.45       0.0  T
   2   -100.5950520 -0.179860E-03  0.131E-01    1.40       1.0  T
   3   -100.5937703  0.128170E-02  0.124E-01    1.54       1.0  T
   4   -100.5949574 -0.118718E-02  0.491E-02    1.38       1.0  T
   5   -100.5951713 -0.213810E-03  0.240E-02    1.45       1.0  T
   6   -100.5952228 -0.515061E-04  0.918E-03    1.43       1.3  T
   7   -100.5952283 -0.555017E-05  0.248E-03    1.43       4.8  T
   8   -100.5952283  0.387300E-07  0.163E-03    1.43       7.2  T
   9   -100.5952284 -0.158153E-06  0.362E-04    1.43      32.5  T
  10   -100.5952284 -0.430929E-08  0.195E-04    1.43      60.5  T
     SCC iter.                  ...        0 min,  0.078 sec
     gradient                   ...        0 min,  0.072 sec
 * total energy  :  -101.9006370 Eh     change       -0.1538960E-02 Eh
   gradient norm :     0.0598429 Eh/α   predicted    -0.6243718E-02 ( 305.71%)
   displ. norm   :     0.4685897 α      lambda       -0.9776218E-02
   maximum displ.:     0.2041423 α      in ANC's #23, #4, #20, ...

........................................................................
.............................. CYCLE   33 ..............................
........................................................................

 iter      E             dE          RMSdq      gap      omega  full diag
   1   -100.6005578 -0.100601E+03  0.189E-01    1.42       0.0  T
   2   -100.6002899  0.267867E-03  0.138E-01    1.40       1.0  T
   3   -100.6002148  0.751428E-04  0.119E-01    1.44       1.0  T
   4   -100.6008494 -0.634590E-03  0.232E-02    1.39       1.0  T
   5   -100.6008624 -0.130395E-04  0.179E-02    1.44       1.0  T
   6   -100.6008976 -0.351752E-04  0.587E-03    1.41       2.0  T
   7   -100.6008995 -0.190744E-05  0.261E-03    1.42       4.5  T
   8   -100.6008996 -0.989799E-07  0.152E-03    1.41       7.8  T
   9   -100.6008997 -0.115230E-06  0.446E-04    1.42      26.4  T
  10   -100.6008997 -0.142807E-07  0.218E-04    1.42      54.0  T
     SCC iter.                  ...        0 min,  0.078 sec
     gradient                   ...        0 min,  0.069 sec
 * total energy  :  -101.9022078 Eh     change       -0.1570832E-02 Eh
   gradient norm :     0.1220447 Eh/α   predicted    -0.5961441E-02 ( 279.51%)
   displ. norm   :     0.4366696 α      lambda       -0.9672582E-02
   maximum displ.:     0.2084147 α      in ANC's #8, #14, #10, ...

........................................................................
.............................. CYCLE   34 ..............................
........................................................................

 iter      E             dE          RMSdq      gap      omega  full diag
   1   -100.6026209 -0.100603E+03  0.133E-01    1.40       0.0  T
   2   -100.6026123  0.853710E-05  0.103E-01    1.44       1.0  T
   3   -100.6027094 -0.971075E-04  0.810E-02    1.38       1.0  T
   4   -100.6029115 -0.202036E-03  0.323E-02    1.44       1.0  T
   5   -100.6028873  0.241893E-04  0.303E-02    1.38       1.0  T
   6   -100.6029958 -0.108556E-03  0.687E-03    1.41       1.7  T
   7   -100.6029995 -0.369737E-05  0.233E-03    1.41       5.1  T
   8   -100.6029997 -0.129110E-06  0.143E-03    1.41       8.3  T
   9   -100.6029997 -0.242709E-07  0.404E-04    1.41      29.1  T
  10   -100.6029997 -0.140929E-07  0.197E-04    1.41      59.9  T
     SCC iter.                  ...        0 min,  0.078 sec
     gradient                   ...        0 min,  0.069 sec
 * total energy  :  -101.9047896 Eh     change       -0.2581824E-02 Eh
   gradient norm :     0.0970135 Eh/α   predicted    -0.5758475E-02 ( 123.04%)
   displ. norm   :     0.3819598 α      lambda       -0.6838643E-02
   maximum displ.:     0.1534442 α      in ANC's #40, #20, #29, ...

........................................................................
.............................. CYCLE   35 ..............................
........................................................................

 iter      E             dE          RMSdq      gap      omega  full diag
   1   -100.6041923 -0.100604E+03  0.160E-01    1.46       0.0  T
   2   -100.6041676  0.246628E-04  0.968E-02    1.42       1.0  T
   3   -100.6029891  0.117850E-02  0.107E-01    1.57       1.0  T
   4   -100.6042038 -0.121470E-02  0.234E-02    1.42       1.0  T
   5   -100.6042577 -0.538617E-04  0.715E-03    1.45       1.6  T
   6   -100.6042605 -0.282179E-05  0.347E-03    1.44       3.4  T
   7   -100.6042605  0.300834E-07  0.242E-03    1.44       4.9  T
   8   -100.6042608 -0.331426E-06  0.700E-04    1.45      16.8  T
   9   -100.6042608 -0.148493E-07  0.303E-04    1.44      38.9  T
     SCC iter.                  ...        0 min,  0.071 sec
     gradient                   ...        0 min,  0.069 sec
 * total energy  :  -101.9076635 Eh     change       -0.2873875E-02 Eh
   gradient norm :     0.0477362 Eh/α   predicted    -0.3918180E-02 (  36.34%)
   displ. norm   :     0.5204653 α      lambda       -0.5325759E-02
   maximum displ.:     0.2158035 α      in ANC's #40, #8, #5, ...

........................................................................
.............................. CYCLE   36 ..............................
........................................................................

 iter      E             dE          RMSdq      gap      omega  full diag
   1   -100.6129266 -0.100613E+03  0.164E-01    1.52       0.0  T
   2   -100.6129055  0.210851E-04  0.971E-02    1.49       1.0  T
   3   -100.6120041  0.901422E-03  0.101E-01    1.61       1.0  T
   4   -100.6129501 -0.946067E-03  0.173E-02    1.50       1.0  T
   5   -100.6129747 -0.245421E-04  0.733E-03    1.52       1.6  T
   6   -100.6129770 -0.228384E-05  0.422E-03    1.51       2.8  T
   7   -100.6129776 -0.594521E-06  0.231E-03    1.51       5.1  T
   8   -100.6129778 -0.221038E-06  0.709E-04    1.51      16.6  T
   9   -100.6129778 -0.206102E-07  0.292E-04    1.51      40.3  T
     SCC iter.                  ...        0 min,  0.070 sec
     gradient                   ...        0 min,  0.069 sec
 * total energy  :  -101.9082852 Eh     change       -0.6216501E-03 Eh
   gradient norm :     0.0415054 Eh/α   predicted    -0.3384215E-02 ( 444.39%)
   displ. norm   :     0.3995055 α      lambda       -0.5127011E-02
   maximum displ.:     0.2403713 α      in ANC's #14, #20, #4, ...

........................................................................
.............................. CYCLE   37 ..............................
........................................................................

 iter      E             dE          RMSdq      gap      omega  full diag
   1   -100.6096301 -0.100610E+03  0.125E-01    1.53       0.0  T
   2   -100.6096253  0.471477E-05  0.780E-02    1.49       1.0  T
   3   -100.6089546  0.670735E-03  0.825E-02    1.61       1.0  T
   4   -100.6096541 -0.699506E-03  0.193E-02    1.50       1.0  T
   5   -100.6096850 -0.308452E-04  0.561E-03    1.52       2.1  T
   6   -100.6096870 -0.207870E-05  0.241E-03    1.51       4.9  T
   7   -100.6096872 -0.145373E-06  0.123E-03    1.52       9.5  T
   8   -100.6096872 -0.519120E-08  0.854E-04    1.51      13.8  T
   9   -100.6096872 -0.514241E-07  0.220E-04    1.51      53.5  T
     SCC iter.                  ...        0 min,  0.071 sec
     gradient                   ...        0 min,  0.069 sec
 * total energy  :  -101.9114897 Eh     change       -0.3204490E-02 Eh
   gradient norm :     0.0253356 Eh/α   predicted    -0.2972656E-02 (  -7.23%)
   displ. norm   :     0.4317785 α      lambda       -0.2990503E-02
   maximum displ.:     0.1767208 α      in ANC's #8, #10, #5, ...

........................................................................
.............................. CYCLE   38 ..............................
........................................................................

 iter      E             dE          RMSdq      gap      omega  full diag
   1   -100.6088372 -0.100609E+03  0.990E-02    1.54       0.0  T
   2   -100.6088799 -0.427053E-04  0.601E-02    1.53       1.0  T
   3   -100.6088018  0.781156E-04  0.390E-02    1.54       1.0  T
   4   -100.6088804 -0.786497E-04  0.158E-02    1.52       1.0  T
   5   -100.6088949 -0.144435E-04  0.723E-03    1.54       1.6  T
   6   -100.6088988 -0.393267E-05  0.368E-03    1.53       3.2  T
   7   -100.6088999 -0.105109E-05  0.170E-03    1.53       6.9  T
   8   -100.6088999 -0.813191E-07  0.106E-03    1.53      11.1  T
   9   -100.6089000 -0.417353E-07  0.202E-04    1.53      58.3  T
  10   -100.6089000 -0.195605E-08  0.119E-04    1.53      99.0  T
     SCC iter.                  ...        0 min,  0.079 sec
     gradient                   ...        0 min,  0.069 sec
 * total energy  :  -101.9132996 Eh     change       -0.1809945E-02 Eh
   gradient norm :     0.0222317 Eh/α   predicted    -0.1774027E-02 (  -1.98%)
   displ. norm   :     0.5911678 α      lambda       -0.2698085E-02
   maximum displ.:     0.2203673 α      in ANC's #20, #4, #5, ...

........................................................................
.............................. CYCLE   39 ..............................
........................................................................

 iter      E             dE          RMSdq      gap      omega  full diag
   1   -100.6134803 -0.100613E+03  0.148E-01    1.60       0.0  T
   2   -100.6134213  0.590346E-04  0.912E-02    1.53       1.0  T
   3   -100.6124642  0.957072E-03  0.105E-01    1.70       1.0  T
   4   -100.6135269 -0.106266E-02  0.191E-02    1.57       1.0  T
   5   -100.6135559 -0.289969E-04  0.511E-03    1.58       2.3  T
   6   -100.6135572 -0.133902E-05  0.262E-03    1.57       4.5  T
   7   -100.6135573 -0.110868E-06  0.176E-03    1.57       6.7  T
   8   -100.6135575 -0.135262E-06  0.343E-04    1.57      34.4  T
   9   -100.6135575 -0.214816E-08  0.173E-04    1.57      68.0  T
     SCC iter.                  ...        0 min,  0.070 sec
     gradient                   ...        0 min,  0.069 sec
 * total energy  :  -101.9152638 Eh     change       -0.1964199E-02 Eh
   gradient norm :     0.0283292 Eh/α   predicted    -0.1820506E-02 (  -7.32%)
   displ. norm   :     0.5942169 α      lambda       -0.2519118E-02
   maximum displ.:     0.2158830 α      in ANC's #5, #8, #4, ...

........................................................................
.............................. CYCLE   40 ..............................
........................................................................

 iter      E             dE          RMSdq      gap      omega  full diag
   1   -100.6204656 -0.100620E+03  0.981E-02    1.64       0.0  T
   2   -100.6204490  0.165719E-04  0.597E-02    1.60       1.0  T
   3   -100.6200206  0.428485E-03  0.680E-02    1.71       1.0  T
   4   -100.6204887 -0.468131E-03  0.948E-03    1.62       1.2  T
   5   -100.6204954 -0.676243E-05  0.339E-03    1.62       3.5  T
   6   -100.6204958 -0.345351E-06  0.178E-03    1.62       6.6  T
   7   -100.6204958 -0.586529E-07  0.119E-03    1.62       9.9  T
   8   -100.6204959 -0.652528E-07  0.432E-04    1.62      27.3  T
   9   -100.6204959 -0.641742E-08  0.143E-04    1.62      82.2  T
     SCC iter.                  ...        0 min,  0.071 sec
     gradient                   ...        0 min,  0.069 sec
 * total energy  :  -101.9172091 Eh     change       -0.1945259E-02 Eh
   gradient norm :     0.0211153 Eh/α   predicted    -0.1704303E-02 ( -12.39%)
   displ. norm   :     0.6417440 α      lambda       -0.2124468E-02
   maximum displ.:     0.2065152 α      in ANC's #5, #29, #8, ...

........................................................................
.............................. CYCLE   41 ..............................
........................................................................

 iter      E             dE          RMSdq      gap      omega  full diag
   1   -100.6238255 -0.100624E+03  0.117E-01    1.68       0.0  T
   2   -100.6238192  0.629016E-05  0.713E-02    1.63       1.0  T
   3   -100.6233658  0.453384E-03  0.704E-02    1.75       1.0  T
   4   -100.6238506 -0.484773E-03  0.143E-02    1.65       1.0  T
   5   -100.6238673 -0.167649E-04  0.387E-03    1.66       3.0  T
   6   -100.6238678 -0.456354E-06  0.221E-03    1.65       5.3  T
   7   -100.6238680 -0.207897E-06  0.113E-03    1.66      10.4  T
   8   -100.6238680 -0.447145E-07  0.529E-04    1.66      22.3  T
   9   -100.6238681 -0.103886E-07  0.142E-04    1.66      83.2  T
     SCC iter.                  ...        0 min,  0.070 sec
     gradient                   ...        0 min,  0.069 sec
 * total energy  :  -101.9188097 Eh     change       -0.1600614E-02 Eh
   gradient norm :     0.0263970 Eh/α   predicted    -0.1499705E-02 (  -6.30%)
   displ. norm   :     0.6872500 α      lambda       -0.2252299E-02
   maximum displ.:     0.2469551 α      in ANC's #8, #23, #10, ...

........................................................................
.............................. CYCLE   42 ..............................
........................................................................

 iter      E             dE          RMSdq      gap      omega  full diag
   1   -100.6271178 -0.100627E+03  0.995E-02    1.69       0.0  T
   2   -100.6271237 -0.591733E-05  0.594E-02    1.66       1.0  T
   3   -100.6269335  0.190246E-03  0.451E-02    1.74       1.0  T
   4   -100.6271256 -0.192151E-03  0.138E-02    1.67       1.0  T
   5   -100.6271427 -0.170644E-04  0.310E-03    1.68       3.8  T
   6   -100.6271430 -0.351262E-06  0.190E-03    1.68       6.2  T
   7   -100.6271431 -0.947596E-07  0.626E-04    1.68      18.8  T
   8   -100.6271431 -0.643801E-08  0.414E-04    1.68      28.5  T
     SCC iter.                  ...        0 min,  0.063 sec
     gradient                   ...        0 min,  0.070 sec
 * total energy  :  -101.9203744 Eh     change       -0.1564701E-02 Eh
   gradient norm :     0.0257300 Eh/α   predicted    -0.1658046E-02 (   5.97%)
   displ. norm   :     0.5610201 α      lambda       -0.1781842E-02
   maximum displ.:     0.2105050 α      in ANC's #29, #11, #23, ...
 * RMSD in coord.:     0.8217733 α      energy gain  -0.1325224E+00 Eh

generating ANC from model Hessian ...
Using Lindh-Hessian (1995)
 Shifting diagonal of input Hessian by    9.9635852295005354E-003
 Lowest  eigenvalues of input Hessian
    0.000000    0.000000    0.000000    0.000000    0.000000    0.000000
    0.010000    0.010117    0.010191    0.010313    0.010517    0.010589
    0.010845    0.010932    0.011131    0.011320    0.011500    0.011988
 Highest eigenvalues
    2.041661    2.113470    2.150539    2.181440    2.213558    2.529613


........................................................................
.............................. CYCLE   43 ..............................
........................................................................

 iter      E             dE          RMSdq      gap      omega  full diag
   1   -100.6307170 -0.100631E+03  0.867E-02    1.69       0.0  T
   2   -100.6307188 -0.186306E-05  0.539E-02    1.68       1.0  T
   3   -100.6306256  0.932153E-04  0.393E-02    1.68       1.0  T
   4   -100.6307317 -0.106058E-03  0.672E-03    1.69       1.8  T
   5   -100.6307357 -0.402431E-05  0.291E-03    1.68       4.0  T
   6   -100.6307361 -0.384613E-06  0.170E-03    1.69       6.9  T
   7   -100.6307362 -0.950021E-07  0.949E-04    1.68      12.4  T
   8   -100.6307362 -0.440453E-07  0.255E-04    1.68      46.2  T
     SCC iter.                  ...        0 min,  0.063 sec
     gradient                   ...        0 min,  0.069 sec
 * total energy  :  -101.9217894 Eh     change       -0.1414996E-02 Eh
   gradient norm :     0.0199548 Eh/α   predicted     0.0000000E+00 (-100.00%)
   displ. norm   :     0.1562957 α      lambda       -0.8041828E-03
   maximum displ.:     0.0763039 α      in ANC's #9, #23, #7, ...

........................................................................
.............................. CYCLE   44 ..............................
........................................................................

 iter      E             dE          RMSdq      gap      omega  full diag
   1   -100.6302724 -0.100630E+03  0.419E-02    1.68       0.0  T
   2   -100.6302727 -0.285926E-06  0.261E-02    1.68       1.0  T
   3   -100.6302508  0.219583E-04  0.215E-02    1.67       1.0  T
   4   -100.6302771 -0.262913E-04  0.271E-03    1.68       4.3  T
   5   -100.6302776 -0.502455E-06  0.102E-03    1.68      11.6  T
   6   -100.6302776 -0.384205E-07  0.783E-04    1.68      15.1  T
   7   -100.6302776 -0.516336E-07  0.290E-04    1.68      40.7  T
     SCC iter.                  ...        0 min,  0.055 sec
     gradient                   ...        0 min,  0.070 sec
 * total energy  :  -101.9223834 Eh     change       -0.5939890E-03 Eh
   gradient norm :     0.0217649 Eh/α   predicted    -0.4119469E-03 ( -30.65%)
   displ. norm   :     0.4157325 α      lambda       -0.1416107E-02
   maximum displ.:     0.2135481 α      in ANC's #9, #23, #7, ...

........................................................................
.............................. CYCLE   45 ..............................
........................................................................

 iter      E             dE          RMSdq      gap      omega  full diag
   1   -100.6274324 -0.100627E+03  0.944E-02    1.66       0.0  T
   2   -100.6274338 -0.144629E-05  0.588E-02    1.67       1.0  T
   3   -100.6273246  0.109211E-03  0.497E-02    1.65       1.0  T
   4   -100.6274597 -0.135100E-03  0.703E-03    1.67       1.7  T
   5   -100.6274630 -0.321745E-05  0.248E-03    1.66       4.7  T
   6   -100.6274633 -0.326421E-06  0.171E-03    1.67       6.9  T
   7   -100.6274635 -0.247158E-06  0.652E-04    1.66      18.1  T
   8   -100.6274635 -0.157206E-07  0.253E-04    1.66      46.6  T
     SCC iter.                  ...        0 min,  0.063 sec
     gradient                   ...        0 min,  0.069 sec
 * total energy  :  -101.9230663 Eh     change       -0.6829072E-03 Eh
   gradient norm :     0.0346519 Eh/α   predicted    -0.8304615E-03 (  21.61%)
   displ. norm   :     0.3034207 α      lambda       -0.8888341E-03
   maximum displ.:     0.1670708 α      in ANC's #9, #23, #7, ...

........................................................................
.............................. CYCLE   46 ..............................
........................................................................

 iter      E             dE          RMSdq      gap      omega  full diag
   1   -100.6275494 -0.100628E+03  0.472E-02    1.66       0.0  T
   2   -100.6275493  0.147782E-06  0.289E-02    1.66       1.0  T
   3   -100.6275138  0.354092E-04  0.240E-02    1.67       1.0  T
   4   -100.6275535 -0.396824E-04  0.256E-03    1.66       4.6  T
   5   -100.6275540 -0.442322E-06  0.115E-03    1.66      10.2  T
   6   -100.6275540 -0.286375E-07  0.817E-04    1.66      14.4  T
   7   -100.6275541 -0.510135E-07  0.331E-04    1.66      35.6  T
     SCC iter.                  ...        0 min,  0.055 sec
     gradient                   ...        0 min,  0.069 sec
 * total energy  :  -101.9237779 Eh     change       -0.7116286E-03 Eh
   gradient norm :     0.0146360 Eh/α   predicted    -0.4853950E-03 ( -31.79%)
   displ. norm   :     0.4848888 α      lambda       -0.1265782E-02
   maximum displ.:     0.2617095 α      in ANC's #9, #7, #26, ...

........................................................................
.............................. CYCLE   47 ..............................
........................................................................

 iter      E             dE          RMSdq      gap      omega  full diag
   1   -100.6295192 -0.100630E+03  0.699E-02    1.67       0.0  T
   2   -100.6295218 -0.260941E-05  0.416E-02    1.66       1.0  T
   3   -100.6294790  0.428265E-04  0.227E-02    1.67       1.0  T
   4   -100.6295243 -0.452817E-04  0.464E-03    1.66       2.5  T
   5   -100.6295257 -0.145721E-05  0.181E-03    1.66       6.5  T
   6   -100.6295258 -0.535956E-07  0.130E-03    1.66       9.0  T
   7   -100.6295259 -0.115435E-06  0.469E-04    1.66      25.1  T
   8   -100.6295259 -0.912451E-08  0.213E-04    1.66      55.4  T
     SCC iter.                  ...        0 min,  0.063 sec
     gradient                   ...        0 min,  0.070 sec
 * total energy  :  -101.9247541 Eh     change       -0.9762060E-03 Eh
   gradient norm :     0.0196858 Eh/α   predicted    -0.7817064E-03 ( -19.92%)
   displ. norm   :     0.5548092 α      lambda       -0.9744726E-03
   maximum displ.:     0.2998925 α      in ANC's #9, #7, #5, ...

........................................................................
.............................. CYCLE   48 ..............................
........................................................................

 iter      E             dE          RMSdq      gap      omega  full diag
   1   -100.6298641 -0.100630E+03  0.824E-02    1.66       0.0  T
   2   -100.6298682 -0.409343E-05  0.490E-02    1.66       1.0  T
   3   -100.6298255  0.426405E-04  0.240E-02    1.66       1.0  T
   4   -100.6298717 -0.461155E-04  0.453E-03    1.67       2.6  T
   5   -100.6298729 -0.127938E-05  0.170E-03    1.66       6.9  T
   6   -100.6298730 -0.403662E-07  0.120E-03    1.66       9.8  T
   7   -100.6298731 -0.797152E-07  0.603E-04    1.66      19.5  T
   8   -100.6298731 -0.194646E-07  0.263E-04    1.66      44.8  T
     SCC iter.                  ...        0 min,  0.062 sec
     gradient                   ...        0 min,  0.069 sec
 * total energy  :  -101.9254902 Eh     change       -0.7360723E-03 Eh
   gradient norm :     0.0104045 Eh/α   predicted    -0.6372158E-03 ( -13.43%)
[...]
         ::.................................................::
         :: SCC energy              -100.638153481064 Eh    ::
         :: -> isotropic ES            0.112368774366 Eh    ::
         :: -> anisotropic ES          0.001213281272 Eh    ::
         :: -> anisotropic XC          0.042539413203 Eh    ::
         :: -> dispersion             -0.074220472661 Eh    ::
         :: repulsion energy           1.523617276061 Eh    ::
         :: add. restraining          -2.815982848349 Eh    ::
         :: total charge               1.000000000000 e     ::
         :::::::::::::::::::::::::::::::::::::::::::::::::::::

           -------------------------------------------------
          |                Property Printout                |
           -------------------------------------------------

    * Orbital Energies and Occupations

         #    Occupation            Energy/Eh            Energy/eV
      -------------------------------------------------------------
         1        2.0000           -0.8258610             -22.4728
       ...           ...                  ...                  ...
        78        1.9983           -0.5272504             -14.3472
        79        1.9982           -0.5266215             -14.3301
        80        1.9980           -0.5253417             -14.2953
        81        1.9973           -0.5204147             -14.1612
        82        1.9958           -0.5133198             -13.9681
        83        1.9951           -0.5107728             -13.8988
        84        1.9942           -0.5080655             -13.8252
        85        1.9931           -0.5053695             -13.7518
        86        1.9804           -0.4887449             -13.2994
        87        1.9622           -0.4781908             -13.0122
        88        1.9376           -0.4700520             -12.7908
        89        1.8685           -0.4576695             -12.4538
        90        1.8472           -0.4551122             -12.3842 (HOMO)
        91        0.3967           -0.3935389             -10.7087 (LUMO)
        92        0.0238           -0.3456507              -9.4056
        93        0.0140           -0.3371679              -9.1748
        94        0.0034           -0.3146187              -8.5612
        95        0.0028           -0.3115336              -8.4773
        96        0.0010           -0.2951191              -8.0306
        97        0.0000           -0.1888513              -5.1389
        98        0.0000           -0.1598665              -4.3502
        99                         -0.1298547              -3.5335
       100                         -0.0914506              -2.4885
       101                         -0.0685846              -1.8663
       ...                                ...                  ...
       171                          1.4621816              39.7880
      -------------------------------------------------------------
                  HL-Gap            0.0615733 Eh            1.6755 eV
             Fermi-level           -0.4156535 Eh          -11.3105 eV

     #   Z          covCN         q      C6AA      α(0)
     1   7 N        1.774    -0.269    27.798     7.807
     2   6 C        2.827     0.102    25.732     8.312
     3   6 C        3.908     0.006    20.413     6.422
     4   6 C        2.974     0.002    27.972     8.675
     5   6 C        2.920    -0.080    30.012     8.984
     6   6 C        2.862     0.129    25.170     8.223
     7   8 O        1.706    -0.230    17.818     5.699
     8   6 C        3.644     0.028    20.443     6.499
     9   6 C        2.864     0.129    25.178     8.225
    10   8 O        1.706    -0.228    17.789     5.695
    11   6 C        3.645     0.027    20.459     6.501
    12   6 C        2.914    -0.074    29.840     8.958
    13   6 C        2.921    -0.053    29.306     8.877
    14   6 C        3.813    -0.065    21.735     6.636
    15   6 C        3.802    -0.069    21.823     6.651
    16   6 C        2.845     0.006    27.883     8.654
    17   7 N        2.729     0.014    21.016     6.809
    18   6 C        3.757    -0.022    21.025     6.537
    19   6 C        3.802    -0.062    21.684     6.630
    20   6 C        3.142    -0.029    28.460     8.730
    21   6 C        3.754    -0.002    20.663     6.482
    22   6 C        3.100    -0.081    29.901     8.961
    23   6 C        3.361     0.160    21.912     7.347
    24   8 O        1.704    -0.216    17.588     5.662
    25   6 C        3.662     0.021    20.490     6.494
    26   6 C        4.259    -0.086    22.051     6.669
    27   8 O        1.701    -0.308    19.126     5.905
    28   6 C        3.655     0.032    20.338     6.475
    29   6 C        4.055     0.118    18.582     6.123
    30   6 C        3.700    -0.071    22.027     6.712
    31   6 C        3.853    -0.007    20.668     6.466
    32   6 C        3.756    -0.119    22.828     6.812
    33   6 C        3.755    -0.118    22.821     6.812
    34   1 H        0.926     0.052     2.298     2.371
    35   1 H        0.924     0.054     2.274     2.358
    36   1 H        0.925     0.081     1.969     2.195
    37   1 H        0.924     0.046     2.367     2.406
    38   1 H        0.924     0.055     2.256     2.349
    39   1 H        0.925     0.081     1.969     2.194
    40   1 H        0.924     0.049     2.333     2.389
    41   1 H        0.926     0.053     2.281     2.362
    42   1 H        0.926     0.041     2.441     2.443
    43   1 H        0.925     0.059     2.207     2.323
    44   1 H        0.924     0.053     2.281     2.362
    45   1 H        0.925     0.066     2.125     2.279
    46   1 H        0.923     0.079     1.986     2.204
    47   1 H        0.922     0.006     2.952     2.687
    48   1 H        0.926     0.068     2.103     2.268
    49   1 H        0.924     0.090     1.884     2.146
    50   1 H        0.924     0.068     2.107     2.270
    51   1 H        0.924     0.059     2.216     2.328
    52   1 H        0.924     0.061     2.188     2.313
    53   1 H        0.930     0.103     1.755     2.071
    54   1 H        0.926     0.054     2.270     2.356
    55   1 H        0.924     0.059     2.214     2.327
    56   1 H        0.924     0.064     2.148     2.292
    57   1 H        0.925     0.085     1.923     2.169
    58   1 H        0.924     0.052     2.293     2.368
    59   1 H        0.925     0.067     2.122     2.278
    60   1 H        0.924     0.042     2.418     2.432
    61   1 H        0.923     0.031     2.570     2.507
    62   1 H        0.924     0.075     2.036     2.231
    63   1 H        0.924     0.079     1.987     2.204
    64   1 H        0.925     0.084     1.935     2.175
    65   1 H        0.924     0.037     2.490     2.468
    66   1 H        0.925     0.069     2.098     2.265
    67   1 H        0.925     0.036     2.506     2.476
    68   1 H        0.925     0.051     2.307     2.375
    69   1 H        0.925     0.060     2.195     2.317
    70   1 H        0.925     0.034     2.526     2.486
    71   1 H        0.925     0.054     2.269     2.356
    72   1 H        0.860     0.156     1.358     1.826

 Mol. C6AA /au·bohr⁶  :      46292.242153
 Mol. C8AA /au·bohr⁸  :    1052700.674337
 Mol. α(0) /au        :        326.667414


Wiberg/Mayer (AO) data.
largest (>0.10) Wiberg bond orders for each atom

 ---------------------------------------------------------------------------
     #   Z sym  total        # sym  WBO       # sym  WBO       # sym  WBO
 ---------------------------------------------------------------------------
     1   7 N    3.038 --     2 C    1.957    72 H    0.942
     2   6 C    3.929 --     1 N    1.957     3 C    0.994    47 H    0.902
     3   6 C    3.975 --     2 C    0.994     4 C    0.969    14 C    0.958
                            31 C    0.942
     4   6 C    3.948 --    13 C    1.414     5 C    1.368     3 C    0.969
     5   6 C    3.962 --     6 C    1.401     4 C    1.368    34 H    0.958
     6   6 C    3.904 --     5 C    1.401     9 C    1.222     7 O    1.098
     7   8 O    2.253 --     6 C    1.098     8 C    0.979
     8   6 C    3.933 --     7 O    0.979    36 H    0.977    37 H    0.974
                            35 H    0.973
     9   6 C    3.901 --    12 C    1.391     6 C    1.222    10 O    1.102
    10   8 O    2.252 --     9 C    1.102    11 C    0.977
    11   6 C    3.931 --    10 O    0.977    39 H    0.977    40 H    0.973
                            38 H    0.973
    12   6 C    3.962 --    13 C    1.405     9 C    1.391    41 H    0.964
    13   6 C    3.954 --     4 C    1.414    12 C    1.405    42 H    0.963
    14   6 C    3.975 --    15 C    0.984    44 H    0.972    43 H    0.969
                             3 C    0.958
    15   6 C    3.985 --    16 C    1.058    14 C    0.984    45 H    0.960
                            46 H    0.925
    16   6 C    3.594 --    17 N    1.404    15 C    1.058    48 H    0.958
    17   7 N    3.484 --    16 C    1.404    30 C    0.999    18 C    0.989
    18   6 C    3.945 --    17 N    0.989    50 H    0.967    49 H    0.962
                            19 C    0.949
    19   6 C    3.974 --    20 C    1.031    51 H    0.969    52 H    0.965
                            18 C    0.949
    20   6 C    3.832 --    21 C    1.626    19 C    1.031    29 C    0.971
    21   6 C    3.848 --    20 C    1.626    22 C    1.111    26 C    0.953
    22   6 C    3.898 --    23 C    1.587    21 C    1.111    54 H    0.966
                            24 O    0.120
    23   6 C    3.884 --    22 C    1.587    24 O    1.154    26 C    0.967
    24   8 O    2.307 --    23 C    1.154    25 C    0.956    22 C    0.120
    25   6 C    3.922 --    57 H    0.978    56 H    0.976    55 H    0.976
                            24 O    0.956
    26   6 C    3.935 --    53 H    0.970    23 C    0.967    21 C    0.953
                            29 C    0.911
    27   8 O    2.090 --    29 C    0.998    28 C    0.976
    28   6 C    3.936 --    59 H    0.978    60 H    0.977    27 O    0.976
                            58 H    0.976
    29   6 C    3.935 --    27 O    0.998    20 C    0.971    61 H    0.945
                            26 C    0.911
    30   6 C    3.957 --    17 N    0.999    64 H    0.976    62 H    0.965
                            63 H    0.965
    31   6 C    3.972 --    33 C    1.009    32 C    1.008    65 H    0.960
                             3 C    0.942
    32   6 C    3.979 --    31 C    1.008    67 H    0.982    68 H    0.981
                            66 H    0.974
    33   6 C    3.983 --    31 C    1.009    70 H    0.983    71 H    0.980
                            69 H    0.977
    34   1 H    0.996 --     5 C    0.958
    35   1 H    0.993 --     8 C    0.973
    36   1 H    0.993 --     8 C    0.977
    37   1 H    0.994 --     8 C    0.974
    38   1 H    0.993 --    11 C    0.973
    39   1 H    0.993 --    11 C    0.977
    40   1 H    0.993 --    11 C    0.973
    41   1 H    0.996 --    12 C    0.964
    42   1 H    0.998 --    13 C    0.963
    43   1 H    0.995 --    14 C    0.969
    44   1 H    0.996 --    14 C    0.972
    45   1 H    0.995 --    15 C    0.960
    46   1 H    0.969 --    15 C    0.925
    47   1 H    0.986 --     2 C    0.902
    48   1 H    0.995 --    16 C    0.958
    49   1 H    0.990 --    18 C    0.962
    50   1 H    0.993 --    18 C    0.967
    51   1 H    0.996 --    19 C    0.969
    52   1 H    0.991 --    19 C    0.965
    53   1 H    0.989 --    26 C    0.970
    54   1 H    0.995 --    22 C    0.966
    55   1 H    0.994 --    25 C    0.976
    56   1 H    0.993 --    25 C    0.976
    57   1 H    0.992 --    25 C    0.978
    58   1 H    0.995 --    28 C    0.976
    59   1 H    0.995 --    28 C    0.978
    60   1 H    0.996 --    28 C    0.977
    61   1 H    0.987 --    29 C    0.945
    62   1 H    0.984 --    30 C    0.965
    63   1 H    0.988 --    30 C    0.965
    64   1 H    0.992 --    30 C    0.976
    65   1 H    0.992 --    31 C    0.960
    66   1 H    0.991 --    32 C    0.974
    67   1 H    0.997 --    32 C    0.982
    68   1 H    0.994 --    32 C    0.981
    69   1 H    0.993 --    33 C    0.977
    70   1 H    0.997 --    33 C    0.983
    71   1 H    0.994 --    33 C    0.980
    72   1 H    0.970 --     1 N    0.942
 ---------------------------------------------------------------------------

Topologies differ in total number of bonds
Writing topology from bond orders to xtbtopo.mol

molecular dipole:
                 x           y           z       tot (Debye)
 q only:        1.234       0.226      -0.617
   full:        1.767       0.111      -0.739       4.878
molecular quadrupole (traceless):
                xx          xy          yy          xz          yz          zz
 q only:       52.464       7.543     -21.202       9.853      -5.223     -31.262
  q+dip:       52.628      10.288     -20.952      13.292      -7.443     -31.675
   full:       52.463       9.485     -22.154      11.413      -8.123     -30.309

           -------------------------------------------------
          |                Geometry Summary                 |
           -------------------------------------------------

      molecular mass/u    :      455.6105846
   center of mass at/Å    :       -0.0497907       0.0092635      -0.0709945
  moments of inertia/u·Å² :        0.2548424E+04   0.9837868E+04   0.1093461E+05
rotational constants/cm⁻¹ :        0.6614924E-02   0.1713545E-02   0.1541676E-02

 * 65 selected distances

     #   Z          #   Z                                           value/Å
     1   7 N        2   6 C                                       1.2488442
     4   6 C        5   6 C                                       1.3964377
     5   6 C        6   6 C                                       1.3847484
     6   6 C        7   8 O                                       1.3494443
     7   8 O        8   6 C                                       1.4078477
     6   6 C        9   6 C                                       1.4211975
     9   6 C       10   8 O                                       1.3479727
    10   8 O       11   6 C                                       1.4086228
     9   6 C       12   6 C                                       1.3857853
     4   6 C       13   6 C                                       1.3861783
    12   6 C       13   6 C                                       1.3890208
    14   6 C       15   6 C                                       1.5376757 (max)
    15   6 C       16   6 C                                       1.4804151
    16   6 C       17   7 N                                       1.3274777
    17   7 N       18   6 C                                       1.4428656
    19   6 C       20   6 C                                       1.4800019
    20   6 C       21   6 C                                       1.3602656
    21   6 C       22   6 C                                       1.4523056
    22   6 C       23   6 C                                       1.3647690
    23   6 C       24   8 O                                       1.3217510
    24   8 O       25   6 C                                       1.4183292
    21   6 C       26   6 C                                       1.5354298
    23   6 C       26   6 C                                       1.5330530
    27   8 O       28   6 C                                       1.4132156
    27   8 O       29   6 C                                       1.3955790
    17   7 N       30   6 C                                       1.4432295
    31   6 C       32   6 C                                       1.5267406
    31   6 C       33   6 C                                       1.5261033
     5   6 C       34   1 H                                       1.0772568
     8   6 C       35   1 H                                       1.0941303
     8   6 C       36   1 H                                       1.0881868
     8   6 C       37   1 H                                       1.0950887
    11   6 C       38   1 H                                       1.0939549
    11   6 C       39   1 H                                       1.0882148
    11   6 C       40   1 H                                       1.0946665
    12   6 C       41   1 H                                       1.0778109
    13   6 C       42   1 H                                       1.0789191
    14   6 C       43   1 H                                       1.0893668
    14   6 C       44   1 H                                       1.0906360
    15   6 C       45   1 H                                       1.0885800
    15   6 C       46   1 H                                       1.0985173
    16   6 C       48   1 H                                       1.0805395
    18   6 C       49   1 H                                       1.0908287
    18   6 C       50   1 H                                       1.0915568
    19   6 C       51   1 H                                       1.0915869
    19   6 C       52   1 H                                       1.0927102
    26   6 C       53   1 H                                       0.7420439 (min)
    22   6 C       54   1 H                                       1.0711427
    25   6 C       55   1 H                                       1.0930572
    25   6 C       56   1 H                                       1.0925601
    25   6 C       57   1 H                                       1.0874584
    28   6 C       58   1 H                                       1.0942285
    28   6 C       59   1 H                                       1.0878649
    28   6 C       60   1 H                                       1.0950100
    29   6 C       61   1 H                                       1.1016353
    30   6 C       62   1 H                                       1.0926278
    30   6 C       63   1 H                                       1.0920369
    30   6 C       64   1 H                                       1.0875601
    31   6 C       65   1 H                                       1.0963714
    32   6 C       66   1 H                                       1.0851967
    32   6 C       67   1 H                                       1.0871862
    32   6 C       68   1 H                                       1.0868530
    33   6 C       69   1 H                                       1.0856976
    33   6 C       70   1 H                                       1.0868273
    33   6 C       71   1 H                                       1.0868876

 * 4 distinct bonds (by element types)

   Z      Z             #   av. dist./Å        max./Å        min./Å
   1 H    6 C          37     1.0798594     1.1016353     0.7420439
   6 C    6 C          16     1.4475080     1.5376757     1.3602656
   6 C    7 N           4     1.3656043     1.4432295     1.2488442
   6 C    8 O           8     1.3828453     1.4183292     1.3217510


optimized geometry written to: xtbopt.xyz


           -------------------------------------------------
          | TOTAL ENERGY             -101.928933932025 Eh   |
          | GRADIENT NORM               0.002754600286 Eh/α |
          | HOMO-LUMO GAP               1.675495527625 eV   |
           -------------------------------------------------

------------------------------------------------------------------------
 * finished run on 2024/04/06 at 11:17:15.967     
------------------------------------------------------------------------
 total:
 * wall-time:     0 d,  0 h,  0 min, 11.854 sec
 *  cpu-time:     0 d,  0 h,  0 min, 11.821 sec
 * ratio c/w:     0.997 speedup
 SCF:
 * wall-time:     0 d,  0 h,  0 min,  0.189 sec
 *  cpu-time:     0 d,  0 h,  0 min,  0.189 sec
 * ratio c/w:     0.999 speedup
 ANC optimizer:
 * wall-time:     0 d,  0 h,  0 min, 11.620 sec
 *  cpu-time:     0 d,  0 h,  0 min, 11.606 sec
 * ratio c/w:     0.999 speedup

