25
 energy: -43.835892764406 gnorm: 0.068777509442 xtb: 6.6.1 (8d0f1dd)
C            3.35469367856080        1.15631507863484        0.09519087343464
N            2.33644474422486        0.13093718843851        0.04098967914459
C            2.60642683571098       -1.23510144293942        0.03095288132577
N            1.41456608748712       -1.92322944618258        0.00015707449478
C            0.39331998968233       -1.02998904857371       -0.00891485453852
C            0.92904114620738        0.25236814095635        0.01523811133591
C            0.06578628141645        1.40004762026643       -0.01017632727570
O            0.46455309127718        2.56988970214710       -0.00577266445699
N           -1.27371330747183        1.05160496305612       -0.03231706834832
C           -2.24592475024302        2.13951034704501       -0.05166513807573
C           -1.83505381932959       -0.20204360736890       -0.04859395193087
O           -3.02076200826319       -0.38837326919266       -0.07132705126583
N           -0.94243587568466       -1.29178196657247       -0.03777382031286
C           -1.47613607633561       -2.63513707726604       -0.05948818290636
H            3.84153956899392        1.20638552925078        1.06020928860055
H            4.11508448266032        1.03257089194696       -0.67001365533222
H            2.83500195208570        2.06692373464007       -0.05178499193087
H            3.56823691045056       -1.67037607764717        0.04059521641678
H           -1.70301146336114        3.06878826147896       -0.02940852959578
H           -2.85546611067901        2.07961002316360       -0.95467802379202
H           -2.90537051163360        2.06456737494517        0.81335974152103
H           -1.17439959778983       -3.18430779821092        0.83309856827184
H           -1.15014444853718       -3.16636081700007       -0.95208338040469
H           -2.56605869554458       -2.54620832241785       -0.07367924912232
H            1.35736721618710       -2.93359951559332       -0.01435253573986
25
 energy: -43.838047205936 gnorm: 0.031821219713 xtb: 6.6.1 (8d0f1dd)
C            3.32432450549528        1.16105758719864        0.09557254851373
N            2.33219086575435        0.12314417497557        0.03853472204296
C            2.60900737275213       -1.23946428027364        0.03237699671699
N            1.41442970999248       -1.92394906609705        0.00078038843336
C            0.40196547966323       -1.03108182425768       -0.00901291074767
C            0.93439855885228        0.25012136478895        0.01443656329868
C            0.08613134755970        1.39816722227462       -0.00811325566585
O            0.47022413605352        2.57341212815684       -0.00631219165950
N           -1.27286861102681        1.04968515405864       -0.03239179187564
C           -2.24172737367976        2.13791483560195       -0.05170449157749
C           -1.82967759432703       -0.20019821614307       -0.04875839571563
O           -3.02551743418398       -0.38930407677777       -0.07183815485728
N           -0.93693144050303       -1.28718095678264       -0.03772514374205
C           -1.46917893910061       -2.63011629516799       -0.05895364682001
H            3.82187588513957        1.18453657689788        1.06767310992154
H            4.08318284010980        1.01559482762769       -0.67491759677734
H            2.81143398186324        2.10020145498924       -0.05786578465646
H            3.57614516121258       -1.67654910050951        0.04180272398170
H           -1.68700848697980        3.06938403349309       -0.02892585170453
H           -2.85043074781655        2.07824683499103       -0.95487880801543
H           -2.90067399126320        2.06319830154461        0.81387378426337
H           -1.16793786748003       -3.18148426722305        0.83391718945953
H           -1.14292395233605       -3.16390231560012       -0.95300480657543
H           -2.55640663578555       -2.53982978494706       -0.07329475505207
H            1.34955855010570       -2.92859384581438       -0.01350843167253
25
 energy: -43.838603022539 gnorm: 0.018735036716 xtb: 6.6.1 (8d0f1dd)
C            3.34010245713013        1.15270598723447        0.09687093342247
N            2.33749822953076        0.12363549468558        0.03862529355151
C            2.60913126842419       -1.23680414998537        0.03323353483674
N            1.41355246669347       -1.91982946537791        0.00044517119316
C            0.40440961052656       -1.02965749635692       -0.00877058888343
C            0.93796769056372        0.25410907680638        0.01452035077073
C            0.09270367057723        1.39821556776793       -0.00793008589438
O            0.45798837537518        2.57896292000777       -0.00665852411733
N           -1.28201859116225        1.04763694964921       -0.03294378832406
C           -2.25352042750145        2.13351361295455       -0.05209395366196
C           -1.83029943955902       -0.20059077196075       -0.04838311452491
O           -3.03050743835928       -0.39389440583556       -0.07113557867595
N           -0.93823149744865       -1.28598573587062       -0.03753761797598
C           -1.47563213810045       -2.62905046081788       -0.05873839492562
H            3.84725823811529        1.18941267900537        1.06887823054431
H            4.11221844630859        1.01469441832707       -0.66856534505300
H            2.83663386477964        2.10202184324539       -0.06223318990830
H            3.57675778028808       -1.67570172453573        0.03940899206529
H           -1.70299571932168        3.07117174845664       -0.02961061555162
H           -2.86246887011014        2.07433031317056       -0.95451691750255
H           -2.91213056901758        2.05952874121324        0.81346080104208
H           -1.17730546336634       -3.18476051634001        0.83322202310527
H           -1.15261924736259       -3.16697647941382       -0.95309261169383
H           -2.56265631967530       -2.54115984958433       -0.07331095891282
H            1.34774894274336       -2.92251782944050       -0.01538203540888
25
 energy: -43.838800103130 gnorm: 0.011902533978 xtb: 6.6.1 (8d0f1dd)
C            3.33359695949054        1.15113855170754        0.09585728982032
N            2.33433519085507        0.12043152542585        0.03844423350686
C            2.60581104243495       -1.23817244598042        0.03363084338344
N            1.41240447191535       -1.92390617551539        0.00115957482207
C            0.40139302011593       -1.03570539619361       -0.00867592034750
C            0.93399647299212        0.25017548302126        0.01500731114652
C            0.09701472724613        1.39432437116719       -0.00819960493128
O            0.45779211098349        2.57495812954567       -0.00591840784646
N           -1.28364472805701        1.04619084710840       -0.03334369509161
C           -2.24456578366264        2.13894578020908       -0.05191955219945
C           -1.82956555179347       -0.20045137933816       -0.04883572344361
O           -3.02919214365552       -0.39207919122095       -0.07184079886895
N           -0.94164534873432       -1.28959316739204       -0.03784989803835
C           -1.47592934202256       -2.63362941462739       -0.05885905967051
H            3.83950750222832        1.20532040200568        1.06623871085328
H            4.10656588831414        1.03716027325447       -0.67330496250661
H            2.81603643006853        2.08777879525162       -0.05644217468700
H            3.57302557127507       -1.67464321796690        0.03960869947218
H           -1.68742142484049        3.07200073168634       -0.02877935432657
H           -2.85122146282820        2.08619292686164       -0.95558709356023
H           -2.90155123150075        2.07083949434225        0.81459800937377
H           -1.17267495580746       -3.18667598719930        0.83321033830931
H           -1.14791924173352       -3.16927038036161       -0.95282738800392
H           -2.56355867111296       -2.55007533087637       -0.07391866331401
H            1.35099581790069       -2.92824475791007       -0.01369070433477
25
 energy: -43.838979659777 gnorm: 0.006059810672 xtb: 6.6.1 (8d0f1dd)
C            3.33308785338345        1.14887782734300        0.09571544101315
N            2.33329129953403        0.12245475912981        0.03801731926008
C            2.60550774274004       -1.23626456883022        0.03344225295627
N            1.41350055613158       -1.92190157863446        0.00025805279446
C            0.40142555490737       -1.03332828354794       -0.00933985078290
C            0.93220942703237        0.25363254541463        0.01435547644112
C            0.09741492791562        1.39817683441825       -0.00884914207526
O            0.46006484729438        2.57753236504624       -0.00649327619831
N           -1.28301455863344        1.04889378190315       -0.03309416169804
C           -2.24803838718933        2.13593494207887       -0.05189534011385
C           -1.82724001249434       -0.19784992823197       -0.04836366908144
O           -3.02465814462469       -0.39077370588643       -0.07110590822737
N           -0.93968126413284       -1.28674573166827       -0.03790476897602
C           -1.47244754712620       -2.62959756800576       -0.05870467934923
H            3.83321840605351        1.19164302379822        1.06707958200770
H            4.10029382713959        1.02071166880088       -0.67402403686825
H            2.82293574024817        2.08687793084894       -0.05549493558459
H            3.57226599548287       -1.67259267356571        0.04092336349367
H           -1.69755131886970        3.07088552816826       -0.02934574118105
H           -2.85475458088002        2.07620888472833       -0.95519244977585
H           -2.90465904035219        2.06140975780880        0.81435436054791
H           -1.16872762011049       -3.18066279950919        0.83409931614878
H           -1.14444697198065       -3.16312121690251       -0.95330519282075
H           -2.55960003658263       -2.53981234619111       -0.07322355922438
H            1.35318862518502       -2.92757898150905       -0.01414644318890
25
 energy: -43.839023209820 gnorm: 0.003665803840 xtb: 6.6.1 (8d0f1dd)
C            3.33367921421205        1.15414009538965        0.09567669396023
N            2.33529759325474        0.12406656042540        0.03863927241825
C            2.60724298816369       -1.23569420339980        0.03345828006256
N            1.41467523066911       -1.92105237371841        0.00076290104978
C            0.40175472802410       -1.03395998156856       -0.00851562935278
C            0.93277091453139        0.25332358766784        0.01521531198420
C            0.09773943265873        1.39684032621644       -0.00763714129747
O            0.45928386834874        2.57651517735511       -0.00560226159360
N           -1.28391937196358        1.04707995376459       -0.03265416036528
C           -2.24704551645563        2.13604629679098       -0.05188246335791
C           -1.82846217619226       -0.19966772037391       -0.04849411698770
O           -3.02624577156198       -0.39348898879645       -0.07195514771626
N           -0.93995089418656       -1.28854291634343       -0.03752836591653
C           -1.47513205028292       -2.63166376498966       -0.05893666382780
H            3.83602932504076        1.19443357496889        1.06658600609089
H            4.10198209099130        1.02054423174751       -0.67162163624957
H            2.82757190351046        2.09600137516009       -0.05920782150804
H            3.57430428692241       -1.67351549675623        0.03953109888582
H           -1.69252001394258        3.06885360857372       -0.02894579334439
H           -2.85497919626616        2.07983917106391       -0.95491800690044
H           -2.90550141309789        2.06476618355378        0.81356090489020
H           -1.17562946895976       -3.18557185706207        0.83337108475537
H           -1.15022921068292       -3.16766745277258       -0.95303013365385
H           -2.56225935688010       -2.54220860742250       -0.07393091040034
H            1.35312818421632       -2.92640631246954       -0.01417929210838
25
 energy: -43.839039902024 gnorm: 0.002397102254 xtb: 6.6.1 (8d0f1dd)
C            3.33444651229718        1.15255250681423        0.09650796287573
N            2.33606403090426        0.12204780563992        0.03830616142720
C            2.60648274010926       -1.23782587562609        0.03312724002559
N            1.41321255744029       -1.92158462607788        0.00017326746097
C            0.40135709039271       -1.03375844419475       -0.00931855213570
C            0.93310215054003        0.25319478572792        0.01428301261469
C            0.09897185070918        1.39713258444653       -0.00902127561384
O            0.45952144681451        2.57704291132692       -0.00736006927602
N           -1.28437301335989        1.04792988439673       -0.03333064708963
C           -2.24784217481987        2.13675226198675       -0.05195090101559
C           -1.82906198358701       -0.19839377010329       -0.04859849293250
O           -3.02726846330539       -0.39212157648998       -0.07107048776890
N           -0.94036559503554       -1.28746162632108       -0.03792651741343
C           -1.47346389264378       -2.63118537447166       -0.05865480618259
H            3.83819522935502        1.19425112638917        1.06715579123919
H            4.10355171572245        1.02495497380586       -0.67162539144786
H            2.82411729311202        2.09246140971704       -0.05652227913897
H            3.57314305766112       -1.67682185118080        0.04011681365176
H           -1.69535812473556        3.07107425755603       -0.02951764357920
H           -2.85651167997091        2.07972523274950       -0.95457030411967
H           -2.90572728225068        2.06480097506933        0.81403219922703
H           -1.17071893567437       -3.18353614790376        0.83355572046536
H           -1.14679770397479       -3.16618770815178       -0.95277074646990
H           -2.56091343936829       -2.54530517383817       -0.07286382196659
H            1.34982193373952       -2.92672807426190       -0.01439422332018
25
 energy: -43.839045322609 gnorm: 0.001612047062 xtb: 6.6.1 (8d0f1dd)
C            3.33412281766905        1.15182712714482        0.09526438864442
N            2.33551609815903        0.12218634226344        0.03849119153672
C            2.60667931308450       -1.23689089375823        0.03381458204864
N            1.41431041833126       -1.92160914925442        0.00101545201137
C            0.40164018565355       -1.03435386257603       -0.00857402080359
C            0.93258171571415        0.25308348729732        0.01521175832448
C            0.09911496550365        1.39707737038641       -0.00746672338483
O            0.45888326100000        2.57709739105100       -0.00503220572028
N           -1.28420806103315        1.04748834920248       -0.03259359735235
C           -2.24722972374106        2.13612089980752       -0.05183405135398
C           -1.82851272704190       -0.19866609769909       -0.04855809445310
O           -3.02642526195584       -0.39264273298887       -0.07187130791006
N           -0.93993107677910       -1.28779257831044       -0.03766875314432
C           -1.47430947001232       -2.63060159467897       -0.05913493633050
H            3.83660656819273        1.19558467849691        1.06619189119783
H            4.10288828168378        1.02351108568369       -0.67322892255704
H            2.82270200142912        2.09016347454791       -0.05866689727882
H            3.57382222370499       -1.67404460037787        0.04061800671142
H           -1.69486901049401        3.07037504171808       -0.02874747748771
H           -2.85433681632351        2.07861479764359       -0.95546734938852
H           -2.90538137282573        2.06344998656751        0.81387264661428
H           -1.17299581679166       -3.18318763376309        0.83345720193802
H           -1.14760216921457       -3.16531498230619       -0.95341618667092
H           -2.56158997840169       -2.54152350438864       -0.07426902904747
H            1.35210895456018       -2.92694193470406       -0.01364555662676
25
 energy: -43.839037081937 gnorm: 0.002127709364 xtb: 6.6.1 (8d0f1dd)
C            3.33391500571310        1.15246931510189        0.09715379713753
N            2.33483533835224        0.12331144218592        0.03817531745743
C            2.60619950198396       -1.23577155946473        0.03229211411971
N            1.41438907343069       -1.92101121586176       -0.00057739157879
C            0.40117186680707       -1.03420166463804       -0.00959229348633
C            0.93175870696824        0.25354781705816        0.01380769235960
C            0.09850826406084        1.39733059643138       -0.00972933579461
O            0.45851222822297        2.57718579814658       -0.00823755309447
N           -1.28453457081606        1.04738752089494       -0.03358206277182
C           -2.24691077127250        2.13658192476938       -0.05204432596430
C           -1.82883669330188       -0.19891579885363       -0.04841343007520
O           -3.02644195834280       -0.39303628371260       -0.07076567554014
N           -0.94015024347852       -1.28832435783853       -0.03778140298912
C           -1.47400232174245       -2.63170096669171       -0.05812540917941
H            3.83520265485309        1.19258984452059        1.06852029341455
H            4.10246613979751        1.02179739982598       -0.67068662468915
H            2.82601947880573        2.09284977000929       -0.05568422449087
H            3.57340973540450       -1.67258178420763        0.03888781512628
H           -1.69300926651230        3.06974342387381       -0.03000889069977
H           -2.85560715926435        2.07991786634314       -0.95465250734854
H           -2.90410202159193        2.06541170307406        0.81450003449625
H           -1.17206341515061       -3.18436496072880        0.83420379626888
H           -1.14842132902473       -3.16724295130028       -0.95227679917829
H           -2.56134173897963       -2.54346746402640       -0.07212737906235
H            1.35261881514928       -2.92649494790620       -0.01549354492010
25
 energy: -43.839048227280 gnorm: 0.001162201277 xtb: 6.6.1 (8d0f1dd)
C            3.33414118045049        1.15289432666907        0.09603813039897
N            2.33548118537138        0.12278065567223        0.03846707007106
C            2.60622716881824       -1.23676471526811        0.03333585143806
N            1.41391863248823       -1.92126910307128        0.00061013716764
C            0.40120380123565       -1.03405812753632       -0.00894197818678
C            0.93226876310760        0.25342197023904        0.01466099396580
C            0.09901961420757        1.39734659110540       -0.00858704142485
O            0.45940854668619        2.57709320188394       -0.00680322001457
N           -1.28433505494481        1.04771424769352       -0.03310567989701
C           -2.24739416510530        2.13656556948335       -0.05186216434287
C           -1.82886315757895       -0.19849110873563       -0.04857281264417
O           -3.02657299704014       -0.39250128121837       -0.07150629099371
N           -0.94016342522079       -1.28797131253237       -0.03777740282699
C           -1.47373691093719       -2.63151402157937       -0.05887755712978
H            3.83687757893629        1.19377044827060        1.06673765303964
H            4.10224639034206        1.02252691569654       -0.67223364669292
H            2.82578897726827        2.09333775981865       -0.05709384138424
H            3.57313119701658       -1.67473886784072        0.04019457658244
H           -1.69435497416120        3.07026231589489       -0.02922553487419
H           -2.85588270453374        2.07989223246508       -0.95464510586383
H           -2.90548188989655        2.06483364717540        0.81398702099839
H           -1.17192421643493       -3.18441002360505        0.83331839164232
H           -1.14748528168708       -3.16666868245837       -0.95300567396924
H           -2.56112579000067       -2.54437806495720       -0.07335329765513
H            1.35119285168426       -2.92666410626013       -0.01399656788709
25
 energy: -43.825931446088 gnorm: 0.091953730311 xtb: 6.6.1 (8d0f1dd)
C            3.47069851964662        1.13531429370058        0.10458161155470
N            2.37957108992742        0.18202136210466        0.04702252833127
C            2.59588845479726       -1.20735941394285        0.03886468226751
N            1.39414013479925       -1.90951256385573       -0.00026461134867
C            0.39316409705572       -1.00101594176985       -0.00934627648914
C            0.92771282045887        0.29153739551929        0.01534229551942
C            0.03562315881098        1.40812122602570       -0.01395489135542
O            0.42998287436074        2.59360212464533       -0.00807012272367
N           -1.29695554598417        1.04168585557717       -0.03392817736017
C           -2.27314020400485        2.12469719555553       -0.05349173586411
C           -1.85247332532743       -0.20458272455729       -0.05047810028949
O           -3.04058004878695       -0.39918910067986       -0.07270811522616
N           -0.95641229270114       -1.27941711031140       -0.03892157023463
C           -1.48055038817694       -2.62301257634430       -0.05811810306512
H            3.96874309953024        1.19043600177552        1.05307254543610
H            4.22170131056272        1.02296613550093       -0.67080608670077
H            2.97105670421843        2.05232565659174       -0.00356943823565
H            3.55304647136079       -1.69871605425837        0.03529070873221
H           -1.73692210754667        3.04902770431559       -0.03391649669866
H           -2.88665394429333        2.06495121458626       -0.95609988071036
H           -2.93432463265140        2.05177433094073        0.81201464615642
H           -1.18176514190096       -3.17482465129328        0.83578674822813
H           -1.15939680699679       -3.16238451286188       -0.94813838673859
H           -2.57340102298138       -2.53340716771955       -0.07238525323080
H            1.33390726993934       -2.92341288244810       -0.01484397804873
25
 energy: -43.831447835954 gnorm: 0.038888709937 xtb: 6.6.1 (8d0f1dd)
C            3.41013396721613        1.14100302601741        0.10397721048878
N            2.36103254609005        0.15198118978862        0.04483860866440
C            2.60400732026405       -1.22123330492426        0.04178110911899
N            1.40566978408726       -1.90595460613864        0.00113250980924
C            0.40557657570565       -1.00352877057590       -0.00928457105039
C            0.93726725067997        0.28223814840029        0.01562922676955
C            0.06542062989065        1.41059157848732       -0.00972884135862
O            0.43773892182846        2.59242102449238       -0.00784848324076
N           -1.28927059546609        1.04909139849313       -0.03382765036032
C           -2.26746044721236        2.12893089981473       -0.05376147348427
C           -1.83929107015954       -0.19952347025667       -0.05037233655683
O           -3.03479793775523       -0.39628475063286       -0.07338177355984
N           -0.94042873457863       -1.27297460868055       -0.03886167194463
C           -1.46809737380663       -2.61709540171732       -0.05727594342630
H            3.92794865882908        1.14575790440398        1.06481406407142
H            4.16069040056198        0.98895336515442       -0.67528782719531
H            2.93411711175079        2.10154988880906       -0.01981973186104
H            3.55984572169732       -1.69519595264184        0.03540616636166
H           -1.72202738841369        3.06271202656069       -0.03321247813609
H           -2.87916590254642        2.06309760572140       -0.95568952264614
H           -2.92730811173423        2.05001819454162        0.81175279498385
H           -1.17168877009515       -3.17006302137923        0.83684827892749
H           -1.14767494555072       -3.15727298480814       -0.94971597818103
H           -2.55714972103977       -2.52647979647273       -0.07157630978698
H            1.33757265387345       -2.91111378566033       -0.01360083450120
25
 energy: -43.832761966456 gnorm: 0.022788707076 xtb: 6.6.1 (8d0f1dd)
C            3.43303130779391        1.13308820916714        0.10610046622548
N            2.36738643924098        0.14911685758890        0.04539833854951
C            2.60410163650843       -1.22023530794447        0.04244541272388
N            1.40471040353571       -1.89639556724566        0.00041990379700
C            0.40444755596458       -0.99939617737066       -0.00985486557505
C            0.94523998066805        0.28592484768136        0.01494085044545
C            0.07125679628482        1.41245444788065       -0.01120512591569
O            0.41825307858328        2.59709345757267       -0.00998582668782
N           -1.29919298953648        1.04617741501114       -0.03541804840730
C           -2.28192510384167        2.12088760968224       -0.05430109635453
C           -1.84416657921805       -0.20292304508455       -0.05028973286548
O           -3.04251940843053       -0.40346949370243       -0.07210885734326
N           -0.94189908935996       -1.27283345611435       -0.03920041065010
C           -1.47873225590679       -2.61764820375441       -0.05688171873062
H            3.96807523664528        1.15540914645802        1.06493730089437
H            4.20144365014104        0.99781629032736       -0.66780607514632
H            2.97115021222610        2.10395947947105       -0.02031798711291
H            3.55538720666508       -1.69270575066339        0.03329449129641
H           -1.73474577765669        3.05779100103938       -0.03404318567019
H           -2.89309065129273        2.05705566398254       -0.95556042604372
H           -2.93969659715018        2.04410391344378        0.81229673953776
H           -1.18575839126258       -3.17397230069457        0.83630271974796
H           -1.16246128494817       -3.16182874265865       -0.94941744998399
H           -2.56753864809593       -2.52786836505975       -0.07148693690174
H            1.32990381655889       -2.89997613221675       -0.01532393792347
25
 energy: -43.832922712312 gnorm: 0.015430171518 xtb: 6.6.1 (8d0f1dd)
C            3.42655503120747        1.13259241081633        0.10389410445652
N            2.36412605418260        0.14615516643181        0.04493723945687
C            2.59993487837520       -1.22365271698010        0.04274903277860
N            1.40138101612486       -1.90243471604300        0.00147667767935
C            0.39915238359866       -1.00601378889956       -0.00927187783544
C            0.94263195788401        0.28105715137120        0.01586500068850
C            0.07657937302617        1.40902204654136       -0.01002801352353
O            0.42041516710744        2.59360179232498       -0.00676763683353
N           -1.30042235875284        1.04388623233132       -0.03481386921303
C           -2.27111637677085        2.12671771081347       -0.05390311312882
C           -1.84615595495118       -0.20338226551068       -0.05041090657493
O           -3.04430219797225       -0.40059933615804       -0.07335586574824
N           -0.94644811785967       -1.27692672384545       -0.03918042076101
C           -1.47757511472377       -2.62349099410804       -0.05742280289155
H            3.95641015704763        1.18039821391055        1.06192064993361
H            4.19637260721738        1.02330557943548       -0.67413798209305
H            2.94388870534748        2.08506867521029       -0.01629456078616
H            3.55261771802704       -1.69513294993335        0.03447145804246
H           -1.71586376494733        3.05760008114665       -0.03258705664367
H           -2.87864383392794        2.07211826196493       -0.95723384834568
H           -2.92785975210426        2.05870621969918        0.81314431958365
H           -1.17650958841578       -3.17598796007888        0.83558026062251
H           -1.15291880040243       -3.16347302753947       -0.94954429325658
H           -2.56683811589883       -2.53830697281372       -0.07287449854702
H            1.32724947169758       -2.90920229329067       -0.01327745515416
25
 energy: -43.833290850757 gnorm: 0.008249745251 xtb: 6.6.1 (8d0f1dd)
C            3.42715716834030        1.12860154513062        0.10479387174027
N            2.36307207282946        0.15122979377001        0.04434418354004
C            2.60091526069759       -1.21921286626955        0.04145808273154
N            1.40418143794217       -1.90041952590633       -0.00001912206414
C            0.40061006801984       -1.00365527490420       -0.01002851680090
C            0.94107388761288        0.28588857335307        0.01475234994030
C            0.07768602663591        1.41359194690113       -0.01156793894566
O            0.42302237829822        2.59816103992397       -0.00908169580825
N           -1.30067306785827        1.04652112448198       -0.03510141067734
C           -2.27666304157156        2.12346369253033       -0.05410355885955
C           -1.84304379882453       -0.20064495896160       -0.04999331432134
O           -3.03970874777064       -0.39980686177440       -0.07236174153552
N           -0.94356082960374       -1.27387562048948       -0.03906236679390
C           -1.47462955708835       -2.61882916393601       -0.05664199637975
H            3.95079230132984        1.16108524779967        1.06443500864885
H            4.19119700153537        1.00081389460979       -0.67382149629745
H            2.95311523741721        2.08415135201719       -0.01370109723842
H            3.55580757757961       -1.69055412765175        0.03436133962055
H           -1.73264396846178        3.05936009060033       -0.03399240492093
H           -2.88549523860612        2.06083636936207       -0.95612512913541