25
 energy: -42.479338922396 xtb: 6.6.1 (8d0f1dd)
C            3.10377966717322        1.02775386466643        0.10182974546083
N            2.30129913686228       -0.02302485820305        0.02072144626787
C            2.55897431638432       -1.35594463071600       -0.00761527716459
N            1.35554856663325       -2.05752740307303       -0.03107636361407
C            0.35718997272901       -1.16499053534143       -0.03487606698514
C            0.90846738415972        0.10688190627059       -0.02265268141764
C            0.11923847358722        1.29446938481369        0.02301950716286
O            0.49671161167434        2.44823865032449        0.06304630186886
N           -1.25410392550086        0.97946772698564        0.01047222891893
C           -2.17956630920070        2.10145220890058        0.04120952585282
C           -1.83453939497699       -0.26074483460194       -0.03553128933664
O           -3.03423791112123       -0.41327683195645       -0.06113031876871
N           -0.98378454862622       -1.37054075409828       -0.03977163392750
C           -1.55995971268422       -2.69558785102845       -0.07977569793204
H            2.63194859595321        1.96426062109297        0.39034855740509
H            4.07362568771984        0.81327614151173        0.49220464508627
H            4.30536460819188        3.28730196630905       -0.54133038810630
H            3.52224838167606       -1.81099133373217        0.06850740896267
H           -1.57006224135111        2.99941311263926        0.08386289002343
H           -2.79713511334889        2.09966592827518       -0.85531442085445
H           -2.82434243196941        2.03132491178046        0.91618558767128
H           -1.27229677925583       -3.27638753987620        0.79836199415773
H           -1.26943821216332       -3.22207133946009       -0.98965722374498
H           -2.64206919502977       -2.57538215525153       -0.08298575442462
H            1.27455619138481       -3.05730982801428       -0.03992595534705
