72
 energy: -99.306614207356 gnorm: 0.003591940295 xtb: 6.6.1 (8d0f1dd)
N           -0.28395337524417        0.54914874505987        3.51503510759573
C           -0.61730016086617        0.53819477009619        2.33700308017199
C           -3.30570970817437        1.84319200493831       -0.33990973191820
C           -3.70215029450055        0.54943910524771        0.03104188020380
C           -4.20597069594514       -0.37312486440977       -0.93431411876449
C           -4.53476468654802       -1.66938219679868       -0.61593158317753
O           -5.02966991845821       -2.58486714565772       -1.48148896664769
C           -5.35805475497830       -2.18388348756012       -2.78970421933503
C           -4.35573368793045       -2.14287027141840        0.71670300552797
O           -4.66520895048249       -3.43437346239292        0.92890019035398
C           -4.56551599148517       -3.95979716243268        2.23230626221608
C           -3.89788098772788       -1.24502267088863        1.67743155052278
C           -3.59557288977924        0.05874305535333        1.35564847711354
C           -3.06181808664816        2.17339769484274       -1.78226088804498
C           -1.97231200671649        1.30500222417746       -2.48408119534531
C           -0.64516304584156        1.44942662700319       -1.86193607249949
N           -0.02745998949191        0.51192166397754       -1.15393498914602
C            1.31418496872386        0.72548795572211       -0.66659513612584
C            2.36924912466329        0.15166420521605       -1.63344914521159
C            3.74717578736804        0.28779257966231       -1.04948513316709
C            4.45445861434388        1.47258267469601       -1.16792477539217
C            5.71985306714598        1.60145879843054       -0.61617322406341
C            6.30454699765888        0.54539152497367        0.06768309732641
O            7.52662528455380        0.55663486420698        0.63456850094534
C            8.32342286658876        1.71337015343971        0.52489692362632
C            5.58509401565646       -0.67335603149102        0.19749059930681
O            6.22632132942631       -1.65144714251010        0.87076967784928
C            5.61588701963332       -2.91315082639705        0.99719611322549
C            4.31973419247451       -0.77687937909550       -0.35734753916076
C           -0.56255655230591       -0.82303196530450       -1.02651045926912
C           -3.11987510445402        2.99963354836231        0.60800371676697
C           -4.10455194090744        3.05774349759061        1.78399812012251
C           -1.66606808465122        3.09388296416294        1.09441335423180
H           -4.40593211142357       -0.01808858509480       -1.93047788957871
H           -6.08413218316408       -1.36453073889643       -2.78866827349740
H           -5.80352073429102       -3.05832109719915       -3.26088958823402
H           -4.46849376753368       -1.88465858011025       -3.35585653568748
H           -5.23140793457948       -3.43861807590999        2.92661962026944
H           -4.87123838292586       -5.00113041180280        2.15269160470091
H           -3.53807252935328       -3.91180147821628        2.60690064279846
H           -3.77636919424003       -1.56697095810456        2.69955092466211
H           -3.22887123513864        0.70076504307330        2.13454830272177
H           -3.98246990901968        2.05519783492128       -2.36097473337693
H           -2.76084433555004        3.21769814860017       -1.87111473482088
H           -2.28672243346111        0.26520993030182       -2.50243483086701
H           -1.91263913593822        1.66938148519200       -3.51391383609671
H           -1.01898455631331       -0.32391902423967        1.83313520319127
H           -0.14253280994444        2.39975844194780       -1.94532555307365
H            1.41635499633527        0.24571664879492        0.31053212090399
H            1.48864510702010        1.79502873968866       -0.53794459297538
H            2.30761993023724        0.69186843120046       -2.57977496984414
H            2.15165801495361       -0.90017774272645       -1.82292593480371
H            4.02861255916884        2.30554311098951       -1.70626189696209
H            6.24906409675559        2.53295958129316       -0.73184960688541
H            7.85389148846251        2.57147647170943        1.01575387273935
H            8.53189319374115        1.95890830699906       -0.52068074589954
H            9.25611949027568        1.47397286248505        1.03202162446115
H            6.32861098067962       -3.52928212348689        1.54188328919690
H            4.68219446067157       -2.85346138021672        1.56600704713244
H            5.42124211233762       -3.36444515135822        0.01913178841670
H            3.76927402158956       -1.70066541690600       -0.27026315216606
H           -0.56776947697002       -1.34215322262968       -1.98839353289690
H           -1.58401928843751       -0.79081637238557       -0.64451762396292
H            0.05442277322877       -1.39191490499000       -0.33492616471734
H           -3.30575861411800        3.90394332278608        0.01256706231364
H           -3.72702911452736        2.55740484087001        2.67117286644681
H           -5.05798352315279        2.61062098797378        1.51251381049694
H           -4.28206389732718        4.09765426003636        2.05131121451855
H           -1.34434994834257        2.14901128952988        1.56308805371482
H           -0.99651010233109        3.29451818120717        0.25937578470027
H           -1.56845267752306        3.89690435271107        1.81995446077477
H            0.08381791274733        1.35863046533794        3.99765726436410
