      -----------------------------------------------------------      
     |                   =====================                   |     
     |                           x T B                           |     
     |                   =====================                   |     
     |                         S. Grimme                         |     
     |          Mulliken Center for Theoretical Chemistry        |     
     |                    University of Bonn                     |     
      -----------------------------------------------------------      

   * xtb version 6.6.1 (8d0f1dd) compiled by 'conda@1efc2f54142f' on 2023-08-01

   xtb is free software: you can redistribute it and/or modify it under
   the terms of the GNU Lesser General Public License as published by
   the Free Software Foundation, either version 3 of the License, or
   (at your option) any later version.
   
   xtb is distributed in the hope that it will be useful,
   but WITHOUT ANY WARRANTY; without even the implied warranty of
   MERCHANTABILITY or FITNESS FOR A PARTICULAR PURPOSE.  See the
   GNU Lesser General Public License for more details.
   
   Cite this work as:
   * C. Bannwarth, E. Caldeweyher, S. Ehlert, A. Hansen, P. Pracht,
     J. Seibert, S. Spicher, S. Grimme, WIREs Comput. Mol. Sci., 2020, 11,
     e01493. DOI: 10.1002/wcms.1493
   
   for GFN2-xTB:
   * C. Bannwarth, S. Ehlert and S. Grimme., J. Chem. Theory Comput., 2019,
     15, 1652-1671. DOI: 10.1021/acs.jctc.8b01176
   for GFN1-xTB:
   * S. Grimme, C. Bannwarth, P. Shushkov, J. Chem. Theory Comput., 2017,
     13, 1989-2009. DOI: 10.1021/acs.jctc.7b00118
   for GFN0-xTB:
   * P. Pracht, E. Caldeweyher, S. Ehlert, S. Grimme, ChemRxiv, 2019, preprint.
     DOI: 10.26434/chemrxiv.8326202.v1
   for GFN-FF:
   * S. Spicher and S. Grimme, Angew. Chem. Int. Ed., 2020, 59, 15665-15673.
     DOI: 10.1002/anie.202004239
   
   for ALPB and GBSA implicit solvation:
   * S. Ehlert, M. Stahn, S. Spicher, S. Grimme, J. Chem. Theory Comput.,
     2021, 17, 4250-4261. DOI: 10.1021/acs.jctc.1c00471
   
   for DFT-D4:
   * E. Caldeweyher, C. Bannwarth and S. Grimme, J. Chem. Phys., 2017,
     147, 034112. DOI: 10.1063/1.4993215
   * E. Caldeweyher, S. Ehlert, A. Hansen, H. Neugebauer, S. Spicher,
     C. Bannwarth and S. Grimme, J. Chem. Phys., 2019, 150, 154122.
     DOI: 10.1063/1.5090222
   * E. Caldeweyher, J.-M. Mewes, S. Ehlert and S. Grimme, Phys. Chem. Chem. Phys.
     2020, 22, 8499-8512. DOI: 10.1039/D0CP00502A
   
   for sTDA-xTB:
   * S. Grimme and C. Bannwarth, J. Chem. Phys., 2016, 145, 054103.
     DOI: 10.1063/1.4959605
   
   in the mass-spec context:
   * V. Asgeirsson, C. Bauer and S. Grimme, Chem. Sci., 2017, 8, 4879.
     DOI: 10.1039/c7sc00601b
   * J. Koopman and S. Grimme, ACS Omega 2019, 4, 12, 15120-15133.
     DOI: 10.1021/acsomega.9b02011
   
   for metadynamics refer to:
   * S. Grimme, J. Chem. Theory Comput., 2019, 155, 2847-2862
     DOI: 10.1021/acs.jctc.9b00143
   
   for SPH calculations refer to:
   * S. Spicher and S. Grimme, J. Chem. Theory Comput., 2021, 17, 1701-1714
     DOI: 10.1021/acs.jctc.0c01306
   
   with help from (in alphabetical order)
   P. Atkinson, C. Bannwarth, F. Bohle, G. Brandenburg, E. Caldeweyher
   M. Checinski, S. Dohm, S. Ehlert, S. Ehrlich, I. Gerasimov, C. Hölzer
   A. Katbashev, J. Koopman, C. Lavigne, S. Lehtola, F. März, M. Müller,
   F. Musil, H. Neugebauer, J. Pisarek, C. Plett, P. Pracht, F. Pultar,
   J. Seibert, P. Shushkov, S. Spicher, M. Stahn, M. Steiner, T. Strunk,
   J. Stückrath, T. Rose, and J. Unsleber
   
 * started run on 2024/04/06 at 11:16:36.353     

           -------------------------------------------------
          |                Calculation Setup                |
           -------------------------------------------------

          program call               : xtb struc.xyz --opt loose --input .xc1 --gfn2
          hostname                   : n-62-30-23
          coordinate file            : struc.xyz
          omp threads                :                     1

   ID    Z sym.   atoms
    1    7 N      1, 17
    2    6 C      2-6, 8, 9, 11-16, 18-23, 25, 26, 28-33
    3    8 O      7, 10, 24, 27
    4    1 H      34-72
constraining bond 17 42 to    7.6866700 Å, actual value:    3.7856458 Å

           -------------------------------------------------
          |                 G F N 2 - x T B                 |
           -------------------------------------------------

        Reference                      10.1021/acs.jctc.8b01176
      * Hamiltonian:
        H0-scaling (s, p, d)           1.850000    2.230000    2.230000
        zeta-weighting                 0.500000
      * Dispersion:
        s8                             2.700000
        a1                             0.520000
        a2                             5.000000
        s9                             5.000000
      * Repulsion:
        kExp                           1.500000    1.000000
        rExp                           1.000000
      * Coulomb:
        alpha                          2.000000
        third order                    shell-resolved
        anisotropic                    true
        a3                             3.000000
        a5                             4.000000
        cn-shift                       1.200000
        cn-exp                         4.000000
        max-rad                        5.000000


          ...................................................
          :                      SETUP                      :
          :.................................................:
          :  # basis functions                 171          :
          :  # atomic orbitals                 171          :
          :  # shells                          105          :
          :  # electrons                       180          :
          :  max. iterations                   250          :
          :  Hamiltonian                  GFN2-xTB          :
          :  restarted?                      false          :
          :  GBSA solvation                  false          :
          :  PC potential                    false          :
          :  electronic temp.         5000.0000000     K    :
          :  accuracy                    1.0000000          :
          :  -> integral cutoff          0.2500000E+02      :
          :  -> integral neglect         0.1000000E-07      :
          :  -> SCF convergence          0.1000000E-05 Eh   :
          :  -> wf. convergence          0.1000000E-03 e    :
          :  Broyden damping             0.4000000          :
          ...................................................

 iter      E             dE          RMSdq      gap      omega  full diag
   1   -100.5973919 -0.100597E+03  0.374E+00    3.20       0.0  T
   2   -100.7362642 -0.138872E+00  0.221E+00    1.08       1.0  T
   3   -100.7049001  0.313641E-01  0.141E+00    3.29       1.0  T
   4   -100.7721690 -0.672689E-01  0.526E-01    1.50       1.0  T
   5   -100.7894292 -0.172602E-01  0.190E-01    1.98       1.0  T
   6   -100.7911978 -0.176856E-02  0.792E-02    1.77       1.0  T
   7   -100.7914750 -0.277198E-03  0.375E-02    1.83       1.0  T
   8   -100.7914914 -0.164582E-04  0.140E-02    1.83       1.0  T
   9   -100.7914976 -0.616739E-05  0.474E-03    1.82       2.5  T
  10   -100.7914988 -0.118227E-05  0.172E-03    1.82       6.8  T
  11   -100.7914989 -0.139928E-06  0.766E-04    1.82      15.4  T
  12   -100.7914989 -0.773143E-08  0.318E-04    1.82      37.0  T

   *** convergence criteria satisfied after 12 iterations ***

         #    Occupation            Energy/Eh            Energy/eV
      -------------------------------------------------------------
         1        2.0000           -0.8078051             -21.9815
       ...           ...                  ...                  ...
        84        1.9966           -0.5157491             -14.0342
        85        1.9959           -0.5128261             -13.9547
        86        1.9840           -0.4911498             -13.3649
        87        1.9795           -0.4872543             -13.2589
        88        1.9640           -0.4782114             -13.0128
        89        1.8920           -0.4602041             -12.5228
        90        1.8557           -0.4553147             -12.3897 (HOMO)
        91        0.3166           -0.3884132             -10.5693 (LUMO)
        92        0.0218           -0.3434697              -9.3463
        93        0.0041           -0.3169887              -8.6257
        94        0.0034           -0.3139726              -8.5436
        95        0.0029           -0.3112618              -8.4699
       ...           ...                  ...                  ...
       171                          0.5822580              15.8440
      -------------------------------------------------------------
                  HL-Gap            0.0669015 Eh            1.8205 eV
             Fermi-level           -0.4148687 Eh          -11.2892 eV

 SCC (total)                   0 d,  0 h,  0 min,  0.192 sec
 SCC setup                      ...        0 min,  0.001 sec (  0.659%)
 Dispersion                     ...        0 min,  0.002 sec (  1.119%)
 classical contributions        ...        0 min,  0.001 sec (  0.297%)
 integral evaluation            ...        0 min,  0.018 sec (  9.597%)
 iterations                     ...        0 min,  0.099 sec ( 51.625%)
 molecular gradient             ...        0 min,  0.070 sec ( 36.347%)
 printout                       ...        0 min,  0.001 sec (  0.345%)

         :::::::::::::::::::::::::::::::::::::::::::::::::::::
         ::                     SUMMARY                     ::
         :::::::::::::::::::::::::::::::::::::::::::::::::::::
         :: total energy            -102.121351868320 Eh    ::
         :: gradient norm              1.040443451653 Eh/a0 ::
         :: HOMO-LUMO gap              1.820481192090 eV    ::
         ::.................................................::
         :: SCC energy              -100.791498925389 Eh    ::
         :: -> isotropic ES            0.109302908418 Eh    ::
         :: -> anisotropic ES          0.005415138735 Eh    ::
         :: -> anisotropic XC          0.042392697176 Eh    ::
         :: -> dispersion             -0.075527661009 Eh    ::
         :: repulsion energy           1.386151658689 Eh    ::
         :: add. restraining          -2.717220954126 Eh    ::
         :: total charge               1.000000000108 e     ::
         :::::::::::::::::::::::::::::::::::::::::::::::::::::

      ----------------------------------------------------------- 
     |                   =====================                   |
     |                        A N C O P T                        |
     |                   =====================                   |
     |               Approximate Normal Coordinate               |
     |                Rational Function Optimizer                |
      ----------------------------------------------------------- 

          ...................................................
          :                      SETUP                      :
          :.................................................:
          :   optimization level             loose          :
          :   max. optcycles                   200          :
          :   ANC micro-cycles                  20          :
          :   degrees of freedom               210          :
          :.................................................:
          :   RF solver                   davidson          :
          :   write xtbopt.log                true          :
          :   linear?                        false          :
          :   energy convergence         0.5000000E-04 Eh   :
          :   grad. convergence          0.4000000E-02 Eh/α :
          :   maxmium RF displ.          1.0000000          :
          :   Hlow (freq-cutoff)         0.1000000E-01      :
          :   Hmax (freq-cutoff)         5.0000000          :
          :   S6 in model hess.         20.0000000          :
          ...................................................

generating ANC from model Hessian ...
Using Lindh-Hessian (1995)
 Shifting diagonal of input Hessian by   0.13296832317902824     
 Lowest  eigenvalues of input Hessian
    0.010000    0.000000    0.000000    0.000000    0.000000    0.000000
    0.000000    0.133033    0.133132    0.133282    0.133433    0.133521
    0.133793    0.134096    0.134182    0.134277    0.135113    0.135431
 Highest eigenvalues
    2.168932    2.174538    2.210005    2.302481    2.307468    2.310143


........................................................................
.............................. CYCLE    1 ..............................
........................................................................

 iter      E             dE          RMSdq      gap      omega  full diag
   1   -100.7914989 -0.100791E+03  0.114E-04    1.82       0.0  T
   2   -100.7914989 -0.678995E-10  0.713E-05    1.82     165.2  T
   3   -100.7914989  0.665210E-10  0.496E-05    1.82     237.5  T
     SCC iter.                  ...        0 min,  0.026 sec
     gradient                   ...        0 min,  0.069 sec
 * total energy  :  -102.1213519 Eh     change       -0.4035485E-08 Eh
   gradient norm :     1.0404429 Eh/α   predicted     0.0000000E+00 (-100.00%)
   displ. norm   :     0.9738951 α      lambda       -0.9973253E+00
   maximum displ.:     0.9273934 α      in ANC's #1, #136, #138, ...

........................................................................
.............................. CYCLE    2 ..............................
........................................................................

 iter      E             dE          RMSdq      gap      omega  full diag
   1   -100.7371654 -0.100737E+03  0.511E-01    1.46       0.0  T
   2   -100.7367559  0.409504E-03  0.353E-01    1.94       1.0  T
   3   -100.7346918  0.206418E-02  0.300E-01    1.38       1.0  T
   4   -100.7412728 -0.658101E-02  0.803E-02    1.74       1.0  T
   5   -100.7416970 -0.424249E-03  0.143E-02    1.67       1.0  T
   6   -100.7417038 -0.675624E-05  0.759E-03    1.67       1.6  T
   7   -100.7417054 -0.163437E-05  0.234E-03    1.67       5.0  T
   8   -100.7417057 -0.291373E-06  0.797E-04    1.67      14.8  T
   9   -100.7417057 -0.248878E-07  0.377E-04    1.67      31.2  T
     SCC iter.                  ...        0 min,  0.073 sec
     gradient                   ...        0 min,  0.069 sec
 * total energy  :  -103.1777313 Eh     change       -0.1056379E+01 Eh
   gradient norm :     1.1530083 Eh/α   predicted    -0.9716303E+00 (  -8.02%)
   displ. norm   :     0.9797683 α      lambda       -0.1117527E+01
   maximum displ.:     0.9411855 α      in ANC's #1, #136, #138, ...

........................................................................
.............................. CYCLE    3 ..............................
........................................................................

 iter      E             dE          RMSdq      gap      omega  full diag
   1   -100.5888701 -0.100589E+03  0.631E-01    1.02       0.0  T
   2   -100.5600052  0.288649E-01  0.756E-01    2.24       1.0  T
   3   -100.6141928 -0.541876E-01  0.259E-01    1.35       1.0  T
   4   -100.6146658 -0.473040E-03  0.111E-01    1.43       1.0  T
   5   -100.6147583 -0.924902E-04  0.308E-02    1.39       1.0  T
   6   -100.6148397 -0.814053E-04  0.100E-02    1.41       1.2  T
   7   -100.6148400 -0.345363E-06  0.528E-03    1.41       2.2  T
   8   -100.6148419 -0.180665E-05  0.204E-03    1.41       5.8  T
   9   -100.6148423 -0.415834E-06  0.582E-04    1.41      20.2  T
  10   -100.6148423 -0.161526E-07  0.304E-04    1.41      38.7  T
     SCC iter.                  ...        0 min,  0.081 sec
     gradient                   ...        0 min,  0.069 sec
 * total energy  :  -104.3516625 Eh     change       -0.1173931E+01 Eh
   gradient norm :     1.2727524 Eh/α   predicted    -0.1095154E+01 (  -6.71%)
   displ. norm   :     0.9813826 α      lambda       -0.1234953E+01
   maximum displ.:     0.9478893 α      in ANC's #1, #136, #200, ...

........................................................................
.............................. CYCLE    4 ..............................
........................................................................

 iter      E             dE          RMSdq      gap      omega  full diag
   1   -100.4324507 -0.100432E+03  0.540E-01    1.00       0.0  T
   2   -100.3891094  0.433413E-01  0.748E-01    1.87       1.0  T
   3   -100.4484016 -0.592922E-01  0.259E-01    1.16       1.0  T
   4   -100.4480509  0.350700E-03  0.155E-01    1.25       1.0  T
   5   -100.4492250 -0.117409E-02  0.946E-02    1.22       1.0  T
   6   -100.4502973 -0.107234E-02  0.193E-02    1.26       1.0  T
   7   -100.4503066 -0.928292E-05  0.138E-02    1.25       1.0  T
   8   -100.4503177 -0.111667E-04  0.399E-03    1.25       3.0  T
   9   -100.4503185 -0.744650E-06  0.159E-03    1.25       7.4  T
  10   -100.4503185 -0.297816E-07  0.933E-04    1.25      12.6  T
  11   -100.4503186 -0.542061E-07  0.301E-04    1.25      39.1  T
     SCC iter.                  ...        0 min,  0.089 sec
     gradient                   ...        0 min,  0.069 sec
 * total energy  :  -105.6589873 Eh     change       -0.1307325E+01 Eh
   gradient norm :     1.4516542 Eh/α   predicted    -0.1212181E+01 (  -7.28%)
   displ. norm   :     0.9796534 α      lambda       -0.1401897E+01
   maximum displ.:     0.9456784 α      in ANC's #1, #200, #136, ...

........................................................................
.............................. CYCLE    5 ..............................
........................................................................

 iter      E             dE          RMSdq      gap      omega  full diag
   1   -100.3323888 -0.100332E+03  0.978E-01    0.51       0.0  T
   2   -100.0998851  0.232504E+00  0.144E+00    1.23       1.0  T
   3   -100.3275733 -0.227688E+00  0.731E-01    0.60       1.0  T
   4   -100.3204399  0.713343E-02  0.693E-01    0.57       1.0  T
   5   -100.3747655 -0.543256E-01  0.136E-01    0.50       1.0  T
   6   -100.3758330 -0.106757E-02  0.739E-02    0.51       1.0  T
   7   -100.3756976  0.135412E-03  0.667E-02    0.51       1.0  T
   8   -100.3761258 -0.428191E-03  0.210E-02    0.51       1.0  T
   9   -100.3762005 -0.746518E-04  0.899E-03    0.51       1.3  T
  10   -100.3762075 -0.706885E-05  0.448E-03    0.51       2.6  T
  11   -100.3762083 -0.774202E-06  0.272E-03    0.51       4.3  T
  12   -100.3762091 -0.795281E-06  0.558E-04    0.51      21.1  T
  13   -100.3762091 -0.132820E-07  0.258E-04    0.51      45.7  T
     SCC iter.                  ...        0 min,  0.105 sec
     gradient                   ...        0 min,  0.069 sec
 * total energy  :  -107.1877880 Eh     change       -0.1528801E+01 Eh
   gradient norm :     1.5756970 Eh/α   predicted    -0.1373680E+01 ( -10.15%)
   displ. norm   :     0.9728770 α      lambda       -0.1502498E+01
   maximum displ.:     0.9293706 α      in ANC's #1, #200, #136, ...

........................................................................
.............................. CYCLE    6 ..............................
........................................................................

 iter      E             dE          RMSdq      gap      omega  full diag
   1   -100.2527775 -0.100253E+03  0.105E+00    0.75       0.0  T
   2    -99.8547144  0.398063E+00  0.180E+00    1.06       1.0  T
   3   -100.2895008 -0.434786E+00  0.577E-01    0.66       1.0  T
   4   -100.3133257 -0.238249E-01  0.469E-01    0.40       1.0  T
   5   -100.3286394 -0.153137E-01  0.213E-01    0.45       1.0  T
   6   -100.3305975 -0.195809E-02  0.793E-02    0.46       1.0  T
   7   -100.3309752 -0.377767E-03  0.521E-02    0.44       1.0  T
   8   -100.3312856 -0.310375E-03  0.267E-02    0.45       1.0  T
   9   -100.3313569 -0.712437E-04  0.926E-03    0.45       1.3  T
  10   -100.3313608 -0.393498E-05  0.427E-03    0.45       2.8  T
  11   -100.3313635 -0.274335E-05  0.852E-04    0.45      13.8  T
  12   -100.3313636 -0.954985E-08  0.460E-04    0.45      25.6  T
  13   -100.3313636 -0.137817E-07  0.150E-04    0.45      78.4  T
     SCC iter.                  ...        0 min,  0.104 sec
     gradient                   ...        0 min,  0.069 sec
 * total energy  :  -101.1059117 Eh     change        0.6081876E+01 Eh
   gradient norm :    45.0483009 Eh/α   predicted    -0.1462299E+01 (-124.04%)
   displ. norm   :     0.5753694 α      lambda       -0.2591641E+02
   maximum displ.:     0.4482510 α      in ANC's #1, #200, #153, ...

........................................................................
.............................. CYCLE    7 ..............................
........................................................................

 iter      E             dE          RMSdq      gap      omega  full diag
   1   -100.3196432 -0.100320E+03  0.747E-01    0.61       0.0  T
   2    -99.7294769  0.590166E+00  0.195E+00    0.51       1.0  T
   3   -100.3470954 -0.617618E+00  0.424E-01    0.48       1.0  T
   4   -100.3568821 -0.978670E-02  0.385E-01    0.34       1.0  T
   5   -100.3688478 -0.119658E-01  0.129E-01    0.37       1.0  T
   6   -100.3690229 -0.175041E-03  0.797E-02    0.35       1.0  T
   7   -100.3696498 -0.626935E-03  0.339E-02    0.36       1.0  T
   8   -100.3697386 -0.888294E-04  0.166E-02    0.36       1.0  T
   9   -100.3697675 -0.288208E-04  0.509E-03    0.36       2.3  T
  10   -100.3697704 -0.292738E-05  0.200E-03    0.36       5.9  T
  11   -100.3697707 -0.275271E-06  0.752E-04    0.36      15.7  T
  12   -100.3697707 -0.398577E-07  0.280E-04    0.36      42.1  T
     SCC iter.                  ...        0 min,  0.096 sec
     gradient                   ...        0 min,  0.070 sec
 * total energy  :  -107.5654220 Eh     change       -0.6459510E+01 Eh
   gradient norm :     0.2211281 Eh/α   predicted    -0.1724814E+02 ( 167.02%)
   displ. norm   :     0.4483736 α      lambda       -0.8439057E-01
   maximum displ.:     0.1332125 α      in ANC's #136, #130, #88, ...

........................................................................
.............................. CYCLE    8 ..............................
........................................................................

 iter      E             dE          RMSdq      gap      omega  full diag
   1   -100.4477315 -0.100448E+03  0.281E-01    0.40       0.0  T
   2   -100.4087770  0.389545E-01  0.547E-01    0.42       1.0  T
   3   -100.4472540 -0.384770E-01  0.229E-01    0.41       1.0  T
   4   -100.4495045 -0.225053E-02  0.165E-01    0.34       1.0  T
   5   -100.4518114 -0.230682E-02  0.738E-02    0.36       1.0  T
   6   -100.4519486 -0.137277E-03  0.564E-02    0.34       1.0  T
   7   -100.4523123 -0.363623E-03  0.926E-03    0.34       1.3  T
   8   -100.4523127 -0.436390E-06  0.647E-03    0.34       1.8  T
   9   -100.4523161 -0.338683E-05  0.192E-03    0.34       6.1  T
  10   -100.4523164 -0.300082E-06  0.919E-04    0.34      12.8  T
  11   -100.4523164 -0.685618E-07  0.351E-04    0.34      33.6  T
     SCC iter.                  ...        0 min,  0.089 sec
     gradient                   ...        0 min,  0.070 sec
 * total energy  :  -107.6420834 Eh     change       -0.7666145E-01 Eh
   gradient norm :     0.1945290 Eh/α   predicted    -0.5067897E-01 ( -33.89%)
   displ. norm   :     0.7546002 α      lambda       -0.1184021E+00
   maximum displ.:     0.2264097 α      in ANC's #136, #130, #88, ...

........................................................................
.............................. CYCLE    9 ..............................
........................................................................

 iter      E             dE          RMSdq      gap      omega  full diag
   1   -100.5372748 -0.100537E+03  0.505E-01    0.58       0.0  T
   2   -100.3926488  0.144626E+00  0.107E+00    0.39       1.0  T
   3   -100.5464084 -0.153760E+00  0.360E-01    0.51       1.0  T
   4   -100.5478767 -0.146827E-02  0.265E-01    0.34       1.0  T
   5   -100.5532431 -0.536641E-02  0.157E-01    0.40       1.0  T
   6   -100.5544830 -0.123995E-02  0.960E-02    0.40       1.0  T
   7   -100.5553735 -0.890449E-03  0.197E-02    0.39       1.0  T
   8   -100.5553950 -0.215423E-04  0.102E-02    0.39       1.2  T
   9   -100.5554050 -0.995471E-05  0.268E-03    0.39       4.4  T
  10   -100.5554054 -0.427980E-06  0.947E-04    0.39      12.4  T
  11   -100.5554054 -0.326195E-07  0.621E-04    0.39      19.0  T
     SCC iter.                  ...        0 min,  0.089 sec
     gradient                   ...        0 min,  0.069 sec
 * total energy  :  -107.7027487 Eh     change       -0.6066522E-01 Eh
   gradient norm :     0.5294227 Eh/α   predicted    -0.9291139E-01 (  53.15%)
   displ. norm   :     0.4933983 α      lambda       -0.5614465E-01
   maximum displ.:     0.2664647 α      in ANC's #1, #129, #200, ...

........................................................................
.............................. CYCLE   10 ..............................
........................................................................

 iter      E             dE          RMSdq      gap      omega  full diag
   1   -100.5463060 -0.100546E+03  0.315E-01    0.48       0.0  T
   2   -100.5225850  0.237211E-01  0.479E-01    0.24       1.0  T
   3   -100.5407333 -0.181484E-01  0.283E-01    0.61       1.0  T
   4   -100.5408497 -0.116322E-03  0.287E-01    0.31       1.0  T
   5   -100.5490438 -0.819417E-02  0.569E-02    0.49       1.0  T
   6   -100.5495427 -0.498832E-03  0.289E-02    0.46       1.0  T
   7   -100.5496234 -0.806885E-04  0.807E-03    0.47       1.5  T
   8   -100.5496278 -0.442770E-05  0.442E-03    0.46       2.7  T
   9   -100.5496295 -0.166624E-05  0.978E-04    0.47      12.1  T
  10   -100.5496295 -0.615358E-07  0.381E-04    0.47      30.9  T
  11   -100.5496295 -0.786481E-08  0.164E-04    0.47      71.7  T
     SCC iter.                  ...        0 min,  0.089 sec
     gradient                   ...        0 min,  0.069 sec
 * total energy  :  -107.7100797 Eh     change       -0.7330998E-02 Eh
   gradient norm :     0.1272320 Eh/α   predicted    -0.3490675E-01 ( 376.15%)
   displ. norm   :     0.2458231 α      lambda       -0.2116064E-01
   maximum displ.:     0.1035257 α      in ANC's #1, #200, #130, ...

........................................................................
.............................. CYCLE   11 ..............................
........................................................................

 iter      E             dE          RMSdq      gap      omega  full diag
   1   -100.5609339 -0.100561E+03  0.223E-01    0.28       0.0  T
   2   -100.5086588  0.522751E-01  0.658E-01    0.87       1.0  T
   3   -100.5657052 -0.570464E-01  0.125E-01    0.39       1.0  T
   4   -100.5652061  0.499166E-03  0.111E-01    0.41       1.0  T
   5   -100.5660108 -0.804721E-03  0.765E-02    0.38       1.0  T
   6   -100.5662431 -0.232352E-03  0.465E-02    0.38       1.0  T
   7   -100.5664903 -0.247127E-03  0.663E-03    0.39       1.8  T
   8   -100.5664949 -0.465551E-05  0.211E-03    0.39       5.6  T
   9   -100.5664950 -0.130915E-06  0.657E-04    0.39      17.9  T
  10   -100.5664951 -0.236213E-07  0.324E-04    0.39      36.4  T
     SCC iter.                  ...        0 min,  0.081 sec
     gradient                   ...        0 min,  0.069 sec
 * total energy  :  -107.7256972 Eh     change       -0.1561755E-01 Eh
   gradient norm :     0.1011758 Eh/α   predicted    -0.1121926E-01 ( -28.16%)
   displ. norm   :     0.3493973 α      lambda       -0.2064579E-01
   maximum displ.:     0.0928246 α      in ANC's #200, #1, #31, ...

........................................................................
.............................. CYCLE   12 ..............................
........................................................................

 iter      E             dE          RMSdq      gap      omega  full diag
   1   -100.5859329 -0.100586E+03  0.216E-01    0.30       0.0  T
   2   -100.5697324  0.162004E-01  0.387E-01    0.62       1.0  T
   3   -100.5850752 -0.153427E-01  0.171E-01    0.30       1.0  T
   4   -100.5825600  0.251514E-02  0.204E-01    0.37       1.0  T
   5   -100.5875211 -0.496109E-02  0.387E-02    0.36       1.0  T
   6   -100.5875915 -0.703668E-04  0.208E-02    0.36       1.0  T
   7   -100.5876498 -0.583412E-04  0.624E-03    0.37       1.9  T
   8   -100.5876534 -0.355429E-05  0.205E-03    0.37       5.8  T
   9   -100.5876535 -0.735144E-07  0.972E-04    0.37      12.1  T
  10   -100.5876536 -0.103172E-06  0.359E-04    0.37      32.8  T
     SCC iter.                  ...        0 min,  0.081 sec
     gradient                   ...        0 min,  0.069 sec
 * total energy  :  -107.7353818 Eh     change       -0.9684576E-02 Eh
   gradient norm :     0.3355450 Eh/α   predicted    -0.1158313E-01 (  19.60%)
   displ. norm   :     0.1635727 α      lambda       -0.7564194E-02
   maximum displ.:     0.0464929 α      in ANC's #31, #54, #1, ...

........................................................................
.............................. CYCLE   13 ..............................
........................................................................

 iter      E             dE          RMSdq      gap      omega  full diag
   1   -100.5878210 -0.100588E+03  0.794E-02    0.36       0.0  T
   2   -100.5871360  0.684938E-03  0.879E-02    0.43       1.0  T
   3   -100.5868167  0.319374E-03  0.971E-02    0.32       1.0  T
   4   -100.5874546 -0.637926E-03  0.644E-02    0.38       1.0  T
   5   -100.5878605 -0.405919E-03  0.201E-02    0.37       1.0  T
   6   -100.5879062 -0.456836E-04  0.409E-03    0.37       2.9  T
   7   -100.5879082 -0.205867E-05  0.167E-03    0.38       7.0  T
   8   -100.5879084 -0.168068E-06  0.904E-04    0.38      13.0  T
   9   -100.5879085 -0.418663E-07  0.212E-04    0.38      55.7  T
     SCC iter.                  ...        0 min,  0.073 sec
     gradient                   ...        0 min,  0.069 sec
 * total energy  :  -107.7410106 Eh     change       -0.5628796E-02 Eh
   gradient norm :     0.2063940 Eh/α   predicted    -0.3883187E-02 ( -31.01%)
   displ. norm   :     0.3735609 α      lambda       -0.8702781E-02
   maximum displ.:     0.1172467 α      in ANC's #31, #54, #12, ...

........................................................................
.............................. CYCLE   14 ..............................
........................................................................

 iter      E             dE          RMSdq      gap      omega  full diag
   1   -100.5892760 -0.100589E+03  0.158E-01    0.35       0.0  T
   2   -100.5842766  0.499943E-02  0.216E-01    0.53       1.0  T
   3   -100.5863753 -0.209880E-02  0.177E-01    0.29       1.0  T
   4   -100.5886494 -0.227404E-02  0.100E-01    0.35       1.0  T
   5   -100.5895663 -0.916908E-03  0.454E-02    0.39       1.0  T
   6   -100.5897573 -0.190995E-03  0.109E-02    0.38       1.1  T
   7   -100.5897700 -0.126649E-04  0.394E-03    0.38       3.0  T
   8   -100.5897710 -0.107198E-05  0.168E-03    0.38       7.0  T
   9   -100.5897712 -0.212488E-06  0.463E-04    0.38      25.5  T
  10   -100.5897712 -0.735993E-08  0.279E-04    0.38      42.3  T
     SCC iter.                  ...        0 min,  0.080 sec
     gradient                   ...        0 min,  0.075 sec
 * total energy  :  -107.7471897 Eh     change       -0.6179124E-02 Eh
   gradient norm :     0.1256622 Eh/α   predicted    -0.4958650E-02 ( -19.75%)
   displ. norm   :     0.3399829 α      lambda       -0.5265616E-02
   maximum displ.:     0.1092746 α      in ANC's #31, #54, #12, ...

........................................................................
.............................. CYCLE   15 ..............................
........................................................................

 iter      E             dE          RMSdq      gap      omega  full diag
   1   -100.5925115 -0.100593E+03  0.125E-01    0.35       0.0  T
   2   -100.5880227  0.448877E-02  0.198E-01    0.51       1.0  T
   3   -100.5911202 -0.309755E-02  0.133E-01    0.32       1.0  T
   4   -100.5926282 -0.150798E-02  0.521E-02    0.36       1.0  T
   5   -100.5927568 -0.128616E-03  0.438E-02    0.39       1.0  T
   6   -100.5929230 -0.166146E-03  0.178E-02    0.37       1.0  T
   7   -100.5929557 -0.327186E-04  0.436E-03    0.38       2.7  T
   8   -100.5929575 -0.181190E-05  0.135E-03    0.38       8.7  T
   9   -100.5929576 -0.633347E-07  0.444E-04    0.38      26.5  T
  10   -100.5929576 -0.577384E-08  0.274E-04    0.38      43.0  T
     SCC iter.                  ...        0 min,  0.080 sec
     gradient                   ...        0 min,  0.069 sec
 * total energy  :  -107.7513069 Eh     change       -0.4117158E-02 Eh
   gradient norm :     0.0974113 Eh/α   predicted    -0.2937187E-02 ( -28.66%)
   displ. norm   :     0.4200220 α      lambda       -0.6036795E-02
   maximum displ.:     0.1397918 α      in ANC's #54, #31, #9, ...

........................................................................
.............................. CYCLE   16 ..............................
........................................................................

 iter      E             dE          RMSdq      gap      omega  full diag
   1   -100.5985961 -0.100599E+03  0.137E-01    0.36       0.0  T
   2   -100.5948014  0.379472E-02  0.189E-01    0.50       1.0  T
   3   -100.5961101 -0.130863E-02  0.166E-01    0.29       1.0  T
   4   -100.5986637 -0.255369E-02  0.616E-02    0.37       1.0  T
   5   -100.5988686 -0.204810E-03  0.491E-02    0.39       1.0  T
   6   -100.5990606 -0.192095E-03  0.237E-02    0.37       1.0  T
   7   -100.5991178 -0.571309E-04  0.576E-03    0.38       2.0  T
   8   -100.5991210 -0.324682E-05  0.177E-03    0.38       6.7  T
   9   -100.5991211 -0.122299E-06  0.625E-04    0.38      18.9  T
  10   -100.5991212 -0.137124E-07  0.356E-04    0.38      33.1  T
     SCC iter.                  ...        0 min,  0.081 sec
     gradient                   ...        0 min,  0.069 sec
 * total energy  :  -107.7559757 Eh     change       -0.4668801E-02 Eh
   gradient norm :     0.1038293 Eh/α   predicted    -0.3550902E-02 ( -23.94%)
   displ. norm   :     0.4227270 α      lambda       -0.5110724E-02
   maximum displ.:     0.1526482 α      in ANC's #54, #31, #9, ...

........................................................................
.............................. CYCLE   17 ..............................
........................................................................

 iter      E             dE          RMSdq      gap      omega  full diag
   1   -100.6052574 -0.100605E+03  0.132E-01    0.37       0.0  T
   2   -100.6042319  0.102544E-02  0.124E-01    0.46       1.0  T
   3   -100.6028100  0.142192E-02  0.159E-01    0.28       1.0  T
   4   -100.6044833 -0.167327E-02  0.930E-02    0.41       1.0  T
   5   -100.6052949 -0.811577E-03  0.598E-02    0.38       1.0  T
   6   -100.6056253 -0.330428E-03  0.166E-02    0.38       1.0  T
   7   -100.6056526 -0.273483E-04  0.533E-03    0.39       2.2  T
   8   -100.6056553 -0.266313E-05  0.189E-03    0.39       6.2  T
   9   -100.6056555 -0.179026E-06  0.683E-04    0.39      17.3  T
  10   -100.6056555 -0.185397E-07  0.354E-04    0.39      33.3  T
     SCC iter.                  ...        0 min,  0.080 sec
     gradient                   ...        0 min,  0.069 sec
 * total energy  :  -107.7597667 Eh     change       -0.3791022E-02 Eh
   gradient norm :     0.0980061 Eh/α   predicted    -0.3012051E-02 ( -20.55%)
   displ. norm   :     0.3735778 α      lambda       -0.3259977E-02
   maximum displ.:     0.1440678 α      in ANC's #54, #9, #51, ...

........................................................................
.............................. CYCLE   18 ..............................
........................................................................

 iter      E             dE          RMSdq      gap      omega  full diag
   1   -100.6086105 -0.100609E+03  0.118E-01    0.38       0.0  T
   2   -100.6080259  0.584576E-03  0.111E-01    0.37       1.0  T
   3   -100.6080049  0.210427E-04  0.916E-02    0.38       1.0  T
   4   -100.6078100  0.194864E-03  0.101E-01    0.34       1.0  T
   5   -100.6086347 -0.824752E-03  0.487E-02    0.43       1.0  T
   6   -100.6088961 -0.261376E-03  0.148E-02    0.38       1.0  T
   7   -100.6089216 -0.254537E-04  0.434E-03    0.39       2.7  T
   8   -100.6089230 -0.143281E-05  0.189E-03    0.39       6.2  T
   9   -100.6089233 -0.239869E-06  0.582E-04    0.39      20.3  T
  10   -100.6089233 -0.143526E-07  0.275E-04    0.39      42.8  T
     SCC iter.                  ...        0 min,  0.080 sec
     gradient                   ...        0 min,  0.069 sec
 * total energy  :  -107.7621996 Eh     change       -0.2432903E-02 Eh
   gradient norm :     0.0707092 Eh/α   predicted    -0.1857497E-02 ( -23.65%)
   displ. norm   :     0.3763843 α      lambda       -0.2580596E-02
   maximum displ.:     0.1452554 α      in ANC's #54, #9, #51, ...

........................................................................
.............................. CYCLE   19 ..............................
........................................................................

 iter      E             dE          RMSdq      gap      omega  full diag
   1   -100.6097071 -0.100610E+03  0.129E-01    0.42       0.0  T
   2   -100.6072728  0.243434E-02  0.168E-01    0.30       1.0  T
   3   -100.6087596 -0.148680E-02  0.109E-01    0.45       1.0  T
   4   -100.6091196 -0.360048E-03  0.954E-02    0.34       1.0  T
   5   -100.6099107 -0.791100E-03  0.455E-02    0.41       1.0  T
   6   -100.6101122 -0.201453E-03  0.924E-03    0.39       1.3  T
   7   -100.6101199 -0.769873E-05  0.423E-03    0.40       2.8  T
   8   -100.6101208 -0.975730E-06  0.205E-03    0.40       5.8  T
   9   -100.6101212 -0.354551E-06  0.596E-04    0.40      19.8  T
  10   -100.6101212 -0.184315E-07  0.231E-04    0.40      51.0  T
     SCC iter.                  ...        0 min,  0.080 sec
     gradient                   ...        0 min,  0.069 sec
 * total energy  :  -107.7642872 Eh     change       -0.2087574E-02 Eh
   gradient norm :     0.0700375 Eh/α   predicted    -0.1473122E-02 ( -29.43%)
   displ. norm   :     0.5405365 α      lambda       -0.3925223E-02
   maximum displ.:     0.2054230 α      in ANC's #54, #9, #51, ...

........................................................................
.............................. CYCLE   20 ..............................
........................................................................

 iter      E             dE          RMSdq      gap      omega  full diag
   1   -100.6103149 -0.100610E+03  0.227E-01    0.49       0.0  T
   2   -100.5988966  0.114183E-01  0.335E-01    0.18       1.0  T
   3   -100.6083426 -0.944600E-02  0.176E-01    0.53       1.0  T
   4   -100.6107405 -0.239788E-02  0.105E-01    0.38       1.0  T
   5   -100.6113803 -0.639776E-03  0.491E-02    0.42       1.0  T
   6   -100.6116931 -0.312880E-03  0.884E-03    0.42       1.3  T
   7   -100.6116979 -0.475419E-05  0.569E-03    0.43       2.1  T
   8   -100.6116991 -0.118900E-05  0.261E-03    0.43       4.5  T
   9   -100.6116998 -0.762695E-06  0.775E-04    0.43      15.2  T
  10   -100.6116999 -0.323497E-07  0.279E-04    0.43      42.2  T
     SCC iter.                  ...        0 min,  0.081 sec
     gradient                   ...        0 min,  0.069 sec
 * total energy  :  -107.7681823 Eh     change       -0.3895155E-02 Eh
   gradient norm :     0.0399347 Eh/α   predicted    -0.2536063E-02 ( -34.89%)
   displ. norm   :     0.5168333 α      lambda       -0.5001741E-02
   maximum displ.:     0.1862028 α      in ANC's #54, #9, #51, ...
 * RMSD in coord.:     0.7040365 α      energy gain  -0.5646830E+01 Eh

generating ANC from model Hessian ...
Using Lindh-Hessian (1995)
 Shifting diagonal of input Hessian by    1.0018519195626793E-002
 Lowest  eigenvalues of input Hessian
    0.010000    0.000000    0.000000    0.000000    0.000000    0.000000
    0.000000    0.010051    0.010072    0.010126    0.010168    0.010301
    0.010383    0.010779    0.011008    0.011637    0.011731    0.011854
 Highest eigenvalues
    2.160041    2.182519    2.220113    2.566600    2.766976    4.185180


........................................................................
.............................. CYCLE   21 ..............................
........................................................................

 iter      E             dE          RMSdq      gap      omega  full diag
   1   -100.6108162 -0.100611E+03  0.235E-01    0.51       0.0  T
   2   -100.6056239  0.519225E-02  0.245E-01    0.29       1.0  T
   3   -100.6031671  0.245682E-02  0.260E-01    0.63       1.0  T
   4   -100.6109056 -0.773853E-02  0.935E-02    0.42       1.0  T
   5   -100.6115768 -0.671165E-03  0.170E-02    0.45       1.0  T
   6   -100.6116012 -0.243750E-04  0.104E-02    0.45       1.1  T
   7   -100.6116126 -0.114529E-04  0.373E-03    0.45       3.2  T
   8   -100.6116134 -0.776582E-06  0.174E-03    0.46       6.8  T
   9   -100.6116137 -0.304797E-06  0.587E-04    0.46      20.1  T
  10   -100.6116137 -0.239345E-07  0.201E-04    0.46      58.7  T
     SCC iter.                  ...        0 min,  0.080 sec
     gradient                   ...        0 min,  0.069 sec
 * total energy  :  -107.7732049 Eh     change       -0.5022539E-02 Eh
   gradient norm :     0.1057622 Eh/α   predicted     0.0000000E+00 (-100.00%)
   displ. norm   :     0.3208553 α      lambda       -0.1216783E-01
   maximum displ.:     0.0982023 α      in ANC's #43, #44, #42, ...

........................................................................
.............................. CYCLE   22 ..............................
........................................................................

 iter      E             dE          RMSdq      gap      omega  full diag
   1   -100.6225261 -0.100623E+03  0.162E-01    0.51       0.0  T
   2   -100.6185852  0.394081E-02  0.205E-01    0.34       1.0  T
   3   -100.6207484 -0.216320E-02  0.145E-01    0.58       1.0  T
   4   -100.6219430 -0.119454E-02  0.885E-02    0.41       1.0  T
   5   -100.6228986 -0.955582E-03  0.286E-02    0.49       1.0  T
   6   -100.6230180 -0.119430E-03  0.540E-03    0.47       2.2  T
   7   -100.6230204 -0.240882E-05  0.253E-03    0.48       4.7  T
   8   -100.6230207 -0.246881E-06  0.105E-03    0.48      11.2  T
   9   -100.6230207 -0.635581E-07  0.351E-04    0.48      33.6  T
  10   -100.6230207 -0.808846E-08  0.140E-04    0.48      84.1  T
     SCC iter.                  ...        0 min,  0.080 sec
     gradient                   ...        0 min,  0.069 sec
 * total energy  :  -107.7756475 Eh     change       -0.2442606E-02 Eh
   gradient norm :     0.3494716 Eh/α   predicted    -0.6774712E-02 ( 177.36%)
   displ. norm   :     0.3591861 α      lambda       -0.1828681E-01
   maximum displ.:     0.1080177 α      in ANC's #43, #44, #41, ...

........................................................................
.............................. CYCLE   23 ..............................
........................................................................

 iter      E             dE          RMSdq      gap      omega  full diag
   1   -100.6287437 -0.100629E+03  0.203E-01    0.54       0.0  T
   2   -100.6195086  0.923502E-02  0.298E-01    0.30       1.0  T
   3   -100.6271420 -0.763338E-02  0.162E-01    0.62       1.0  T
   4   -100.6272888 -0.146815E-03  0.126E-01    0.39       1.0  T
   5   -100.6296532 -0.236441E-02  0.272E-02    0.51       1.0  T
   6   -100.6297442 -0.909670E-04  0.555E-03    0.49       2.1  T
   7   -100.6297464 -0.223689E-05  0.282E-03    0.49       4.2  T
   8   -100.6297468 -0.370342E-06  0.110E-03    0.49      10.7  T
   9   -100.6297469 -0.521981E-07  0.312E-04    0.49      37.8  T
  10   -100.6297469 -0.483001E-08  0.141E-04    0.49      83.7  T
     SCC iter.                  ...        0 min,  0.080 sec
     gradient                   ...        0 min,  0.069 sec
 * total energy  :  -107.7864419 Eh     change       -0.1079442E-01 Eh
   gradient norm :     0.0386607 Eh/α   predicted    -0.1032497E-01 (  -4.35%)
   displ. norm   :     0.3809499 α      lambda       -0.6576611E-02
   maximum displ.:     0.1069637 α      in ANC's #9, #37, #18, ...

........................................................................
.............................. CYCLE   24 ..............................
........................................................................

 iter      E             dE          RMSdq      gap      omega  full diag
   1   -100.6341637 -0.100634E+03  0.168E-01    0.50       0.0  T
   2   -100.6308559  0.330779E-02  0.197E-01    0.42       1.0  T
   3   -100.6331421 -0.228617E-02  0.139E-01    0.58       1.0  T
   4   -100.6316129  0.152919E-02  0.146E-01    0.35       1.0  T
   5   -100.6348472 -0.323423E-02  0.326E-02    0.52       1.0  T
   6   -100.6349673 -0.120143E-03  0.669E-03    0.49       1.8  T
   7   -100.6349715 -0.422775E-05  0.240E-03    0.49       4.9  T
   8   -100.6349716 -0.940541E-07  0.123E-03    0.49       9.6  T
   9   -100.6349717 -0.947336E-07  0.332E-04    0.49      35.5  T
  10   -100.6349717 -0.471707E-08  0.164E-04    0.49      72.0  T
     SCC iter.                  ...        0 min,  0.081 sec
     gradient                   ...        0 min,  0.069 sec
 * total energy  :  -107.7907290 Eh     change       -0.4287137E-02 Eh
   gradient norm :     0.0504722 Eh/α   predicted    -0.3766491E-02 ( -12.14%)
   displ. norm   :     0.3846517 α      lambda       -0.3838672E-02
   maximum displ.:     0.1370236 α      in ANC's #32, #9, #18, ...

........................................................................
.............................. CYCLE   25 ..............................
........................................................................

 iter      E             dE          RMSdq      gap      omega  full diag
   1   -100.6369446 -0.100637E+03  0.151E-01    0.48       0.0  T
   2   -100.6340102  0.293440E-02  0.185E-01    0.48       1.0  T
   3   -100.6371562 -0.314598E-02  0.968E-02    0.52       1.0  T
   4   -100.6361039  0.105231E-02  0.110E-01    0.39       1.0  T
   5   -100.6375192 -0.141537E-02  0.512E-02    0.54       1.0  T
   6   -100.6378776 -0.358398E-03  0.497E-03    0.49       2.4  T
   7   -100.6378792 -0.159361E-05  0.275E-03    0.50       4.3  T
   8   -100.6378797 -0.518725E-06  0.120E-03    0.49       9.8  T
   9   -100.6378798 -0.908917E-07  0.249E-04    0.49      47.3  T
  10   -100.6378798  0.531557E-09  0.171E-04    0.49      68.9  T
     SCC iter.                  ...        0 min,  0.081 sec
     gradient                   ...        0 min,  0.069 sec
 * total energy  :  -107.7935496 Eh     change       -0.2820637E-02 Eh
   gradient norm :     0.0457167 Eh/α   predicted    -0.2203674E-02 ( -21.87%)
   displ. norm   :     0.4892160 α      lambda       -0.4241659E-02
   maximum displ.:     0.1903730 α      in ANC's #32, #9, #18, ...

........................................................................
.............................. CYCLE   26 ..............................
........................................................................

 iter      E             dE          RMSdq      gap      omega  full diag
   1   -100.6388359 -0.100639E+03  0.191E-01    0.49       0.0  T
   2   -100.6337229  0.511307E-02  0.234E-01    0.49       1.0  T
   3   -100.6389810 -0.525814E-02  0.128E-01    0.53       1.0  T
   4   -100.6383804  0.600560E-03  0.116E-01    0.39       1.0  T
   5   -100.6396587 -0.127824E-02  0.690E-02    0.57       1.0  T
   6   -100.6403239 -0.665230E-03  0.460E-03    0.50       2.6  T
   7   -100.6403237  0.229916E-06  0.361E-03    0.50       3.3  T
   8   -100.6403248 -0.117492E-05  0.124E-03    0.50       9.5  T
   9   -100.6403249 -0.872209E-07  0.324E-04    0.50      36.4  T
  10   -100.6403249 -0.250903E-08  0.173E-04    0.50      68.1  T
     SCC iter.                  ...        0 min,  0.081 sec
     gradient                   ...        0 min,  0.069 sec
 * total energy  :  -107.7963704 Eh     change       -0.2820748E-02 Eh
   gradient norm :     0.0321593 Eh/α   predicted    -0.2628434E-02 (  -6.82%)
   displ. norm   :     0.4134604 α      lambda       -0.3027876E-02
   maximum displ.:     0.1891129 α      in ANC's #9, #10, #18, ...

........................................................................
.............................. CYCLE   27 ..............................
........................................................................

 iter      E             dE          RMSdq      gap      omega  full diag
   1   -100.6448805 -0.100645E+03  0.148E-01    0.52       0.0  T
   2   -100.6424993  0.238116E-02  0.162E-01    0.46       1.0  T
   3   -100.6437418 -0.124243E-02  0.137E-01    0.58       1.0  T
   4   -100.6442968 -0.555046E-03  0.925E-02    0.43       1.0  T
   5   -100.6452057 -0.908865E-03  0.478E-02    0.55       1.0  T
   6   -100.6455308 -0.325138E-03  0.285E-03    0.51       4.1  T
   7   -100.6455309 -0.581493E-07  0.185E-03    0.51       6.4  T
   8   -100.6455310 -0.169604E-06  0.625E-04    0.51      18.9  T
   9   -100.6455311 -0.224665E-07  0.275E-04    0.51      42.8  T
     SCC iter.                  ...        0 min,  0.074 sec
     gradient                   ...        0 min,  0.069 sec
 * total energy  :  -107.7987245 Eh     change       -0.2354079E-02 Eh
   gradient norm :     0.0414271 Eh/α   predicted    -0.1772761E-02 ( -24.69%)
   displ. norm   :     0.5093799 α      lambda       -0.4542396E-02
   maximum displ.:     0.2362949 α      in ANC's #9, #10, #23, ...

........................................................................
.............................. CYCLE   28 ..............................
........................................................................

 iter      E             dE          RMSdq      gap      omega  full diag
   1   -100.6535577 -0.100654E+03  0.157E-01    0.54       0.0  T
   2   -100.6519306  0.162706E-02  0.147E-01    0.46       1.0  T
   3   -100.6512948  0.635858E-03  0.168E-01    0.62       1.0  T
   4   -100.6531222 -0.182746E-02  0.859E-02    0.45       1.0  T
   5   -100.6534918 -0.369625E-03  0.608E-02    0.58       1.0  T
   6   -100.6540892 -0.597378E-03  0.487E-03    0.52       2.4  T
   7   -100.6540897 -0.501757E-06  0.282E-03    0.52       4.2  T
   8   -100.6540899 -0.202360E-06  0.126E-03    0.52       9.4  T
   9   -100.6540900 -0.117567E-06  0.408E-04    0.52      28.9  T
  10   -100.6540900 -0.715598E-08  0.178E-04    0.52      66.1  T
     SCC iter.                  ...        0 min,  0.081 sec
     gradient                   ...        0 min,  0.069 sec
 * total energy  :  -107.8018412 Eh     change       -0.3116709E-02 Eh
   gradient norm :     0.0418711 Eh/α   predicted    -0.2860509E-02 (  -8.22%)
   displ. norm   :     0.5383138 α      lambda       -0.3123932E-02
   maximum displ.:     0.2770258 α      in ANC's #9, #10, #8, ...

........................................................................
.............................. CYCLE   29 ..............................
........................................................................

 iter      E             dE          RMSdq      gap      omega  full diag
   1   -100.6596438 -0.100660E+03  0.146E-01    0.55       0.0  T
   2   -100.6584023  0.124153E-02  0.126E-01    0.50       1.0  T
   3   -100.6574433  0.958916E-03  0.162E-01    0.62       1.0  T
   4   -100.6589181 -0.147478E-02  0.848E-02    0.46       1.0  T
   5   -100.6596850 -0.766823E-03  0.411E-02    0.58       1.0  T
   6   -100.6599490 -0.264084E-03  0.328E-03    0.54       3.6  T
   7   -100.6599494 -0.336458E-06  0.183E-03    0.54       6.4  T
   8   -100.6599494 -0.463383E-07  0.884E-04    0.54      13.3  T
   9   -100.6599495 -0.703098E-07  0.316E-04    0.54      37.3  T
     SCC iter.                  ...        0 min,  0.073 sec
     gradient                   ...        0 min,  0.069 sec
 * total energy  :  -107.8040963 Eh     change       -0.2255095E-02 Eh
   gradient norm :     0.0236777 Eh/α   predicted    -0.2014596E-02 ( -10.66%)
   displ. norm   :     0.5456305 α      lambda       -0.3117106E-02
   maximum displ.:     0.2721771 α      in ANC's #9, #10, #11, ...

........................................................................
.............................. CYCLE   30 ..............................
........................................................................

 iter      E             dE          RMSdq      gap      omega  full diag
   1   -100.6655032 -0.100666E+03  0.121E-01    0.57       0.0  T
   2   -100.6651074  0.395826E-03  0.891E-02    0.53       1.0  T
   3   -100.6631025  0.200494E-02  0.154E-01    0.65       1.0  T
   4   -100.6651488 -0.204632E-02  0.554E-02    0.51       1.0  T
   5   -100.6654967 -0.347849E-03  0.256E-02    0.58       1.0  T
   6   -100.6655985 -0.101867E-03  0.325E-03    0.56       3.6  T
   7   -100.6655986 -0.322291E-07  0.147E-03    0.56       8.0  T
   8   -100.6655987 -0.121325E-06  0.468E-04    0.56      25.2  T
   9   -100.6655987 -0.128840E-07  0.226E-04    0.56      52.1  T
     SCC iter.                  ...        0 min,  0.073 sec
     gradient                   ...        0 min,  0.069 sec
 * total energy  :  -107.8063756 Eh     change       -0.2279297E-02 Eh
   gradient norm :     0.0357152 Eh/α   predicted    -0.2022555E-02 ( -11.26%)
   displ. norm   :     0.6324409 α      lambda       -0.2727803E-02
   maximum displ.:     0.3287314 α      in ANC's #9, #11, #10, ...

........................................................................
.............................. CYCLE   31 ..............................
........................................................................

 iter      E             dE          RMSdq      gap      omega  full diag
   1   -100.6683587 -0.100668E+03  0.140E-01    0.60       0.0  T
   2   -100.6678114  0.547256E-03  0.107E-01    0.57       1.0  T
   3   -100.6660663  0.174510E-02  0.158E-01    0.65       1.0  T
   4   -100.6679005 -0.183417E-02  0.627E-02    0.53       1.0  T
   5   -100.6683748 -0.474391E-03  0.268E-02    0.62       1.0  T
   6   -100.6684857 -0.110869E-03  0.339E-03    0.59       3.5  T
   7   -100.6684859 -0.215238E-06  0.178E-03    0.59       6.6  T
   8   -100.6684861 -0.207476E-06  0.693E-04    0.59      17.0  T
   9   -100.6684862 -0.323138E-07  0.198E-04    0.59      59.6  T
     SCC iter.                  ...        0 min,  0.073 sec
     gradient                   ...        0 min,  0.069 sec
 * total energy  :  -107.8086329 Eh     change       -0.2257342E-02 Eh
   gradient norm :     0.0387628 Eh/α   predicted    -0.1909445E-02 ( -15.41%)
   displ. norm   :     0.6915818 α      lambda       -0.3032256E-02
   maximum displ.:     0.3495494 α      in ANC's #9, #11, #16, ...

........................................................................
.............................. CYCLE   32 ..............................
........................................................................

 iter      E             dE          RMSdq      gap      omega  full diag
   1   -100.6683883 -0.100668E+03  0.193E-01    0.68       0.0  T
   2   -100.6676209  0.767357E-03  0.130E-01    0.61       1.0  T
   3   -100.6610165  0.660440E-02  0.230E-01    0.84       1.0  T
   4   -100.6680862 -0.706966E-02  0.620E-02    0.61       1.0  T
   5   -100.6684889 -0.402753E-03  0.249E-02    0.68       1.0  T
   6   -100.6685624 -0.735006E-04  0.474E-03    0.66       2.5  T
   7   -100.6685632 -0.784321E-06  0.221E-03    0.66       5.3  T
   8   -100.6685634 -0.247240E-06  0.701E-04    0.66      16.8  T
   9   -100.6685635 -0.377061E-07  0.231E-04    0.66      51.1  T
     SCC iter.                  ...        0 min,  0.073 sec
     gradient                   ...        0 min,  0.069 sec
 * total energy  :  -107.8112265 Eh     change       -0.2593537E-02 Eh
   gradient norm :     0.0189357 Eh/α   predicted    -0.2241271E-02 ( -13.58%)
   displ. norm   :     0.7909932 α      lambda       -0.3790459E-02
   maximum displ.:     0.3782036 α      in ANC's #9, #16, #12, ...

........................................................................
.............................. CYCLE   33 ..............................
........................................................................

 iter      E             dE          RMSdq      gap      omega  full diag
   1   -100.6652300 -0.100665E+03  0.364E-01    0.92       0.0  T
   2   -100.6566402  0.858978E-02  0.329E-01    0.72       1.0  T
   3   -100.6605229 -0.388261E-02  0.291E-01    0.97       1.0  T
   4   -100.6668043 -0.628146E-02  0.947E-02    0.76       1.0  T
   5   -100.6669048 -0.100516E-03  0.841E-02    0.92       1.0  T
   6   -100.6679078 -0.100298E-02  0.921E-03    0.84       1.3  T
   7   -100.6679113 -0.348219E-05  0.371E-03    0.84       3.2  T
   8   -100.6679119 -0.643895E-06  0.132E-03    0.84       8.9  T
   9   -100.6679121 -0.135061E-06  0.457E-04    0.84      25.8  T
  10   -100.6679121 -0.676637E-08  0.294E-04    0.84      40.1  T
     SCC iter.                  ...        0 min,  0.080 sec
     gradient                   ...        0 min,  0.069 sec
 * total energy  :  -107.8153921 Eh     change       -0.4165610E-02 Eh
   gradient norm :     0.0429297 Eh/α   predicted    -0.3081021E-02 ( -26.04%)
   displ. norm   :     0.7133560 α      lambda       -0.5977782E-02
   maximum displ.:     0.3373576 α      in ANC's #9, #16, #12, ...

........................................................................
.............................. CYCLE   34 ..............................
........................................................................

 iter      E             dE          RMSdq      gap      omega  full diag
   1   -100.6664375 -0.100666E+03  0.371E-01    1.18       0.0  T
   2   -100.6637259  0.271166E-02  0.251E-01    1.03       1.0  T
   3   -100.6619890  0.173691E-02  0.286E-01    1.19       1.0  T
   4   -100.6680206 -0.603159E-02  0.690E-02    1.12       1.0  T
   5   -100.6682624 -0.241863E-03  0.153E-02    1.09       1.0  T
   6   -100.6682690 -0.657782E-05  0.127E-02    1.11       1.0  T
   7   -100.6682861 -0.171262E-04  0.561E-03    1.10       2.1  T
   8   -100.6682890 -0.291884E-05  0.216E-03    1.10       5.5  T
   9   -100.6682896 -0.553517E-06  0.508E-04    1.10      23.2  T
  10   -100.6682896 -0.148986E-07  0.248E-04    1.10      47.5  T
     SCC iter.                  ...        0 min,  0.080 sec
     gradient                   ...        0 min,  0.069 sec
 * total energy  :  -107.8232521 Eh     change       -0.7860070E-02 Eh
   gradient norm :     0.0577536 Eh/α   predicted    -0.4509873E-02 ( -42.62%)
   displ. norm   :     0.6621534 α      lambda       -0.1256328E-01
   maximum displ.:     0.2773175 α      in ANC's #9, #16, #12, ...

........................................................................
.............................. CYCLE   35 ..............................
........................................................................

 iter      E             dE          RMSdq      gap      omega  full diag
   1   -100.6636960 -0.100664E+03  0.495E-01    1.32       0.0  T
   2   -100.6620153  0.168071E-02  0.357E-01    1.27       1.0  T
   3   -100.6696817 -0.766642E-02  0.229E-01    1.29       1.0  T
   4   -100.6710303 -0.134859E-02  0.107E-01    1.35       1.0  T
   5   -100.6715856 -0.555363E-03  0.513E-02    1.24       1.0  T
   6   -100.6719612 -0.375534E-03  0.108E-02    1.31       1.1  T
   7   -100.6719673 -0.617224E-05  0.561E-03    1.29       2.1  T
   8   -100.6719695 -0.219480E-05  0.156E-03    1.30       7.6  T
   9   -100.6719697 -0.155916E-06  0.515E-04    1.30      22.9  T
  10   -100.6719697 -0.665098E-08  0.295E-04    1.30      40.0  T
     SCC iter.                  ...        0 min,  0.081 sec
     gradient                   ...        0 min,  0.069 sec
 * total energy  :  -107.8384067 Eh     change       -0.1515459E-01 Eh
   gradient norm :     0.0874377 Eh/α   predicted    -0.9035814E-02 ( -40.38%)
   displ. norm   :     0.6633017 α      lambda       -0.2169653E-01
   maximum displ.:     0.2933907 α      in ANC's #16, #12, #9, ...

........................................................................
.............................. CYCLE   36 ..............................
........................................................................

 iter      E             dE          RMSdq      gap      omega  full diag
   1   -100.6960829 -0.100696E+03  0.289E-01    1.31       0.0  T
   2   -100.6968917 -0.808824E-03  0.192E-01    1.34       1.0  T
   3   -100.6978670 -0.975342E-03  0.108E-01    1.29       1.0  T
   4   -100.6976276  0.239422E-03  0.676E-02    1.39       1.0  T
   5   -100.6982163 -0.588720E-03  0.155E-02    1.31       1.0  T
   6   -100.6982367 -0.203075E-04  0.562E-03    1.33       2.1  T
   7   -100.6982371 -0.462843E-06  0.272E-03    1.32       4.3  T
   8   -100.6982376 -0.509885E-06  0.769E-04    1.32      15.3  T
   9   -100.6982377 -0.273538E-07  0.326E-04    1.32      36.1  T
     SCC iter.                  ...        0 min,  0.073 sec
     gradient                   ...        0 min,  0.068 sec
 * total energy  :  -107.8594913 Eh     change       -0.2108452E-01 Eh
   gradient norm :     0.1017938 Eh/α   predicted    -0.1562118E-01 ( -25.91%)
   displ. norm   :     0.8362799 α      lambda       -0.3843453E-01
   maximum displ.:     0.3191949 α      in ANC's #53, #55, #16, ...

........................................................................
.............................. CYCLE   37 ..............................
........................................................................

 iter      E             dE          RMSdq      gap      omega  full diag
   1   -100.7129650 -0.100713E+03  0.526E-01    1.38       0.0  T
   2   -100.7079073  0.505770E-02  0.478E-01    0.92       1.0  T
   3   -100.7215766 -0.136694E-01  0.267E-01    1.45       1.0  T
   4   -100.7169967  0.457996E-02  0.215E-01    0.99       1.0  T
   5   -100.7245712 -0.757456E-02  0.693E-02    1.32       1.0  T
   6   -100.7250923 -0.521117E-03  0.138E-02    1.27       1.0  T
   7   -100.7250983 -0.599315E-05  0.616E-03    1.26       1.9  T
   8   -100.7251019 -0.359965E-05  0.243E-03    1.26       4.8  T
   9   -100.7251021 -0.218457E-06  0.941E-04    1.26      12.5  T
  10   -100.7251022 -0.521814E-07  0.391E-04    1.26      30.1  T
     SCC iter.                  ...        0 min,  0.081 sec
     gradient                   ...        0 min,  0.069 sec
 * total energy  :  -107.8599595 Eh     change       -0.4682049E-03 Eh
   gradient norm :     0.1770096 Eh/α   predicted    -0.3265721E-01 (6874.98%)
   displ. norm   :     0.3978301 α      lambda       -0.5548445E-01
   maximum displ.:     0.2163074 α      in ANC's #55, #111, #53, ...

........................................................................
.............................. CYCLE   38 ..............................
........................................................................

 iter      E             dE          RMSdq      gap      omega  full diag
   1   -100.7277966 -0.100728E+03  0.301E-01    1.36       0.0  T
   2   -100.7295566 -0.176008E-02  0.212E-01    1.34       1.0  T
   3   -100.7310516 -0.149494E-02  0.107E-01    1.38       1.0  T
   4   -100.7310385  0.130543E-04  0.299E-02    1.34       1.0  T
   5   -100.7311080 -0.695116E-04  0.140E-02    1.38       1.0  T
   6   -100.7311337 -0.256302E-04  0.451E-03    1.36       2.6  T
   7   -100.7311348 -0.110290E-05  0.199E-03    1.37       5.9  T
   8   -100.7311349 -0.834783E-07  0.689E-04    1.37      17.1  T
   9   -100.7311349 -0.192901E-07  0.319E-04    1.37      37.0  T
     SCC iter.                  ...        0 min,  0.073 sec
     gradient                   ...        0 min,  0.069 sec
 * total energy  :  -107.8796488 Eh     change       -0.1968934E-01 Eh
   gradient norm :     0.0866109 Eh/α   predicted    -0.3213294E-01 (  63.20%)
   displ. norm   :     0.4327271 α      lambda       -0.7478845E-02
   maximum displ.:     0.2163939 α      in ANC's #12, #9, #16, ...

........................................................................
.............................. CYCLE   39 ..............................
........................................................................

 iter      E             dE          RMSdq      gap      omega  full diag
   1   -100.7279855 -0.100728E+03  0.951E-02    1.39       0.0  T
   2   -100.7280581 -0.725769E-04  0.707E-02    1.35       1.0  T
   3   -100.7281363 -0.781806E-04  0.444E-02    1.41       1.0  T
   4   -100.7280686  0.676724E-04  0.350E-02    1.33       1.0  T
   5   -100.7282410 -0.172456E-03  0.521E-03    1.38       2.3  T
   6   -100.7282426 -0.157921E-05  0.207E-03    1.38       5.7  T
   7   -100.7282427 -0.422119E-07  0.698E-04    1.38      16.9  T
   8   -100.7282427 -0.189774E-07  0.343E-04    1.38      34.4  T
     SCC iter.                  ...        0 min,  0.065 sec
     gradient                   ...        0 min,  0.070 sec
 * total energy  :  -107.8860977 Eh     change       -0.6448884E-02 Eh
   gradient norm :     0.0677038 Eh/α   predicted    -0.4439648E-02 ( -31.16%)
   displ. norm   :     0.6738403 α      lambda       -0.1625764E-01
   maximum displ.:     0.2039334 α      in ANC's #12, #10, #14, ...

........................................................................
.............................. CYCLE   40 ..............................
........................................................................

 iter      E             dE          RMSdq      gap      omega  full diag
   1   -100.7336596 -0.100734E+03  0.322E-01    1.47       0.0  T
   2   -100.7296647  0.399492E-02  0.314E-01    1.15       1.0  T
   3   -100.7374393 -0.777466E-02  0.148E-01    1.50       1.0  T
   4   -100.7373123  0.127055E-03  0.100E-01    1.30       1.0  T
   5   -100.7385979 -0.128568E-02  0.292E-02    1.44       1.0  T
   6   -100.7386698 -0.718418E-04  0.760E-03    1.42       1.6  T
   7   -100.7386721 -0.229865E-05  0.295E-03    1.42       4.0  T
   8   -100.7386724 -0.269533E-06  0.154E-03    1.42       7.7  T
   9   -100.7386725 -0.125111E-06  0.495E-04    1.42      23.8  T
  10   -100.7386725 -0.110931E-07  0.246E-04    1.42      48.0  T
     SCC iter.                  ...        0 min,  0.080 sec
     gradient                   ...        0 min,  0.069 sec
 * total energy  :  -107.8876169 Eh     change       -0.1519245E-02 Eh
   gradient norm :     0.1204290 Eh/α   predicted    -0.1181979E-01 ( 678.00%)
   displ. norm   :     0.5283018 α      lambda       -0.1750603E-01
   maximum displ.:     0.2740946 α      in ANC's #12, #16, #9, ...

........................................................................
.............................. CYCLE   41 ..............................
........................................................................

 iter      E             dE          RMSdq      gap      omega  full diag
   1   -100.7421389 -0.100742E+03  0.172E-01    1.40       0.0  T
   2   -100.7420939  0.449497E-04  0.104E-01    1.45       1.0  T
   3   -100.7417676  0.326368E-03  0.969E-02    1.35       1.0  T
   4   -100.7423535 -0.585938E-03  0.418E-02    1.46       1.0  T
   5   -100.7425453 -0.191840E-03  0.700E-03    1.41       1.7  T
   6   -100.7425488 -0.348792E-05  0.333E-03    1.42       3.5  T
   7   -100.7425491 -0.274964E-06  0.133E-03    1.41       8.9  T
   8   -100.7425492 -0.563520E-07  0.613E-04    1.41      19.2  T
   9   -100.7425492 -0.216919E-07  0.202E-04    1.41      58.3  T
     SCC iter.                  ...        0 min,  0.073 sec
     gradient                   ...        0 min,  0.069 sec
 * total energy  :  -107.8961479 Eh     change       -0.8530958E-02 Eh
   gradient norm :     0.0666601 Eh/α   predicted    -0.1119602E-01 (  31.24%)
   displ. norm   :     0.4287961 α      lambda       -0.8205151E-02
   maximum displ.:     0.2141046 α      in ANC's #12, #9, #14, ...

........................................................................
.............................. CYCLE   42 ..............................
........................................................................

 iter      E             dE          RMSdq      gap      omega  full diag
   1   -100.7387494 -0.100739E+03  0.165E-01    1.36       0.0  T
   2   -100.7385840  0.165360E-03  0.141E-01    1.46       1.0  T
   3   -100.7392419 -0.657915E-03  0.787E-02    1.35       1.0  T
   4   -100.7390398  0.202112E-03  0.612E-02    1.48       1.0  T
   5   -100.7395143 -0.474490E-03  0.726E-03    1.40       1.6  T
   6   -100.7395174 -0.303989E-05  0.318E-03    1.40       3.7  T
   7   -100.7395176 -0.210822E-06  0.149E-03    1.40       7.9  T
   8   -100.7395177 -0.121602E-06  0.610E-04    1.40      19.3  T
   9   -100.7395177 -0.134105E-07  0.232E-04    1.40      50.7  T
     SCC iter.                  ...        0 min,  0.072 sec
     gradient                   ...        0 min,  0.069 sec
 * total energy  :  -107.8985802 Eh     change       -0.2432269E-02 Eh
   gradient norm :     0.0606577 Eh/α   predicted    -0.4856900E-02 (  99.69%)
   displ. norm   :     0.4693704 α      lambda       -0.6311432E-02
   maximum displ.:     0.2627353 α      in ANC's #12, #9, #14, ...
 * RMSD in coord.:     0.9178956 α      energy gain  -0.1303978E+00 Eh

generating ANC from model Hessian ...
Using Lindh-Hessian (1995)
 Shifting diagonal of input Hessian by    1.0018581256773974E-002
 Lowest  eigenvalues of input Hessian
    0.010000    0.000000    0.000000    0.000000    0.000000    0.000000
    0.000000    0.010024    0.010071    0.010105    0.010135    0.010221
    0.010417    0.010578    0.010895    0.011420    0.011758    0.012013
 Highest eigenvalues
    2.145295    2.187018    2.270826    2.662326    2.724712    4.428680


........................................................................
.............................. CYCLE   43 ..............................
........................................................................

 iter      E             dE          RMSdq      gap      omega  full diag
   1   -100.7387016 -0.100739E+03  0.120E-01    1.42       0.0  T
   2   -100.7386301  0.714896E-04  0.104E-01    1.37       1.0  T
   3   -100.7390892 -0.459130E-03  0.556E-02    1.44       1.0  T
   4   -100.7389550  0.134250E-03  0.448E-02    1.35       1.0  T
   5   -100.7392139 -0.258936E-03  0.854E-03    1.42       1.4  T
   6   -100.7392188 -0.486651E-05  0.301E-03    1.41       3.9  T
   7   -100.7392189 -0.104857E-06  0.912E-04    1.41      12.9  T
   8   -100.7392189 -0.471776E-07  0.396E-04    1.41      29.8  T
     SCC iter.                  ...        0 min,  0.065 sec
     gradient                   ...        0 min,  0.068 sec
 * total energy  :  -107.9028604 Eh     change       -0.4280217E-02 Eh
   gradient norm :     0.0319265 Eh/α   predicted     0.0000000E+00 (-100.00%)
   displ. norm   :     0.2989291 α      lambda       -0.3886750E-02
   maximum displ.:     0.1602855 α      in ANC's #13, #10, #53, ...

........................................................................
.............................. CYCLE   44 ..............................
........................................................................

 iter      E             dE          RMSdq      gap      omega  full diag
   1   -100.7520344 -0.100752E+03  0.915E-02    1.41       0.0  T
   2   -100.7520556 -0.211377E-04  0.534E-02    1.41       1.0  T
   3   -100.7519863  0.692965E-04  0.262E-02    1.43       1.0  T
   4   -100.7520484 -0.621282E-04  0.127E-02    1.40       1.0  T
   5   -100.7520679 -0.194697E-04  0.387E-03    1.41       3.0  T
   6   -100.7520684 -0.529499E-06  0.176E-03    1.41       6.7  T
   7   -100.7520686 -0.215825E-06  0.540E-04    1.41      21.8  T
   8   -100.7520687 -0.215439E-07  0.201E-04    1.41      58.5  T
     SCC iter.                  ...        0 min,  0.065 sec
     gradient                   ...        0 min,  0.068 sec
 * total energy  :  -107.9056769 Eh     change       -0.2816536E-02 Eh
   gradient norm :     0.0201928 Eh/α   predicted    -0.2117313E-02 ( -24.83%)
   displ. norm   :     0.4722943 α      lambda       -0.3287481E-02
   maximum displ.:     0.2874424 α      in ANC's #13, #10, #16, ...

........................................................................
.............................. CYCLE   45 ..............................
........................................................................

 iter      E             dE          RMSdq      gap      omega  full diag
   1   -100.7610599 -0.100761E+03  0.953E-02    1.41       0.0  T
   2   -100.7610704 -0.104370E-04  0.572E-02    1.40       1.0  T
   3   -100.7608869  0.183508E-03  0.411E-02    1.44       1.0  T
   4   -100.7610727 -0.185846E-03  0.146E-02    1.39       1.0  T
   5   -100.7610970 -0.242816E-04  0.370E-03    1.41       3.2  T
   6   -100.7610975 -0.522884E-06  0.175E-03    1.41       6.7  T
   7   -100.7610977 -0.188706E-06  0.594E-04    1.41      19.8  T
   8   -100.7610977 -0.193274E-07  0.240E-04    1.41      49.1  T
     SCC iter.                  ...        0 min,  0.065 sec
     gradient                   ...        0 min,  0.074 sec
 * total energy  :  -107.9077344 Eh     change       -0.2057509E-02 Eh
   gradient norm :     0.0708339 Eh/α   predicted    -0.2010402E-02 (  -2.29%)
   displ. norm   :     0.5684680 α      lambda       -0.3414480E-02
   maximum displ.:     0.3480869 α      in ANC's #13, #10, #16, ...

........................................................................
.............................. CYCLE   46 ..............................
........................................................................

 iter      E             dE          RMSdq      gap      omega  full diag
   1   -100.7593016 -0.100759E+03  0.109E-01    1.40       0.0  T
   2   -100.7593288 -0.272099E-04  0.657E-02    1.41       1.0  T
   3   -100.7591644  0.164373E-03  0.437E-02    1.43       1.0  T
   4   -100.7593294 -0.164943E-03  0.194E-02    1.38       1.0  T
   5   -100.7593729 -0.435574E-04  0.400E-03    1.41       2.9  T
   6   -100.7593735 -0.515916E-06  0.225E-03    1.41       5.2  T
   7   -100.7593737 -0.277691E-06  0.706E-04    1.41      16.7  T
   8   -100.7593738 -0.271294E-07  0.298E-04    1.41      39.5  T
     SCC iter.                  ...        0 min,  0.065 sec
     gradient                   ...        0 min,  0.069 sec
 * total energy  :  -107.9080144 Eh     change       -0.2799727E-03 Eh
   gradient norm :     0.1484098 Eh/α   predicted    -0.2258986E-02 ( 706.86%)
   displ. norm   :     0.1695238 α      lambda       -0.2762936E-02
   maximum displ.:     0.0997152 α      in ANC's #13, #10, #24, ...

........................................................................
.............................. CYCLE   47 ..............................
........................................................................

 iter      E             dE          RMSdq      gap      omega  full diag
   1   -100.7563245 -0.100756E+03  0.443E-02    1.42       0.0  T
   2   -100.7563294 -0.487875E-05  0.276E-02    1.40       1.0  T
   3   -100.7562970  0.323698E-04  0.199E-02    1.43       1.0  T
   4   -100.7563248 -0.277694E-04  0.876E-03    1.40       1.3  T
   5   -100.7563361 -0.113771E-04  0.126E-03    1.41       9.4  T
   6   -100.7563362 -0.798208E-07  0.646E-04    1.41      18.2  T
   7   -100.7563362 -0.520167E-08  0.239E-04    1.41      49.4  T
     SCC iter.                  ...        0 min,  0.057 sec
     gradient                   ...        0 min,  0.068 sec
 * total energy  :  -107.9096979 Eh     change       -0.1683544E-02 Eh
   gradient norm :     0.0169451 Eh/α   predicted    -0.1421173E-02 ( -15.58%)
   displ. norm   :     0.2846452 α      lambda       -0.7378422E-03
   maximum displ.:     0.1809373 α      in ANC's #13, #10, #7, ...

........................................................................
.............................. CYCLE   48 ..............................
........................................................................

 iter      E             dE          RMSdq      gap      omega  full diag
   1   -100.7562632 -0.100756E+03  0.437E-02    1.41       0.0  T
   2   -100.7562670 -0.378922E-05  0.262E-02    1.41       1.0  T
   3   -100.7562539  0.131166E-04  0.144E-02    1.42       1.0  T
   4   -100.7562660 -0.120552E-04  0.547E-03    1.40       2.2  T
   5   -100.7562700 -0.407233E-05  0.142E-03    1.41       8.3  T
   6   -100.7562701 -0.963460E-07  0.710E-04    1.41      16.6  T
   7   -100.7562701 -0.996691E-08  0.207E-04    1.41      57.0  T
     SCC iter.                  ...        0 min,  0.057 sec
     gradient                   ...        0 min,  0.068 sec
 * total energy  :  -107.9102575 Eh     change       -0.5595595E-03 Eh
   gradient norm :     0.0191904 Eh/α   predicted    -0.3988159E-03 ( -28.73%)
   displ. norm   :     0.3931642 α      lambda       -0.6485229E-03
   maximum displ.:     0.2343990 α      in ANC's #13, #10, #7, ...

........................................................................
.............................. CYCLE   49 ..............................
........................................................................

 iter      E             dE          RMSdq      gap      omega  full diag
   1   -100.7556029 -0.100756E+03  0.554E-02    1.41       0.0  T
   2   -100.7556074 -0.453577E-05  0.335E-02    1.41       1.0  T
   3   -100.7555836  0.238609E-04  0.175E-02    1.42       1.0  T
   4   -100.7556048 -0.212526E-04  0.688E-03    1.40       1.7  T
   5   -100.7556112 -0.642076E-05  0.160E-03    1.41       7.4  T
   6   -100.7556113 -0.110211E-06  0.813E-04    1.41      14.5  T
   7   -100.7556114 -0.111574E-07  0.228E-04    1.41      51.7  T
     SCC iter.                  ...        0 min,  0.057 sec
     gradient                   ...        0 min,  0.069 sec
 * total energy  :  -107.9107563 Eh     change       -0.4988184E-03 Eh
   gradient norm :     0.0201570 Eh/α   predicted    -0.3743958E-03 ( -24.94%)
   displ. norm   :     0.4001934 α      lambda       -0.5154996E-03
   maximum displ.:     0.2229580 α      in ANC's #13, #10, #7, ...

........................................................................
.............................. CYCLE   50 ..............................
........................................................................

 iter      E             dE          RMSdq      gap      omega  full diag
   1   -100.7566663 -0.100757E+03  0.498E-02    1.41       0.0  T
   2   -100.7566683 -0.199946E-05  0.296E-02    1.41       1.0  T
   3   -100.7566628  0.550459E-05  0.988E-03    1.41       1.2  T
   4   -100.7566695 -0.662312E-05  0.169E-03    1.41       7.0  T
   5   -100.7566695 -0.853546E-07  0.852E-04    1.41      13.8  T
   6   -100.7566695  0.288701E-08  0.389E-04    1.41      30.3  T
     SCC iter.                  ...        0 min,  0.049 sec
     gradient                   ...        0 min,  0.069 sec
 * total energy  :  -107.9111584 Eh     change       -0.4020810E-03 Eh
   gradient norm :     0.0108823 Eh/α   predicted    -0.2990356E-03 ( -25.63%)
   displ. norm   :     0.4467930 α      lambda       -0.4878198E-03
[...]
         :: -> anisotropic ES          0.006201565825 Eh    ::
         :: -> anisotropic XC          0.041862040196 Eh    ::
         :: -> dispersion             -0.072015008157 Eh    ::
         :: repulsion energy           1.683412906020 Eh    ::
         :: add. restraining          -8.837609970062 Eh    ::
         :: total charge               1.000000000000 e     ::
         :::::::::::::::::::::::::::::::::::::::::::::::::::::

           -------------------------------------------------
          |                Property Printout                |
           -------------------------------------------------

    * Orbital Energies and Occupations

         #    Occupation            Energy/Eh            Energy/eV
      -------------------------------------------------------------
         1        2.0000           -0.8253600             -22.4592
       ...           ...                  ...                  ...
        78        1.9983           -0.5316895             -14.4680
        79        1.9980           -0.5291628             -14.3993
        80        1.9968           -0.5217107             -14.1965
        81        1.9954           -0.5159954             -14.0409
        82        1.9953           -0.5157961             -14.0355
        83        1.9919           -0.5071825             -13.8011
        84        1.9910           -0.5054146             -13.7530
        85        1.9860           -0.4983876             -13.5618
        86        1.9811           -0.4936025             -13.4316
        87        1.9615           -0.4822027             -13.1214
        88        1.8891           -0.4648567             -12.6494
        89        1.8453           -0.4592157             -12.4959
        90        1.8069           -0.4553748             -12.3914 (HOMO)
        91        0.5361           -0.4040598             -10.9950 (LUMO)
        92        0.0328           -0.3551393              -9.6638
        93        0.0038           -0.3208630              -8.7311
        94        0.0027           -0.3153979              -8.5824
        95        0.0002           -0.2749304              -7.4812
        96        0.0000           -0.2457875              -6.6882
        97        0.0000           -0.1845085              -5.0207
        98                         -0.1381318              -3.7588
        99                         -0.0860404              -2.3413
       100                         -0.0749596              -2.0398
       101                         -0.0667160              -1.8154
       ...                                ...                  ...
       171                          1.5728390              42.7991
      -------------------------------------------------------------
                  HL-Gap            0.0513151 Eh            1.3964 eV
             Fermi-level           -0.4199662 Eh          -11.4279 eV

     #   Z          covCN         q      C6AA      α(0)
     1   7 N        1.771    -0.302    28.648     7.926
     2   6 C        3.216     0.128    24.565     8.062
     3   6 C        4.150     0.007    20.374     6.411
     4   6 C        3.328     0.001    25.694     8.048
     5   6 C        2.904    -0.071    29.777     8.947
     6   6 C        2.874     0.136    25.034     8.202
     7   8 O        1.706    -0.217    17.611     5.666
     8   6 C        3.645     0.025    20.488     6.506
     9   6 C        2.874     0.130    25.143     8.220
    10   8 O        1.706    -0.226    17.752     5.689
    11   6 C        3.646     0.028    20.431     6.496
    12   6 C        2.903    -0.067    29.679     8.933
    13   6 C        3.228    -0.035    28.040     8.601
    14   6 C        3.803    -0.065    21.754     6.640
    15   6 C        3.798    -0.070    21.848     6.655
    16   6 C        3.738    -0.009    20.811     6.510
    17   7 N        2.679    -0.236    26.175     7.598
    18   6 C        3.806    -0.057    21.597     6.616
    19   6 C        3.806    -0.056    21.578     6.613
    20   6 C        3.920     0.035    19.924     6.344
    21   6 C        2.909    -0.035    28.875     8.811
    22   6 C        2.903    -0.063    29.575     8.917
    23   6 C        2.863     0.143    24.889     8.178
    24   8 O        1.706    -0.191    17.194     5.598
    25   6 C        3.645     0.018    20.616     6.526
    26   6 C        2.853     0.135    25.042     8.202
    27   8 O        1.706    -0.229    17.800     5.696
    28   6 C        3.646     0.024    20.501     6.507
    29   6 C        2.907    -0.079    29.972     8.977
    30   6 C        3.689    -0.045    21.569     6.647
    31   6 C        3.851    -0.009    20.700     6.471
    32   6 C        3.755    -0.108    22.611     6.780
    33   6 C        3.756    -0.118    22.822     6.811
    34   1 H        0.926     0.057     2.235     2.338
    35   1 H        0.924     0.058     2.224     2.332
    36   1 H        0.925     0.083     1.943     2.180
    37   1 H        0.924     0.055     2.261     2.352
    38   1 H        0.924     0.055     2.265     2.353
    39   1 H        0.925     0.081     1.966     2.193
    40   1 H        0.924     0.048     2.342     2.393
    41   1 H        0.926     0.050     2.318     2.381
    42   1 H        0.864     0.202     1.094     1.638
    43   1 H        0.924     0.051     2.309     2.376
    44   1 H        0.924     0.061     2.186     2.312
    45   1 H        0.924     0.044     2.399     2.422
    46   1 H        0.924     0.048     2.345     2.395
    47   1 H        0.924     0.056     2.249     2.345
    48   1 H        0.924     0.045     2.386     2.416
    49   1 H        0.926     0.066     2.133     2.284
    50   1 H        0.926     0.067     2.117     2.275
    51   1 H        0.926     0.063     2.162     2.300
    52   1 H        0.926     0.064     2.151     2.293
    53   1 H        0.926     0.064     2.152     2.294
    54   1 H        0.926     0.068     2.103     2.268
    55   1 H        0.924     0.065     2.144     2.290
    56   1 H        0.924     0.065     2.145     2.290
    57   1 H        0.925     0.091     1.870     2.138
    58   1 H        0.925     0.085     1.929     2.172
    59   1 H        0.924     0.052     2.292     2.368
    60   1 H        0.924     0.053     2.285     2.364
    61   1 H        0.926     0.061     2.186     2.312
    62   1 H        0.924     0.054     2.277     2.360
    63   1 H        0.923     0.040     2.450     2.448
    64   1 H        0.925     0.048     2.342     2.393
    65   1 H        0.924     0.041     2.430     2.438
    66   1 H        0.925     0.041     2.442     2.444
    67   1 H        0.925     0.034     2.527     2.486
    68   1 H        0.925     0.051     2.308     2.376
    69   1 H        0.925     0.064     2.157     2.297
    70   1 H        0.925     0.043     2.408     2.427
    71   1 H        0.925     0.053     2.287     2.365
    72   1 H        0.860     0.153     1.378     1.839

 Mol. C6AA /au·bohr⁶  :      46594.604604
 Mol. C8AA /au·bohr⁸  :    1060704.212827
 Mol. α(0) /au        :        328.748945


Wiberg/Mayer (AO) data.
largest (>0.10) Wiberg bond orders for each atom

 ---------------------------------------------------------------------------
     #   Z sym  total        # sym  WBO       # sym  WBO       # sym  WBO
 ---------------------------------------------------------------------------
     1   7 N    2.973 --     2 C    1.850    72 H    0.935
     2   6 C    3.923 --     1 N    1.850    13 C    1.029     3 C    0.942
     3   6 C    3.956 --    14 C    0.973     4 C    0.968    31 C    0.949
                             2 C    0.942
     4   6 C    3.928 --     5 C    1.439    13 C    1.295     3 C    0.968
     5   6 C    3.963 --     4 C    1.439     6 C    1.351    34 H    0.960
     6   6 C    3.887 --     5 C    1.351     9 C    1.216     7 O    1.121
     7   8 O    2.264 --     6 C    1.121     8 C    0.974
     8   6 C    3.927 --    36 H    0.977     7 O    0.974    37 H    0.972
                            35 H    0.972
     9   6 C    3.889 --    12 C    1.388     6 C    1.216    10 O    1.102
    10   8 O    2.248 --     9 C    1.102    11 C    0.978
    11   6 C    3.931 --    10 O    0.978    39 H    0.977    40 H    0.973
                            38 H    0.973
    12   6 C    3.952 --     9 C    1.388    13 C    1.371    41 H    0.962
    13   6 C    3.901 --    12 C    1.371     4 C    1.295     2 C    1.029
    14   6 C    3.979 --    15 C    1.008     3 C    0.973    43 H    0.966
                            44 H    0.966
    15   6 C    3.964 --    14 C    1.008    46 H    0.975    16 C    0.973
                            45 H    0.969
    16   6 C    3.968 --    17 N    1.023    15 C    0.973    48 H    0.970
                            47 H    0.968
    17   7 N    3.050 --    30 C    1.029    16 C    1.023    42 H    0.946
    18   6 C    3.864 --    19 C    1.026    49 H    0.975    50 H    0.975
                            20 C    0.831
    19   6 C    3.858 --    18 C    1.026    51 H    0.975    52 H    0.975
                            20 C    0.822
    20   6 C    3.938 --    21 C    1.119    29 C    1.101    18 C    0.831
                            19 C    0.822
    21   6 C    3.787 --    22 C    1.575    20 C    1.119    53 H    0.966
    22   6 C    3.979 --    21 C    1.575    23 C    1.286    54 H    0.960
    23   6 C    3.738 --    22 C    1.286    24 O    1.165    26 C    1.151
    24   8 O    2.282 --    23 C    1.165    25 C    0.967
    25   6 C    3.920 --    57 H    0.976    56 H    0.971    55 H    0.971
                            24 O    0.967
    26   6 C    3.934 --    29 C    1.532    23 C    1.151    27 O    1.101
    27   8 O    2.266 --    26 C    1.101    28 C    0.975    29 C    0.100
    28   6 C    3.930 --    58 H    0.976    27 O    0.975    59 H    0.974
                            60 H    0.974
    29   6 C    3.827 --    26 C    1.532    20 C    1.101    61 H    0.961
                            27 O    0.100
    30   6 C    3.972 --    17 N    1.029    64 H    0.981    62 H    0.978
                            63 H    0.962
    31   6 C    3.973 --    32 C    1.007    33 C    1.006    65 H    0.958
                             3 C    0.949
    32   6 C    3.986 --    31 C    1.007    66 H    0.983    68 H    0.983
                            67 H    0.981
    33   6 C    3.978 --    31 C    1.006    70 H    0.982    71 H    0.980
                            69 H    0.976
    34   1 H    0.994 --     5 C    0.960
    35   1 H    0.992 --     8 C    0.972
    36   1 H    0.992 --     8 C    0.977
    37   1 H    0.992 --     8 C    0.972
    38   1 H    0.992 --    11 C    0.973
    39   1 H    0.993 --    11 C    0.977
    40   1 H    0.993 --    11 C    0.973
    41   1 H    0.995 --    12 C    0.962
    42   1 H    0.959 --    17 N    0.946
    43   1 H    0.992 --    14 C    0.966
    44   1 H    0.993 --    14 C    0.966
    45   1 H    0.997 --    15 C    0.969
    46   1 H    0.995 --    15 C    0.975
    47   1 H    0.993 --    16 C    0.968
    48   1 H    0.990 --    16 C    0.970
    49   1 H    0.993 --    18 C    0.975
    50   1 H    0.993 --    18 C    0.975
    51   1 H    0.994 --    19 C    0.975
    52   1 H    0.994 --    19 C    0.975
    53   1 H    0.996 --    21 C    0.966
    54   1 H    0.994 --    22 C    0.960
    55   1 H    0.990 --    25 C    0.971
    56   1 H    0.990 --    25 C    0.971
    57   1 H    0.991 --    25 C    0.976
    58   1 H    0.992 --    28 C    0.976
    59   1 H    0.995 --    28 C    0.974
    60   1 H    0.995 --    28 C    0.974
    61   1 H    0.995 --    29 C    0.961
    62   1 H    0.990 --    30 C    0.978
    63   1 H    0.976 --    30 C    0.962
    64   1 H    0.995 --    30 C    0.981
    65   1 H    0.990 --    31 C    0.958
    66   1 H    0.996 --    32 C    0.983
    67   1 H    0.997 --    32 C    0.981
    68   1 H    0.995 --    32 C    0.983
    69   1 H    0.991 --    33 C    0.976
    70   1 H    0.995 --    33 C    0.982
    71   1 H    0.993 --    33 C    0.980
    72   1 H    0.968 --     1 N    0.935
 ---------------------------------------------------------------------------

Topologies differ in total number of bonds
Writing topology from bond orders to xtbtopo.mol

molecular dipole:
                 x           y           z       tot (Debye)
 q only:        2.133      -0.163      -0.580
   full:        1.747      -0.443      -0.564       4.801
molecular quadrupole (traceless):
                xx          xy          yy          xz          yz          zz
 q only:       90.472       8.330     -35.654       7.152      -9.668     -54.818
  q+dip:       89.343      10.081     -37.964       6.536     -13.106     -51.379
   full:       88.990       9.352     -39.071       4.298     -12.216     -49.920

           -------------------------------------------------
          |                Geometry Summary                 |
           -------------------------------------------------

      molecular mass/u    :      455.6105846
   center of mass at/Å    :       -0.0562541       0.0069692       0.0494620
  moments of inertia/u·Å² :        0.2356324E+04   0.1217043E+05   0.1341360E+05
rotational constants/cm⁻¹ :        0.7154209E-02   0.1385131E-02   0.1256757E-02

 * 67 selected distances

     #   Z          #   Z                                           value/Å
     1   7 N        2   6 C                                       1.2534754
     4   6 C        5   6 C                                       1.3725045
     5   6 C        6   6 C                                       1.3995481
     6   6 C        7   8 O                                       1.3436141
     7   8 O        8   6 C                                       1.4095702
     6   6 C        9   6 C                                       1.4326385
     9   6 C       10   8 O                                       1.3496248
    10   8 O       11   6 C                                       1.4070730
     9   6 C       12   6 C                                       1.3921974
     4   6 C       13   6 C                                       1.4003767
    12   6 C       13   6 C                                       1.3846549
     3   6 C       14   6 C                                       1.5302536
    14   6 C       15   6 C                                       1.5300254
    16   6 C       17   7 N                                       1.4429560
    18   6 C       19   6 C                                       1.4741728
    18   6 C       20   6 C                                       1.5394238
    20   6 C       21   6 C                                       1.4486674
    21   6 C       22   6 C                                       1.3625062
    22   6 C       23   6 C                                       1.4045923
    23   6 C       24   8 O                                       1.3306853
    24   8 O       25   6 C                                       1.4118225
    26   6 C       27   8 O                                       1.3473774
    27   8 O       28   6 C                                       1.4092735
    20   6 C       29   6 C                                       1.4557546
    26   6 C       29   6 C                                       1.3636855
    17   7 N       30   6 C                                       1.4435809
     3   6 C       31   6 C                                       1.5432094 (max)
    31   6 C       32   6 C                                       1.5281744
    31   6 C       33   6 C                                       1.5270414
     5   6 C       34   1 H                                       1.0776893
     8   6 C       35   1 H                                       1.0939755
     8   6 C       36   1 H                                       1.0882046
     8   6 C       37   1 H                                       1.0945364
    11   6 C       38   1 H                                       1.0948413
    11   6 C       39   1 H                                       1.0882732
    11   6 C       40   1 H                                       1.0951324
    12   6 C       41   1 H                                       1.0779394
    17   7 N       42   1 H                                       0.6513544 (min)
    14   6 C       43   1 H                                       1.0930471
    14   6 C       44   1 H                                       1.0902674
    15   6 C       45   1 H                                       1.0911030
    15   6 C       46   1 H                                       1.0906204
    16   6 C       47   1 H                                       1.0929159
    16   6 C       48   1 H                                       1.0941369
    18   6 C       49   1 H                                       1.0781398
    18   6 C       50   1 H                                       1.0782716
    19   6 C       51   1 H                                       1.0785061
    19   6 C       52   1 H                                       1.0785362
    21   6 C       53   1 H                                       1.0785226
    22   6 C       54   1 H                                       1.0782405
    25   6 C       55   1 H                                       1.0934360
    25   6 C       56   1 H                                       1.0934652
    25   6 C       57   1 H                                       1.0882497
    28   6 C       58   1 H                                       1.0879851
    28   6 C       59   1 H                                       1.0942789
    28   6 C       60   1 H                                       1.0941204
    29   6 C       61   1 H                                       1.0776739
    30   6 C       62   1 H                                       1.0909864
    30   6 C       63   1 H                                       1.0980361
    30   6 C       64   1 H                                       1.0893959
    31   6 C       65   1 H                                       1.0965316
    32   6 C       66   1 H                                       1.0881618
    32   6 C       67   1 H                                       1.0879406
    32   6 C       68   1 H                                       1.0875007
    33   6 C       69   1 H                                       1.0872178
    33   6 C       70   1 H                                       1.0861870
    33   6 C       71   1 H                                       1.0862056

 * 5 distinct bonds (by element types)

   Z      Z             #   av. dist./Å        max./Å        min./Å
   1 H    6 C          37     1.0881155     1.0980361     1.0776739
   6 C    6 C          18     1.4494126     1.5432094     1.3625062
   1 H    7 N           1     0.6513544     0.6513544     0.6513544
   6 C    7 N           3     1.3800041     1.4435809     1.2534754
   6 C    8 O           8     1.3761301     1.4118225     1.3306853


optimized geometry written to: xtbopt.xyz


           -------------------------------------------------
          | TOTAL ENERGY             -107.913782188491 Eh   |
          | GRADIENT NORM               0.003936738406 Eh/α |
          | HOMO-LUMO GAP               1.396354443087 eV   |
           -------------------------------------------------

------------------------------------------------------------------------
 * finished run on 2024/04/06 at 11:16:47.084     
------------------------------------------------------------------------
 total:
 * wall-time:     0 d,  0 h,  0 min, 10.731 sec
 *  cpu-time:     0 d,  0 h,  0 min, 10.709 sec
 * ratio c/w:     0.998 speedup
 SCF:
 * wall-time:     0 d,  0 h,  0 min,  0.192 sec
 *  cpu-time:     0 d,  0 h,  0 min,  0.192 sec
 * ratio c/w:     0.997 speedup
 ANC optimizer:
 * wall-time:     0 d,  0 h,  0 min, 10.496 sec
 *  cpu-time:     0 d,  0 h,  0 min, 10.491 sec
 * ratio c/w:     1.000 speedup

