72
 energy: 0.000000000000 xtb: 6.6.1 (8d0f1dd)
N           -1.47310921155849        2.74401293103706        2.22063921685122
C           -1.55658879776851        2.16490285539332        1.13274273951491
C           -2.74549199786261        2.05621232186130        0.23826248438941
C           -3.31377553111525        0.64333411542669        0.32332512650568
C           -4.30230156009016        0.24487110156316       -0.58026161703006
C           -4.85238763031941       -1.02286490450319       -0.53363588718165
O           -5.81419972815119       -1.48606034185536       -1.36157882725342
C           -6.39655633239252       -0.60827000183299       -2.29568474302620
C           -4.39972501531283       -1.94646102182611        0.44396929121966
O           -4.98748311285188       -3.16145997157803        0.41085992006324
C           -4.66362127904578       -4.10093827755394        1.40909127743729
C           -3.42072513477031       -1.54561384810496        1.33436546260297
C           -2.88302799614223       -0.26315800396994        1.27400150770375
C           -2.19303798107274        2.30467000305896       -1.18742977106749
C           -1.26651538239283        1.17243369445008       -1.65249429687285
C            0.01082524939134        1.09745454476277       -0.89354803499847
N            0.61779393476578       -0.02034948052406       -0.57705522512502
C            2.00145210352228       -0.02376006389122       -0.15611399603240
C            2.92554934655222       -0.53865282675074       -1.27700088804721
C            4.35756843073516       -0.43050757231754       -0.83075544324989
C            5.07346135469827        0.73206409086248       -1.03980965825901
C            6.38627986649936        0.84224441421807       -0.60344822702769
C            7.00047264773336       -0.20824756335880        0.05722314418200
O            8.26703657141718       -0.21011313101264        0.52410943644933
C            9.06912227848686        0.92943601033931        0.31863058007678
C            6.27039964270142       -1.40439753960823        0.28033466008274
O            6.94829939911432       -2.38012925705718        0.92751999079483
C            6.31537317745639       -3.61583200086742        1.15217711710877
C            4.96302794628964       -1.49347471867959       -0.16064430359178
C           -0.05511211367372       -1.29906247805359       -0.62085686319744
C           -3.86758037025447        3.07992600430699        0.58498060215443
C           -4.49286159663096        2.77383493050346        1.94313289484366
C           -3.39165179876499        4.52917666589254        0.54797523472093
H           -4.66030026466202        0.94509067363451       -1.31640568823548
H           -6.85037928558380        0.25803162192116       -1.80468845313260
H           -7.17287442604349       -1.18600110843259       -2.79318157561361
H           -5.66836817451085       -0.26952966318766       -3.04040255244073
H           -4.88416720672258       -3.71589460520039        2.40913542187496
H           -5.29223570620378       -4.96637458756866        1.20969236903657
H           -3.61139813139015       -4.39919835331056        1.35529357841967
H           -3.07077796610445       -2.21868765711333        2.10002662693138
H           -2.14562754426994        0.02067850696302        2.01001344383370
H           -3.02188875377605        2.38238012313952       -1.88813545054866
H           -1.65198530896729        3.25146700677685       -1.20556284570283
H           -1.81103374245520        0.23006524641044       -1.62116301628650
H           -0.99335688527853        1.37490212198123       -2.69443256973690
H           -0.67628064361333        1.65183887049447        0.61785727145403
H            0.63525841192517        1.98466369793744       -0.92314021190751
H            2.11132552493482       -0.65949692842762        0.72532613231274
H            2.30680473056284        0.98978251704176        0.11078972794250
H            2.76694198818247        0.06750735147374       -2.17075252200790
H            2.67954581369920       -1.57455627803457       -1.51167743520200
H            4.62169998552446        1.56295612048703       -1.56123579000624
H            6.92357674630170        1.75715815945204       -0.79119596719031
H            8.65159112996149        1.81001823324363        0.81701555159939
H            9.20136171144928        1.14042857828877       -0.74698991949293
H           10.03428838009630        0.69003240176163        0.76064937965836
H            7.05567174969094       -4.23621171795340        1.65347565939075
H            5.43848001056755       -3.50813558175093        1.79970565785717
H            6.02060041905269       -4.09420497120334        0.21253282636366
H            4.40102758497114       -2.40127266373392       -0.00490198249042
H           -0.22071299714579       -1.61775583601871       -1.65116008982042
H           -1.01972258008625       -1.24102717432227       -0.10935206830928
H            0.55899954147532       -2.04486085926761       -0.12333730421426
H           -4.63991875734388        2.95501092798550       -0.18098088071825
H           -3.76095216473977        2.90314704960906        2.73380821053058
H           -4.87457614030224        1.75695641518947        1.97884603101694
H           -5.31925552549014        3.45579210326349        2.12325564252114
H           -2.60025590131176        4.69225046143352        1.27368918226171
H           -3.03987406413880        4.81897652321898       -0.43870975059559
H           -4.22191740670577        5.18069648090034        0.80616693961239
H           -0.59832433787845        2.77744694953323        2.72958984441332
72
 energy: -6.048433279589 xtb: 6.6.1 (8d0f1dd)
N           -1.51350464962057        2.81292191910543        2.23287236342647
C           -1.56945905411070        2.14293567902630        1.17015799075390
C           -2.75835468187896        2.04660263930427        0.25404020930355
C           -3.32643850927009        0.63211907402544        0.33427130565079
C           -4.32271793692873        0.23154750149131       -0.55687897643695
C           -4.86547675271184       -1.03817428953342       -0.51441740108231
O           -5.83698873124555       -1.50561508351794       -1.34896965038588
C           -6.41738607077266       -0.62047437347584       -2.27053037141914
C           -4.41082324254497       -1.96347845712924        0.45081996506413
O           -4.99915333298095       -3.19100429158154        0.40881543737622
C           -4.66129002914574       -4.13131997678755        1.39569005006104
C           -3.43675877220363       -1.56348377525190        1.34431326536545
C           -2.90580973329398       -0.27853470631266        1.28816028077887
C           -2.15117480042508        2.35778660083636       -1.16003277263110
C           -1.23920728944031        1.22724141362532       -1.68046020304853
C            0.02910877458638        1.16025899260626       -0.90928092791925
N            0.64587667913163       -0.02476317425250       -0.55582369046365
C            2.01497383893569       -0.03314061285704       -0.15684457612794
C            2.94443954370573       -0.53802298902274       -1.28086050059633
C            4.36856875140990       -0.43450643617242       -0.84192272178398
C            5.08828002491410        0.72865538195928       -1.04201749579166
C            6.39775093872091        0.83758627272382       -0.59723014431199
C            7.00578829192876       -0.21620592162098        0.06158916593851
O            8.28499349285291       -0.22289927434786        0.53244706935594
C            9.08176179337210        0.91315385309544        0.32322180148132
C            6.27569502436055       -1.40575794623248        0.28176343543796
O            6.95401613603374       -2.39130176888858        0.93442650614048
C            6.30934311985847       -3.62005313838530        1.15281969264732
C            4.97132650838365       -1.49481220324281       -0.16530371975584
C           -0.05554613750331       -1.26933446376395       -0.63607046011646
C           -3.89373842073603        3.05513816914060        0.57754385528524
C           -4.49418803792424        2.80349744706171        1.95827694900875
C           -3.42237060972460        4.50040714950319        0.49184124063642
H           -4.68148138286116        0.93182907075331       -1.29143406315889
H           -6.87197173529722        0.24188939250283       -1.77124900313279
H           -7.19465016359278       -1.19399907843449       -2.77445496951803
H           -5.68843125957859       -0.26964594776882       -3.00919487893402
H           -4.87625739595347       -3.75720490413923        2.40206214254627
H           -5.28683652910382       -4.99982213576810        1.19568468914603
H           -3.60729785832679       -4.42495975226086        1.33507346015911
H           -3.07212294209520       -2.24720367965432        2.09544505685974
H           -2.15966758820241       -0.00484614351565        2.01711590370307
H           -2.96591998157068        2.48536169780736       -1.88173940947151
H           -1.56977769744164        3.28477177963130       -1.13191194041312
H           -1.77456642154616        0.28978620065855       -1.62241641202850
H           -1.02500505071713        1.41103582924051       -2.74425348413017
H           -0.70501371618074        1.62215734834040        0.69722542779199
H            0.67822021835368        2.01357030445747       -0.97080582931003
H            2.13276881210484       -0.67006035433667        0.72774799105514
H            2.31779398968087        0.98068322850657        0.11682534331342
H            2.77313097636006        0.07789181205734       -2.16507359985186
H            2.68764957680687       -1.57005399136421       -1.51968841329884
H            4.63558100417253        1.56250546224875       -1.55671962457707
H            6.93649343683695        1.75389769277474       -0.77890258873985
H            8.66491196559207        1.79474909345594        0.82128378872483
H            9.21056109524010        1.12475058313459       -0.74366920652835
H           10.05063725983919        0.67588602812704        0.76176514795845
H            7.04486917763326       -4.24757821918225        1.65432847560152
H            5.43059101948529       -3.50841843098415        1.79720200972661
H            6.01039121803227       -4.09422051784439        0.21151999169058
H            4.40269783248358       -2.39794189886871       -0.00723270077398
H           -0.22111151835862       -1.58084751340739       -1.67446170047227
H           -1.02478051744252       -1.19451177651367       -0.13495020298505
H            0.52882301292940       -2.03407409663537       -0.13085365056502
H           -4.68530146530502        2.91462110551570       -0.16886617385789
H           -3.73346553991371        2.95276431346419        2.71667401492083
H           -4.87423850562143        1.78889818719024        2.03977142117979
H           -5.31593378377504        3.49433586663443        2.13309491806610
H           -2.61259119396943        4.65820399370202        1.19623928157053
H           -3.07978130103541        4.74639153223270       -0.50827049088169
H           -4.24638648272242        5.16436539588841        0.74138831546739
H           -0.61948410408783        2.80599028464477        2.71588086797833
72
 energy: -4.495255600856 xtb: 6.6.1 (8d0f1dd)
N           -1.53280703771214        2.85722396940760        2.22454266653133
C           -1.58999271691393        2.13382179502329        1.19514957406498
C           -2.76963507232914        2.02706735223133        0.26467218081982
C           -3.33292465730159        0.60757636250760        0.33954143153563
C           -4.34079649339165        0.21282695982205       -0.53953946952526
C           -4.88251185647873       -1.05642318643428       -0.49895513279661
O           -5.85638644037276       -1.52128694018132       -1.33260521498175
C           -6.43943398274209       -0.63114573870721       -2.24657032863694
C           -4.42292643132290       -1.98669549502462        0.45811945496317
O           -5.00688245422685       -3.21576398510354        0.40770455410585
C           -4.65877048468737       -4.16278759024835        1.38395166395221
C           -3.44889813449138       -1.58907370337464        1.35205823376551
C           -2.91923342715251       -0.30382363163547        1.29716935625665
C           -2.10992819221009        2.41326218679169       -1.12815268009390
C           -1.21169344253043        1.28310772683564       -1.68677742461135
C            0.05956899508878        1.19929644331463       -0.92422570356103
N            0.66026009714204        0.00564741144326       -0.55456578305789
C            2.03067241105217       -0.02566046749528       -0.15747122615385
C            2.95563426316053       -0.53322757432861       -1.28410188735482
C            4.37954366295839       -0.43604370744864       -0.84668843673399
C            5.10198034565132        0.72601989127418       -1.04186958144131
C            6.41028626568235        0.83202364727590       -0.59278085182181
C            7.01568664662337       -0.22459716673645        0.06463338674911
O            8.29528228402303       -0.23539506068112        0.53634020229973
C            9.09462529131981        0.89815946742198        0.32682617529843
C            6.28209351810300       -1.41212306178292        0.28238960065200
O            6.95522316741645       -2.40080268074744        0.93699001831511
C            6.30212048698137       -3.62615646828992        1.15247452150016
C            4.97819326164296       -1.49700106787379       -0.16836574004027
C           -0.05903216203643       -1.23008749609862       -0.65118119029127
C           -3.91547259676591        3.03151694550341        0.57304210988354
C           -4.49089358703795        2.83248733819161        1.97342168545881
C           -3.45240436588214        4.47396157688952        0.43023549867144
H           -4.70593933158916        0.91606371777169       -1.26710486079166
H           -6.89622454394709        0.22580728889848       -1.74008681139297
H           -7.21545741864752       -1.20299579114063       -2.75480805701535
H           -5.71021531742109       -0.27112280828685       -2.98035951685763
H           -4.86982456472185       -3.79901321196665        2.39497923443624
H           -5.28153651349975       -5.03216390867133        1.18017431865921
H           -3.60375982178602       -4.45139159556458        1.31499505685495
H           -3.07776598787414       -2.27798372793597        2.09569695109134
H           -2.17430576352698       -0.03458612794745        2.02870461479456
H           -2.90522322852816        2.58925252108341       -1.87138658507838
H           -1.50133799322710        3.32058736314448       -1.04141472285267
H           -1.73989824481940        0.35045128784820       -1.61878242467744
H           -1.03605732882914        1.46136633556177       -2.76222619368102
H           -0.72703728813054        1.58808367364964        0.75733049351476
H            0.71967581924718        2.03870928697888       -0.99899740099379
H            2.14837991856919       -0.67030164617661        0.72324199334849
H            2.34000652808615        0.98382260184663        0.12403165948053
H            2.78470300104960        0.08708437966934       -2.16512991111594
H            2.69458240087679       -1.56283504557185       -1.52583106510536
H            4.65103574110915        1.56235565021693       -1.55321213275981
H            6.94991969987451        1.74895590595220       -0.76918032410661
H            8.67905063674133        1.77934165936462        0.82629074982637
H            9.22083223659915        1.11005766403580       -0.74028033944560
H           10.06515836826474        0.65965171361736        0.76256658990976
H            7.03346452127674       -4.25871322533459        1.65397079096294
H            5.42293268121083       -3.50945705567211        1.79530276114357
H            6.00019655644840       -4.09644737680767        0.20999754221740
H            4.40523791666019       -2.39710831168157       -0.01078894432198
H           -0.21826534718373       -1.53685644010500       -1.69278739912254
H           -1.03309458087278       -1.14540570207264       -0.16097285210890
H            0.50247123476902       -2.00777442242362       -0.14040119761536
H           -4.71997517127997        2.86418865777478       -0.15404487080658
H           -3.71275207984913        3.00744509158420        2.70748890791141
H           -4.87208779250478        1.82270046573313        2.10303240971962
H           -5.30700112947661        3.53257169285204        2.13736913235125
H           -2.62758809883562        4.64321637418879        1.11246826901461
H           -3.12725934212678        4.68277216363082       -0.58325659370102
H           -4.27039846449664        5.14727934933315        0.67325724658818
H           -0.63601955609789        2.84477029351426        2.69926234985308
72
 energy: -1.284602343544 xtb: 6.6.1 (8d0f1dd)
N           -1.54862400305287        2.90410522089812        2.21132454296601
C           -1.60981263617383        2.12947481814186        1.21777489685930
C           -2.78142023440432        2.01005601274718        0.27571855282705
C           -3.33811888243660        0.58332152480678        0.34593653687650
C           -4.35677439556670        0.19317501059085       -0.52242082215641
C           -4.89843998971609       -1.07498128079450       -0.48356550804542
O           -5.87578412592635       -1.53593629649497       -1.31532369015941
C           -6.46172851124532       -0.64092627997367       -2.22189906324428
C           -4.43369963434773       -2.01040277724914        0.46514448131042
O           -5.01430550277871       -3.24041964230678        0.40713776258262
C           -4.65597485599040       -4.19472647945854        1.37185203199585
C           -3.45861101972376       -1.61570612198951        1.35856725468114
C           -2.92925111663651       -0.33043526633513        1.30492984006816
C           -2.06501859653051        2.46797469591279       -1.09654078333487
C           -1.18173082350474        1.34137582016443       -1.69050096144320
C            0.09286087909897        1.23968243849716       -0.94023826112712
N            0.67415712669997        0.03762599574296       -0.55634358234077
C            2.04481812712767       -0.01529167066755       -0.15882622366373
C            2.96623573941280       -0.52660683115135       -1.28705281518972
C            4.38991752882565       -0.43671287666670       -0.85000743809061
C            5.11502601250676        0.72421458615203       -1.04053713367767
C            6.42232187648439        0.82671395306329       -0.58802817922589
C            7.02470010939193       -0.23297340833795        0.06789233380752
O            8.30464396432310       -0.24806820503351        0.54024228808842
C            9.10671496566561        0.88305184891149        0.33061908263182
C            6.28752366956468       -1.41853652317336        0.28336127357786
O            6.95559870080111       -2.41051872676606        0.93929858613553
C            6.29491669150970       -3.63258676574430        1.15220210731593
C            4.98416013367034       -1.49909210839768       -0.17073611928564
C           -0.06231070961015       -1.18958151233479       -0.66671420441867
C           -3.93622448594355        3.00966971870827        0.56933754117527
C           -4.48734226916147        2.86235628812710        1.98725999025000
C           -3.48287100905362        4.44884389675113        0.36873375535430
H           -4.72933369993909        0.89855817770067       -1.24359003848038
H           -6.92071274890037        0.21065618439581       -1.70842594066305
H           -7.23642504923942       -1.21148706119401       -2.73392259336559
H           -5.73302058775286       -0.27228806282805       -2.95172110563495
H           -4.86274426230657       -3.84195526553949        2.38776630101594
H           -5.27620943655951       -5.06456817979246        1.16341505699402
H           -3.60017383023597       -4.47834643981530        1.29391741890997
H           -3.08365875512621       -2.30862229379298        2.09704407694230
H           -2.18647599741650       -0.06561347280814        2.04002729969373
H           -2.84326678561671        2.68290671809785       -1.85492448839223
H           -1.43732585365107        3.35641962152164       -0.95127009651123
H           -1.70629407300165        0.41457597056460       -1.61827976704049
H           -1.03737604868893        1.52278001159794       -2.77251905262156
H           -0.75076505279843        1.55347713939245        0.81837816360701
H            0.76568756186950        2.06360418014977       -1.02784296419038
H            2.16154167685765       -0.66772996801517        0.71707797338132
H            2.36096994239696        0.98927731720436        0.13043948915328
H            2.79636464530976        0.09655670046523       -2.16589267003364
H            2.69992448867285       -1.55390535492364       -1.53028049370835
H            4.66614247544905        1.56281376100913       -1.54947455048591
H            6.96317402297053        1.74386573936046       -0.75974349448518
H            8.69311884865401        1.76421676837400        0.83154614492408
H            9.23089225277325        1.09542744872754       -0.73662447919238
H           10.07823554774429        0.64223238114100        0.76398756190196
H            7.02251971433380       -4.26955632246652        1.65363928379230
H            5.41540800633378       -3.51129208888895        1.79379585267606
H            5.99047477958204       -4.09955679101573        0.20870507483663
H            4.40722837489326       -2.39662400863873       -0.01442832060887
H           -0.21521569550282       -1.49285748931381       -1.71086751929272
H           -1.04106921095692       -1.09553840477243       -0.18725189885354
H            0.47784908801157       -1.97862495491981       -0.15089144430981
H           -4.75198773555171        2.81338668645817       -0.13794941882108
H           -3.69513904706252        3.06296323290581        2.69892994418200
H           -4.86791028477134        1.85851763777458        2.16377747692828
H           -5.29897135495068        3.57030135662406        2.13932147369517
H           -2.64290218811350        4.63468886041260        1.02678999571913
H           -3.17770940066309        4.62230252639025       -0.65729064540459
H           -4.29547378457831        5.13019080298781        0.60567502099226
H           -0.64943943882287        2.88631229545523        2.68138893036773
72
 energy: 3.821678757017 xtb: 6.6.1 (8d0f1dd)
N           -1.56606753060559        2.94678259404103        2.19851320639223
C           -1.63019284404283        2.12587618102136        1.24027698996906
C           -2.79000485317092        1.99378514963549        0.28769838449239
C           -3.34249044919816        0.55994436724466        0.35335560646001
C           -4.37152218875641        0.17350346545271       -0.50509840885064
C           -4.91362721591721       -1.09341820214485       -0.46809193257200
O           -5.89511953772582       -1.54988610351564       -1.29727899018944
C           -6.48466616277739       -0.65051361794326       -2.19675990311208
C           -4.44341100791259       -2.03404107243391        0.47209019890695
O           -5.02131812923831       -3.26459834844225        0.40707706359555
C           -4.65274342180078       -4.22653242966757        1.35954983011193
C           -3.46661393056294       -1.64240047249859        1.36443093185581
C           -2.93690784111832       -0.35736343727132        1.31197473601685
C           -2.01516293947972        2.52597132084284       -1.07416956800558
C           -1.14986414475187        1.40075826865649       -1.69392449525579
C            0.12651811293165        1.28084601601791       -0.95513989967102
N            0.68700290750388        0.07079363836696       -0.55930464628098
C            2.05737175771848       -0.00215983987926       -0.16111751882575
C            2.97626984897380       -0.51899143340479       -1.28942730923080
C            4.39993434384244       -0.43686317709611       -0.85237023473200
C            5.12783071001153        0.72268667243870       -1.03880991099447
C            6.43408569241584        0.82139004475340       -0.58302551096895
C            7.03308823080188       -0.24140997638281        0.07152948411375
O            8.31335630666185       -0.26087619255862        0.54443537379377
C            9.11832998855451        0.86782413708706        0.33471845645311
C            6.29218116662652       -1.42509034523367        0.28474288181495
O            6.95545269324350       -2.42033263795158        0.94152397134680
C            6.28804090833386       -3.63931399838168        1.15205943716180
C            4.98941711071463       -1.50121230405162       -0.17257605490627
C           -0.06516604561682       -1.14833125718380       -0.68175934133560
C           -3.95439054933104        2.98844814574753        0.56663593835543
C           -4.48116452629973        2.89256670524121        2.00026441578219
C           -3.51479816413248        4.42417401457870        0.30836344014152
H           -4.75255177311279        0.88034542031591       -1.22017779621040
H           -6.94611052148854        0.19568163333357       -1.67665728196110
H           -7.25780115966164       -1.22047088924599       -2.71198771623273
H           -5.75735775337063       -0.27347761150672       -2.92350995512050
H           -4.85496973120496       -3.88533014071728        2.38047744170047
H           -5.27078048288428       -5.09633179955734        1.14547007449587
H           -3.59633778146536       -4.50515291378649        1.27213975226715
H           -3.08907019472295       -2.33844700566249        2.09908245074244
H           -2.19633555593526       -0.09687715691894        2.05056854237599
H           -2.77659044398759        2.77371564024756       -1.84276769723928
H           -1.37176588761567        3.39797026565464       -0.87543191629302
H           -1.67420717625781        0.48104671842681       -1.61814409404853
H           -1.02984608402244        1.58414572555620       -2.77980907047770
H           -0.77587504848133        1.51947610067152        0.88022968335019
H            0.81218115750716        2.08903940441880       -1.05502399430304
H            2.16950309533691       -0.65863051363025        0.71074116941346
H            2.38129536511521        0.99684561218800        0.13574572747492
H            2.80799012529288        0.10586373489151       -2.16693637583257
H            2.70406623941738       -1.54407715477267       -1.53324110388810
H            4.68112259498801        1.56336500756542       -1.54579925066952
H            6.97645225581423        1.73842367713353       -0.75062447849133
H            8.70716995892400        1.74927521326245        0.83707448376667
H            9.24079489622038        1.08074212165575       -0.73262834378389
H           10.09035763204121        0.62403322166059        0.76597631648861
H            7.01228345557405       -4.28020996516297        1.65340424747990
H            5.40826084181621       -3.51401147557637        1.79262157854503
H            5.98145363460380       -4.10337749253862        0.20767129496246
H            4.40694170763520       -2.39533933305303       -0.01768369398550
H           -0.21213857697698       -1.44818706659252       -1.72815541591643
H           -1.04806283864810       -1.04564255765088       -0.21218316975127
H            0.45562200439834       -1.94746891283060       -0.16199782106665
H           -4.78164235889181        2.76296111395654       -0.11847831690060
H           -3.67681864855770        3.11819850876476        2.69035817332946
H           -4.85926870359592        1.89616538043130        2.22276857742857
H           -5.28942460643740        3.60702134345287        2.14054307961809
H           -2.65956293575389        4.63025934919482        0.93989607835499
H           -3.23280595587667        4.56406102498348       -0.72928439487266
H           -4.32328351034015        5.11164578446437        0.54002987348801
H           -0.66170859090569        2.92919980454982        2.66111518944077
72
 energy: 11.645487634341 xtb: 6.6.1 (8d0f1dd)
N           -1.58025382252566        2.98888966204865        2.17844068939935
C           -1.64998313515857        2.12181057361460        1.25974336337977
C           -2.79870041627029        1.97928002886557        0.30364626988745
C           -3.34769510591413        0.53771968665404        0.36262233152758
C           -4.38643796303569        0.15442146734277       -0.48713318230710
C           -4.92842930150417       -1.11176739559219       -0.45324099080510
O           -5.91424915351559       -1.56393509201980       -1.27961890765354
C           -6.50825937356865       -0.66113296371290       -2.17246111865301
C           -4.45221053914795       -2.05811440971096        0.47769644899141
O           -5.02785144925456       -3.28898311064159        0.40657764607923
C           -4.64961388812029       -4.25757034042538        1.34770513007847
C           -3.47314375532483       -1.66985730098658        1.36845654799480
C           -2.94322670279071       -0.38494396913858        1.31824013963833
C           -1.95763358793958        2.59068746219519       -1.06457278145614
C           -1.11548368602757        1.46081330976153       -1.69793957068129
C            0.16055281764924        1.32320665705969       -0.96800765695315
N            0.69929595723580        0.10472960192548       -0.56284577539881
C            2.06827170140097        0.01254963348330       -0.16306593173779
C            2.98599534306915       -0.51060503559920       -1.29033522846386
C            4.41005538156659       -0.43702349062905       -0.85392731037276