25
 energy: 105.186953011888 xtb: 6.6.1 (8d0f1dd)
C            3.31484165727170        1.16228402257084        0.09143269869046
N            2.36023533664543        0.07996510788909        0.07350011558892
C            2.70119578481423       -1.19536246274928        0.05511377296671
N            1.60356110648959       -1.96684380213447        0.05295883133987
C            0.45637512495596       -1.12992542973638        0.07307948083888
C            0.99638014397509        0.19390223855814        0.08696575908859
C            0.22500456212759        1.43071595240824        0.06309543871140
O            0.76095489376585        2.54494322726483       -0.07297067268399
N           -1.08095177903179        1.16302473770894        0.20521574620788
C           -2.02437918914090        2.22610213341972        0.19565425286308
C           -3.96835577799795        0.42436241211415       -1.25582074482488
O           -4.21574611296338       -0.64943250797214       -1.00381254481104
N           -0.76403506194049       -1.46388962293346        0.09941984363991
C           -1.26815400406352       -2.79860776315973        0.05842864162553
H            3.80959495082026        1.21440870651912        1.06366769296569
H            4.07094555853578        1.02020352973365       -0.68219829253515
H            2.77931463760941        2.09716983354530       -0.08008495346942
H            3.71532262816074       -1.54706579795488        0.05439239684982
H           -1.66582384522342        3.11577810437496       -0.34972162057039
H           -2.95196691265052        1.88599598466876       -0.30692323509909
H           -2.24200087895353        2.49616739933704        1.24807776583571
H           -0.95002937188687       -3.40101244867483        0.91250835803182
H           -1.00530341680979       -3.33176526320686       -0.86182802508602
H           -2.34827885048302       -2.71318503754172        0.10738543087545
H            1.61335371326182       -2.97387884265547        0.04226064038224
