      -----------------------------------------------------------      
     |                   =====================                   |     
     |                           x T B                           |     
     |                   =====================                   |     
     |                         S. Grimme                         |     
     |          Mulliken Center for Theoretical Chemistry        |     
     |                    University of Bonn                     |     
      -----------------------------------------------------------      

   * xtb version 6.6.1 (8d0f1dd) compiled by 'conda@1efc2f54142f' on 2023-08-01

   xtb is free software: you can redistribute it and/or modify it under
   the terms of the GNU Lesser General Public License as published by
   the Free Software Foundation, either version 3 of the License, or
   (at your option) any later version.
   
   xtb is distributed in the hope that it will be useful,
   but WITHOUT ANY WARRANTY; without even the implied warranty of
   MERCHANTABILITY or FITNESS FOR A PARTICULAR PURPOSE.  See the
   GNU Lesser General Public License for more details.
   
   Cite this work as:
   * C. Bannwarth, E. Caldeweyher, S. Ehlert, A. Hansen, P. Pracht,
     J. Seibert, S. Spicher, S. Grimme, WIREs Comput. Mol. Sci., 2020, 11,
     e01493. DOI: 10.1002/wcms.1493
   
   for GFN2-xTB:
   * C. Bannwarth, S. Ehlert and S. Grimme., J. Chem. Theory Comput., 2019,
     15, 1652-1671. DOI: 10.1021/acs.jctc.8b01176
   for GFN1-xTB:
   * S. Grimme, C. Bannwarth, P. Shushkov, J. Chem. Theory Comput., 2017,
     13, 1989-2009. DOI: 10.1021/acs.jctc.7b00118
   for GFN0-xTB:
   * P. Pracht, E. Caldeweyher, S. Ehlert, S. Grimme, ChemRxiv, 2019, preprint.
     DOI: 10.26434/chemrxiv.8326202.v1
   for GFN-FF:
   * S. Spicher and S. Grimme, Angew. Chem. Int. Ed., 2020, 59, 15665-15673.
     DOI: 10.1002/anie.202004239
   
   for ALPB and GBSA implicit solvation:
   * S. Ehlert, M. Stahn, S. Spicher, S. Grimme, J. Chem. Theory Comput.,
     2021, 17, 4250-4261. DOI: 10.1021/acs.jctc.1c00471
   
   for DFT-D4:
   * E. Caldeweyher, C. Bannwarth and S. Grimme, J. Chem. Phys., 2017,
     147, 034112. DOI: 10.1063/1.4993215
   * E. Caldeweyher, S. Ehlert, A. Hansen, H. Neugebauer, S. Spicher,
     C. Bannwarth and S. Grimme, J. Chem. Phys., 2019, 150, 154122.
     DOI: 10.1063/1.5090222
   * E. Caldeweyher, J.-M. Mewes, S. Ehlert and S. Grimme, Phys. Chem. Chem. Phys.
     2020, 22, 8499-8512. DOI: 10.1039/D0CP00502A
   
   for sTDA-xTB:
   * S. Grimme and C. Bannwarth, J. Chem. Phys., 2016, 145, 054103.
     DOI: 10.1063/1.4959605
   
   in the mass-spec context:
   * V. Asgeirsson, C. Bauer and S. Grimme, Chem. Sci., 2017, 8, 4879.
     DOI: 10.1039/c7sc00601b
   * J. Koopman and S. Grimme, ACS Omega 2019, 4, 12, 15120-15133.
     DOI: 10.1021/acsomega.9b02011
   
   for metadynamics refer to:
   * S. Grimme, J. Chem. Theory Comput., 2019, 155, 2847-2862
     DOI: 10.1021/acs.jctc.9b00143
   
   for SPH calculations refer to:
   * S. Spicher and S. Grimme, J. Chem. Theory Comput., 2021, 17, 1701-1714
     DOI: 10.1021/acs.jctc.0c01306
   
   with help from (in alphabetical order)
   P. Atkinson, C. Bannwarth, F. Bohle, G. Brandenburg, E. Caldeweyher
   M. Checinski, S. Dohm, S. Ehlert, S. Ehrlich, I. Gerasimov, C. Hölzer
   A. Katbashev, J. Koopman, C. Lavigne, S. Lehtola, F. März, M. Müller,
   F. Musil, H. Neugebauer, J. Pisarek, C. Plett, P. Pracht, F. Pultar,
   J. Seibert, P. Shushkov, S. Spicher, M. Stahn, M. Steiner, T. Strunk,
   J. Stückrath, T. Rose, and J. Unsleber
   
 * started run on 2024/06/05 at 19:57:53.574     

           -------------------------------------------------
          |                Calculation Setup                |
           -------------------------------------------------

          program call               : xtb struc.xyz --opt loose --input .xc1 --gfn2
          hostname                   : n-62-31-11
          coordinate file            : struc.xyz
          omp threads                :                     1

   ID    Z sym.   atoms
    1    6 C      1, 3, 5-7, 10, 11, 14
    2    7 N      2, 4, 9, 13
    3    8 O      8, 12
    4    1 H      15-25
constraining bond 5 12 to    5.7600000 Å, actual value:    3.4583605 Å

           -------------------------------------------------
          |                 G F N 2 - x T B                 |
           -------------------------------------------------

        Reference                      10.1021/acs.jctc.8b01176
      * Hamiltonian:
        H0-scaling (s, p, d)           1.850000    2.230000    2.230000
        zeta-weighting                 0.500000
      * Dispersion:
        s8                             2.700000
        a1                             0.520000
        a2                             5.000000
        s9                             5.000000
      * Repulsion:
        kExp                           1.500000    1.000000
        rExp                           1.000000
      * Coulomb:
        alpha                          2.000000
        third order                    shell-resolved
        anisotropic                    true
        a3                             3.000000
        a5                             4.000000
        cn-shift                       1.200000
        cn-exp                         4.000000
        max-rad                        5.000000


          ...................................................
          :                      SETUP                      :
          :.................................................:
          :  # basis functions                  67          :
          :  # atomic orbitals                  67          :
          :  # shells                           39          :
          :  # electrons                        74          :
          :  max. iterations                   250          :
          :  Hamiltonian                  GFN2-xTB          :
          :  restarted?                      false          :
          :  GBSA solvation                  false          :
          :  PC potential                    false          :
          :  electronic temp.         5000.0000000     K    :
          :  accuracy                    1.0000000          :
          :  -> integral cutoff          0.2500000E+02      :
          :  -> integral neglect         0.1000000E-07      :
          :  -> SCF convergence          0.1000000E-05 Eh   :
          :  -> wf. convergence          0.1000000E-03 e    :
          :  Broyden damping             0.4000000          :
          ...................................................

 iter      E             dE          RMSdq      gap      omega  full diag
   1    -42.5894031 -0.425894E+02  0.445E+00    3.52       0.0  T
   2    -42.7683054 -0.178902E+00  0.251E+00    3.36       1.0  T
   3    -42.7759211 -0.761567E-02  0.147E+00    3.35       1.0  T
   4    -42.7728404  0.308066E-02  0.553E-01    3.33       1.0  T
   5    -42.7789548 -0.611444E-02  0.112E-01    3.35       1.0  T
   6    -42.7790473 -0.924914E-04  0.614E-02    3.33       1.0  T
   7    -42.7790721 -0.247928E-04  0.258E-02    3.34       1.0  T
   8    -42.7790772 -0.508996E-05  0.938E-03    3.34       2.1  T
   9    -42.7790779 -0.669422E-06  0.448E-03    3.34       4.5  T
  10    -42.7790780 -0.821510E-07  0.115E-03    3.34      17.4  T
  11    -42.7790780 -0.322663E-08  0.553E-04    3.34      36.2  T
  12    -42.7790780 -0.287051E-08  0.180E-04    3.34     111.1  T

   *** convergence criteria satisfied after 12 iterations ***

         #    Occupation            Energy/Eh            Energy/eV
      -------------------------------------------------------------
         1        2.0000           -0.9185990             -24.9964
       ...           ...                  ...                  ...
        31        1.9996           -0.6230278             -16.9534
        32        1.9995           -0.6194601             -16.8564
        33        1.9979           -0.5974976             -16.2587
        34        1.9932           -0.5789629             -15.7544
        35        1.9817           -0.5631863             -15.3251
        36        1.9779           -0.5602245             -15.2445
        37        1.9748           -0.5581234             -15.1873 (HOMO)
        38        0.0652           -0.4353579             -11.8467 (LUMO)
        39        0.0099           -0.4050467             -11.0219
        40        0.0013           -0.3732218             -10.1559
        41        0.0000           -0.2886859              -7.8555
        42                         -0.2065804              -5.6213
       ...                                ...                  ...
        67                          0.5625656              15.3082
      -------------------------------------------------------------
                  HL-Gap            0.1227656 Eh            3.3406 eV
             Fermi-level           -0.4890455 Eh          -13.3076 eV

 SCC (total)                   0 d,  0 h,  0 min,  0.036 sec
 SCC setup                      ...        0 min,  0.000 sec (  0.662%)
 Dispersion                     ...        0 min,  0.000 sec (  0.799%)
 classical contributions        ...        0 min,  0.000 sec (  0.213%)
 integral evaluation            ...        0 min,  0.005 sec ( 13.604%)
 iterations                     ...        0 min,  0.017 sec ( 47.222%)
 molecular gradient             ...        0 min,  0.014 sec ( 37.096%)
 printout                       ...        0 min,  0.000 sec (  0.374%)

         :::::::::::::::::::::::::::::::::::::::::::::::::::::
         ::                     SUMMARY                     ::
         :::::::::::::::::::::::::::::::::::::::::::::::::::::
         :: total energy             -32.788922885465 Eh    ::
         :: gradient norm              6.153654526269 Eh/a0 ::
         :: HOMO-LUMO gap              3.340621582928 eV    ::
         ::.................................................::
         :: SCC energy               -42.779077977399 Eh    ::
         :: -> isotropic ES            0.141123876439 Eh    ::
         :: -> anisotropic ES         -0.005230418907 Eh    ::
         :: -> anisotropic XC          0.011966818540 Eh    ::
         :: -> dispersion             -0.022657731803 Eh    ::
         :: repulsion energy           0.531105277918 Eh    ::
         :: add. restraining           9.458935655007 Eh    ::
         :: total charge               1.000000000002 e     ::
         :::::::::::::::::::::::::::::::::::::::::::::::::::::

      ----------------------------------------------------------- 
     |                   =====================                   |
     |                        A N C O P T                        |
     |                   =====================                   |
     |               Approximate Normal Coordinate               |
     |                Rational Function Optimizer                |
      ----------------------------------------------------------- 

          ...................................................
          :                      SETUP                      :
          :.................................................:
          :   optimization level             loose          :
          :   max. optcycles                   200          :
          :   ANC micro-cycles                  20          :
          :   degrees of freedom                69          :
          :.................................................:
          :   RF solver                   davidson          :
          :   write xtbopt.log                true          :
          :   linear?                        false          :
          :   energy convergence         0.5000000E-04 Eh   :
          :   grad. convergence          0.4000000E-02 Eh/α :
          :   maxmium RF displ.          1.0000000          :
          :   Hlow (freq-cutoff)         0.1000000E-01      :
          :   Hmax (freq-cutoff)         5.0000000          :
          :   S6 in model hess.         20.0000000          :
          ...................................................

generating ANC from model Hessian ...
Using Lindh-Hessian (1995)
 Shifting diagonal of input Hessian by    1.1597297584166313     
 Lowest  eigenvalues of input Hessian
    0.010000    0.338327    0.000000    0.000000    0.000000    0.000000
    0.000000    0.000000    1.162738    1.164113    1.167633    1.168950
    1.169796    1.171316    1.171686    1.174806    1.180611    1.186488
 Highest eigenvalues
    3.161838    3.304691    3.385126    3.461146    3.609424    4.794883


........................................................................
.............................. CYCLE    1 ..............................
........................................................................

 iter      E             dE          RMSdq      gap      omega  full diag
   1    -42.7790780 -0.427791E+02  0.626E-05    3.34       0.0  T
   2    -42.7790780 -0.124416E-10  0.329E-05    3.34     607.4  T
   3    -42.7790780  0.127898E-12  0.193E-05    3.34    1034.2  T
     SCC iter.                  ...        0 min,  0.005 sec
     gradient                   ...        0 min,  0.014 sec
 * total energy  :   -32.7889229 Eh     change       -0.6650680E-10 Eh
   gradient norm :     6.1536545 Eh/α   predicted     0.0000000E+00 (-100.00%)
   displ. norm   :     0.7203148 α      lambda       -0.4393972E+01
   maximum displ.:     0.6016185 α      in ANC's #69, #60, #58, ...

........................................................................
.............................. CYCLE    2 ..............................
........................................................................

 iter      E             dE          RMSdq      gap      omega  full diag
   1    -42.6290286 -0.426290E+02  0.122E+00    3.08       0.0  T
   2    -42.6478466 -0.188180E-01  0.914E-01    2.22       1.0  T
   3    -42.6541291 -0.628250E-02  0.467E-01    2.73       1.0  T
   4    -42.6528519  0.127717E-02  0.302E-01    2.33       1.0  T
   5    -42.6546550 -0.180310E-02  0.696E-02    2.60       1.0  T
   6    -42.6547600 -0.104961E-03  0.275E-02    2.57       1.0  T
   7    -42.6547643 -0.433481E-05  0.144E-02    2.58       1.4  T
   8    -42.6547651 -0.814661E-06  0.653E-03    2.58       3.1  T
   9    -42.6547657 -0.567093E-06  0.247E-03    2.58       8.1  T
  10    -42.6547657 -0.222764E-07  0.137E-03    2.58      14.6  T
  11    -42.6547658 -0.167430E-07  0.359E-04    2.58      55.7  T
  12    -42.6547658 -0.118102E-08  0.143E-04    2.58     139.6  T
     SCC iter.                  ...        0 min,  0.016 sec
     gradient                   ...        0 min,  0.013 sec
 * total energy  :   -36.5313018 Eh     change       -0.3742379E+01 Eh
   gradient norm :     4.3320414 Eh/α   predicted    -0.3336900E+01 ( -10.83%)
   displ. norm   :     0.7608409 α      lambda       -0.3270741E+01
   maximum displ.:     0.6226184 α      in ANC's #69, #60, #58, ...

........................................................................
.............................. CYCLE    3 ..............................
........................................................................

 iter      E             dE          RMSdq      gap      omega  full diag
   1    -42.4114109 -0.424114E+02  0.137E+00    1.92       0.0  T
   2    -42.4150929 -0.368200E-02  0.132E+00    1.59       1.0  T
   3    -42.4491260 -0.340331E-01  0.536E-01    1.84       1.0  T
   4    -42.4448522  0.427379E-02  0.479E-01    1.56       1.0  T
   5    -42.4467197 -0.186757E-02  0.295E-01    1.98       1.0  T
   6    -42.4499384 -0.321867E-02  0.649E-02    1.73       1.0  T
   7    -42.4500557 -0.117235E-03  0.219E-02    1.77       1.0  T
   8    -42.4500556  0.750756E-07  0.148E-02    1.76       1.4  T
   9    -42.4500580 -0.245273E-05  0.510E-03    1.76       3.9  T
  10    -42.4500584 -0.355442E-06  0.292E-03    1.77       6.9  T
  11    -42.4500584 -0.531296E-07  0.147E-03    1.77      13.6  T
  12    -42.4500585 -0.456628E-07  0.404E-04    1.77      49.5  T
  13    -42.4500585 -0.527756E-08  0.124E-04    1.77     161.5  T
     SCC iter.                  ...        0 min,  0.017 sec
     gradient                   ...        0 min,  0.013 sec
 * total energy  :   -39.1565183 Eh     change       -0.2625217E+01 Eh
   gradient norm :     2.6846845 Eh/α   predicted    -0.2582052E+01 (  -1.64%)
   displ. norm   :     0.7536955 α      lambda       -0.1990546E+01
   maximum displ.:     0.5156730 α      in ANC's #69, #58, #60, ...

........................................................................
.............................. CYCLE    4 ..............................
........................................................................

 iter      E             dE          RMSdq      gap      omega  full diag
   1    -42.2257722 -0.422258E+02  0.123E+00    1.26       0.0  T
   2    -42.1385005  0.872717E-01  0.191E+00    1.49       1.0  T
   3    -42.2435587 -0.105058E+00  0.841E-01    0.99       1.0  T
   4    -42.2523893 -0.883061E-02  0.559E-01    1.65       1.0  T
   5    -42.2612247 -0.883544E-02  0.333E-01    1.25       1.0  T
   6    -42.2640553 -0.283060E-02  0.104E-01    1.30       1.0  T
   7    -42.2643612 -0.305819E-03  0.423E-02    1.33       1.0  T
   8    -42.2643992 -0.380323E-04  0.205E-02    1.35       1.0  T
   9    -42.2644025 -0.326370E-05  0.108E-02    1.34       1.8  T
  10    -42.2644047 -0.223208E-05  0.518E-03    1.34       3.9  T
  11    -42.2644048 -0.118674E-06  0.324E-03    1.34       6.2  T
  12    -42.2644050 -0.156503E-06  0.681E-04    1.34      29.4  T
  13    -42.2644050 -0.671491E-08  0.330E-04    1.34      60.6  T
     SCC iter.                  ...        0 min,  0.017 sec
     gradient                   ...        0 min,  0.013 sec
 * total energy  :   -40.7160842 Eh     change       -0.1559566E+01 Eh
   gradient norm :     1.5559102 Eh/α   predicted    -0.1560645E+01 (   0.07%)
   displ. norm   :     0.6272851 α      lambda       -0.9635866E+00
   maximum displ.:     0.4748296 α      in ANC's #69, #60, #39, ...

........................................................................
.............................. CYCLE    5 ..............................
........................................................................

 iter      E             dE          RMSdq      gap      omega  full diag
   1    -42.1193182 -0.421193E+02  0.111E+00    0.70       0.0  T
   2    -41.7490970  0.370221E+00  0.307E+00    1.71       1.0  T
   3    -42.1506098 -0.401513E+00  0.539E-01    0.80       1.0  T
   4    -42.1494681  0.114172E-02  0.365E-01    1.12       1.0  T
   5    -42.1502313 -0.763231E-03  0.443E-01    0.77       1.0  T
   6    -42.1561761 -0.594475E-02  0.176E-01    0.88       1.0  T
   7    -42.1575035 -0.132741E-02  0.403E-02    0.93       1.0  T
   8    -42.1575496 -0.461054E-04  0.105E-02    0.94       1.9  T
   9    -42.1575478  0.177664E-05  0.940E-03    0.94       2.1  T
  10    -42.1575506 -0.277960E-05  0.569E-03    0.95       3.5  T
  11    -42.1575517 -0.106933E-05  0.261E-03    0.94       7.7  T
  12    -42.1575520 -0.278741E-06  0.664E-04    0.94      30.1  T
  13    -42.1575520 -0.514176E-08  0.310E-04    0.94      64.5  T
     SCC iter.                  ...        0 min,  0.017 sec
     gradient                   ...        0 min,  0.013 sec
 * total energy  :   -41.3917313 Eh     change       -0.6756472E+00 Eh
   gradient norm :     0.6398857 Eh/α   predicted    -0.6713723E+00 (  -0.63%)
   displ. norm   :     0.4183776 α      lambda       -0.2634740E+00
   maximum displ.:     0.2708974 α      in ANC's #69, #39, #45, ...

........................................................................
.............................. CYCLE    6 ..............................
........................................................................

 iter      E             dE          RMSdq      gap      omega  full diag
   1    -42.0864231 -0.420864E+02  0.109E+00    0.33       0.0  T
   2    -41.5654989  0.520924E+00  0.348E+00    1.46       1.0  T
   3    -42.1210876 -0.555589E+00  0.638E-01    0.90       1.0  T
   4    -42.1204037  0.683899E-03  0.589E-01    0.87       1.0  T
   5    -42.1330942 -0.126906E-01  0.192E-01    0.77       1.0  T
   6    -42.1326681  0.426091E-03  0.175E-01    0.66       1.0  T
   7    -42.1340038 -0.133561E-02  0.422E-02    0.74       1.0  T
   8    -42.1340573 -0.535325E-04  0.309E-02    0.72       1.0  T
   9    -42.1340989 -0.416380E-04  0.750E-03    0.73       2.7  T
  10    -42.1340998 -0.895823E-06  0.262E-03    0.73       7.6  T
  11    -42.1340998  0.178560E-07  0.191E-03    0.73      10.5  T
  12    -42.1340998 -0.338077E-07  0.151E-03    0.73      13.3  T
  13    -42.1340999 -0.108927E-06  0.294E-04    0.73      68.1  T
  14    -42.1341000 -0.279226E-08  0.112E-04    0.73     178.6  T
     SCC iter.                  ...        0 min,  0.018 sec
     gradient                   ...        0 min,  0.013 sec
 * total energy  :   -41.5562320 Eh     change       -0.1645007E+00 Eh
   gradient norm :     0.2857935 Eh/α   predicted    -0.1547975E+00 (  -5.90%)
   displ. norm   :     0.2528892 α      lambda       -0.5970663E-01
   maximum displ.:     0.1074663 α      in ANC's #39, #45, #69, ...

........................................................................
.............................. CYCLE    7 ..............................
........................................................................

 iter      E             dE          RMSdq      gap      omega  full diag
   1    -42.1361043 -0.421361E+02  0.558E-01    0.50       0.0  T
   2    -42.0133396  0.122765E+00  0.174E+00    1.02       1.0  T
   3    -42.1303597 -0.117020E+00  0.691E-01    0.58       1.0  T
   4    -42.1308625 -0.502780E-03  0.670E-01    0.92       1.0  T
   5    -42.1443063 -0.134438E-01  0.361E-01    0.81       1.0  T
   6    -42.1485941 -0.428780E-02  0.123E-01    0.63       1.0  T
   7    -42.1493659 -0.771860E-03  0.378E-02    0.67       1.0  T
   8    -42.1494116 -0.456339E-04  0.177E-02    0.67       1.1  T
   9    -42.1494206 -0.904728E-05  0.804E-03    0.68       2.5  T
  10    -42.1494233 -0.266969E-05  0.197E-03    0.68      10.2  T
  11    -42.1494233 -0.886700E-08  0.128E-03    0.68      15.6  T
  12    -42.1494233 -0.562987E-07  0.283E-04    0.68      70.6  T
  13    -42.1494233  0.177380E-09  0.172E-04    0.68     116.6  T
     SCC iter.                  ...        0 min,  0.017 sec
     gradient                   ...        0 min,  0.013 sec
 * total energy  :   -41.6025933 Eh     change       -0.4636126E-01 Eh
   gradient norm :     0.2563752 Eh/α   predicted    -0.3176342E-01 ( -31.49%)
   displ. norm   :     0.3941954 α      lambda       -0.6813893E-01
   maximum displ.:     0.1656849 α      in ANC's #2, #39, #67, ...

........................................................................
.............................. CYCLE    8 ..............................
........................................................................

 iter      E             dE          RMSdq      gap      omega  full diag
   1    -42.1481840 -0.421482E+02  0.913E-01    0.46       0.0  T
   2    -41.9725565  0.175628E+00  0.226E+00    0.73       1.0  T
   3    -42.1480461 -0.175490E+00  0.953E-01    0.51       1.0  T
   4    -42.0822984  0.657477E-01  0.150E+00    1.24       1.0  T
   5    -42.1618570 -0.795586E-01  0.736E-01    0.95       1.0  T
   6    -42.1803005 -0.184435E-01  0.255E-01    0.58       1.0  T
   7    -42.1834873 -0.318683E-02  0.869E-02    0.65       1.0  T
   8    -42.1837721 -0.284786E-03  0.405E-02    0.67       1.0  T
   9    -42.1838512 -0.791717E-04  0.895E-03    0.68       2.2  T
  10    -42.1838527 -0.147920E-05  0.395E-03    0.68       5.1  T
  11    -42.1838533 -0.602118E-06  0.180E-03    0.68      11.1  T
  12    -42.1838534 -0.110778E-06  0.641E-04    0.68      31.2  T
  13    -42.1838534  0.442247E-08  0.460E-04    0.68      43.4  T
     SCC iter.                  ...        0 min,  0.017 sec
     gradient                   ...        0 min,  0.013 sec
 * total energy  :   -41.6522700 Eh     change       -0.4967677E-01 Eh
   gradient norm :     0.2155614 Eh/α   predicted    -0.3936356E-01 ( -20.76%)
   displ. norm   :     0.3901075 α      lambda       -0.4461816E-01
   maximum displ.:     0.2129001 α      in ANC's #2, #39, #67, ...

........................................................................
.............................. CYCLE    9 ..............................
........................................................................

 iter      E             dE          RMSdq      gap      omega  full diag
   1    -42.1579133 -0.421579E+02  0.111E+00    0.54       0.0  T
   2    -41.6576630  0.500250E+00  0.327E+00    1.63       1.0  T
   3    -42.1794952 -0.521832E+00  0.106E+00    0.63       1.0  T
   4    -42.1352549  0.442404E-01  0.132E+00    1.10       1.0  T
   5    -42.2070256 -0.717708E-01  0.489E-01    0.77       1.0  T
   6    -42.1848059  0.222198E-01  0.719E-01    0.52       1.0  T
   7    -42.2121841 -0.273782E-01  0.200E-01    0.66       1.0  T
   8    -42.2144613 -0.227716E-02  0.293E-02    0.70       1.0  T
   9    -42.2144719 -0.106214E-04  0.209E-02    0.70       1.0  T
  10    -42.2144508  0.211142E-04  0.250E-02    0.70       1.0  T
  11    -42.2144869 -0.361419E-04  0.268E-03    0.71       7.5  T
  12    -42.2144867  0.241292E-06  0.311E-03    0.71       6.4  T
  13    -42.2144872 -0.512284E-06  0.435E-04    0.71      46.0  T
  14    -42.2144872 -0.511950E-08  0.185E-04    0.71     107.9  T
     SCC iter.                  ...        0 min,  0.018 sec
     gradient                   ...        0 min,  0.013 sec
 * total energy  :   -41.6888881 Eh     change       -0.3661808E-01 Eh
   gradient norm :     0.2150731 Eh/α   predicted    -0.2570440E-01 ( -29.80%)
   displ. norm   :     0.6133038 α      lambda       -0.6734134E-01
   maximum displ.:     0.3735241 α      in ANC's #2, #67, #39, ...

........................................................................
.............................. CYCLE   10 ..............................
........................................................................

 iter      E             dE          RMSdq      gap      omega  full diag
   1    -41.9817284 -0.419817E+02  0.252E+00    0.00       0.0  T
   2    -40.8654614  0.111627E+01  0.519E+00    1.34       1.0  T
   3    -42.1116760 -0.124621E+01  0.177E+00    0.86       1.0  T
   4    -42.1805598 -0.688838E-01  0.130E+00    0.08       1.0  T
   5    -42.2520743 -0.715144E-01  0.491E-01    0.28       1.0  T
   6    -42.1558581  0.962161E-01  0.133E+00    0.08       1.0  T
   7    -42.2535579 -0.976998E-01  0.205E-01    0.32       1.0  T
   8    -42.2548472 -0.128926E-02  0.393E-02    0.32       1.0  T
   9    -42.2548952 -0.479678E-04  0.195E-02    0.31       1.0  T
  10    -42.2548904  0.473789E-05  0.160E-02    0.31       1.3  T
  11    -42.2548952 -0.476952E-05  0.996E-03    0.31       2.0  T
  12    -42.2548988 -0.359087E-05  0.537E-03    0.31       3.7  T
  13    -42.2549002 -0.145750E-05  0.195E-03    0.31      10.2  T
  14    -42.2549004 -0.183228E-06  0.291E-04    0.31      68.8  T
  15    -42.2549004 -0.283708E-08  0.163E-04    0.31     123.1  T
     SCC iter.                  ...        0 min,  0.020 sec
     gradient                   ...        0 min,  0.012 sec
 * total energy  :   -41.7453968 Eh     change       -0.5650869E-01 Eh
   gradient norm :     0.2121989 Eh/α   predicted    -0.4633564E-01 ( -18.00%)
   displ. norm   :     0.5989740 α      lambda       -0.5704675E-01
   maximum displ.:     0.3711038 α      in ANC's #2, #67, #19, ...

........................................................................
.............................. CYCLE   11 ..............................
........................................................................

 iter      E             dE          RMSdq      gap      omega  full diag
   1    -42.1548189 -0.421548E+02  0.167E+00    0.01       0.0  T
   2    -41.0545340  0.110028E+01  0.467E+00    1.53       1.0  T
   3    -42.2612687 -0.120673E+01  0.635E-01    0.15       1.0  T
   4    -42.2646927 -0.342398E-02  0.440E-01    0.10       1.0  T
   5    -42.2520350  0.126577E-01  0.549E-01    0.04       1.0  T
   6    -42.2672391 -0.152042E-01  0.113E-01    0.10       1.0  T
   7    -42.2676079 -0.368763E-03  0.417E-02    0.10       1.0  T
   8    -42.2676703 -0.623685E-04  0.227E-02    0.09       1.0  T
   9    -42.2676836 -0.133385E-04  0.622E-03    0.09       3.2  T
  10    -42.2676838 -0.220484E-06  0.371E-03    0.09       5.4  T
  11    -42.2676844 -0.598611E-06  0.138E-03    0.09      14.5  T
  12    -42.2676845 -0.913412E-07  0.530E-04    0.09      37.7  T
  13    -42.2676845 -0.731762E-08  0.291E-04    0.09      68.7  T
     SCC iter.                  ...        0 min,  0.017 sec
     gradient                   ...        0 min,  0.013 sec
 * total energy  :   -41.7772577 Eh     change       -0.3186084E-01 Eh
   gradient norm :     0.2568891 Eh/α   predicted    -0.3875713E-01 (  21.65%)
   displ. norm   :     0.1603735 α      lambda       -0.2758451E-01
   maximum displ.:     0.0629050 α      in ANC's #2, #45, #44, ...

........................................................................
.............................. CYCLE   12 ..............................
........................................................................

 iter      E             dE          RMSdq      gap      omega  full diag
   1    -42.2862838 -0.422863E+02  0.264E-01    0.05       0.0  T
   2    -42.2627004  0.235834E-01  0.675E-01    0.24       1.0  T
   3    -42.2830929 -0.203925E-01  0.305E-01    0.04       1.0  T
   4    -42.2872489 -0.415601E-02  0.111E-01    0.06       1.0  T
   5    -42.2874708 -0.221941E-03  0.322E-02    0.07       1.0  T
   6    -42.2874876 -0.167868E-04  0.138E-02    0.06       1.4  T
   7    -42.2874942 -0.655788E-05  0.537E-03    0.06       3.7  T
   8    -42.2874939  0.220841E-06  0.428E-03    0.06       4.7  T
   9    -42.2874946 -0.611023E-06  0.159E-03    0.06      12.6  T
  10    -42.2874947 -0.959661E-07  0.373E-04    0.07      53.6  T
  11    -42.2874947 -0.556099E-09  0.212E-04    0.07      94.2  T
     SCC iter.                  ...        0 min,  0.015 sec
     gradient                   ...        0 min,  0.013 sec
 * total energy  :   -41.8026585 Eh     change       -0.2540086E-01 Eh
   gradient norm :     0.2150270 Eh/α   predicted    -0.1414713E-01 ( -44.30%)
   displ. norm   :     0.5579733 α      lambda       -0.9871162E-01
   maximum displ.:     0.2681836 α      in ANC's #45, #44, #31, ...

........................................................................
.............................. CYCLE   13 ..............................
........................................................................

 iter      E             dE          RMSdq      gap      omega  full diag
   1    -42.3547661 -0.423548E+02  0.830E-01    0.02       0.0  T
   2    -42.3319995  0.227666E-01  0.898E-01    0.18       1.0  T
   3    -42.3251329  0.686667E-02  0.924E-01    0.00       1.0  T
   4    -42.3552471 -0.301142E-01  0.413E-01    0.06       1.0  T
   5    -42.3607571 -0.551000E-02  0.168E-01    0.03       1.0  T
   6    -42.3617153 -0.958211E-03  0.551E-02    0.03       1.0  T
   7    -42.3617826 -0.672612E-04  0.219E-02    0.03       1.0  T
   8    -42.3617884 -0.582734E-05  0.898E-03    0.03       2.2  T
   9    -42.3617907 -0.229972E-05  0.249E-03    0.03       8.0  T
  10    -42.3617909 -0.175868E-06  0.101E-03    0.03      19.8  T
  11    -42.3617909 -0.738523E-08  0.450E-04    0.03      44.4  T
  12    -42.3617909 -0.146008E-08  0.146E-04    0.03     137.4  T
     SCC iter.                  ...        0 min,  0.016 sec
     gradient                   ...        0 min,  0.013 sec
 * total energy  :   -41.8638050 Eh     change       -0.6114652E-01 Eh
   gradient norm :     0.1207199 Eh/α   predicted    -0.6472199E-01 (   5.85%)
   displ. norm   :     0.2736798 α      lambda       -0.1382664E-01
   maximum displ.:     0.1624777 α      in ANC's #1, #31, #45, ...

........................................................................
.............................. CYCLE   14 ..............................
........................................................................

 iter      E             dE          RMSdq      gap      omega  full diag
   1    -42.3748315 -0.423748E+02  0.387E-01    0.02       0.0  T
   2    -42.3578063  0.170252E-01  0.631E-01    0.11       1.0  T
   3    -42.3718976 -0.140913E-01  0.329E-01    0.01       1.0  T
   4    -42.3752869 -0.338935E-02  0.164E-01    0.03       1.0  T
   5    -42.3761972 -0.910288E-03  0.363E-02    0.02       1.0  T
   6    -42.3762392 -0.419991E-04  0.131E-02    0.03       1.5  T
   7    -42.3762425 -0.332181E-05  0.493E-03    0.03       4.1  T
   8    -42.3762426 -0.526028E-07  0.165E-03    0.03      12.1  T
   9    -42.3762427 -0.592425E-07  0.484E-04    0.03      41.3  T
  10    -42.3762427 -0.195442E-09  0.347E-04    0.03      57.6  T
     SCC iter.                  ...        0 min,  0.014 sec
     gradient                   ...        0 min,  0.013 sec
 * total energy  :   -41.8726385 Eh     change       -0.8833423E-02 Eh
   gradient norm :     0.1235146 Eh/α   predicted    -0.7431881E-02 ( -15.87%)
   displ. norm   :     0.1950905 α      lambda       -0.1192603E-01
   maximum displ.:     0.0857058 α      in ANC's #1, #31, #38, ...

........................................................................
.............................. CYCLE   15 ..............................
........................................................................

 iter      E             dE          RMSdq      gap      omega  full diag
   1    -42.3943336 -0.423943E+02  0.259E-01    0.02       0.0  T
   2    -42.3936768  0.656816E-03  0.208E-01    0.03       1.0  T
   3    -42.3935980  0.787693E-04  0.203E-01    0.02       1.0  T
   4    -42.3930834  0.514647E-03  0.191E-01    0.03       1.0  T
   5    -42.3949469 -0.186350E-02  0.342E-02    0.02       1.0  T
   6    -42.3949797 -0.328034E-04  0.699E-03    0.02       2.9  T
   7    -42.3949809 -0.116483E-05  0.327E-03    0.02       6.1  T
   8    -42.3949809 -0.536757E-07  0.140E-03    0.02      14.3  T
   9    -42.3949809 -0.266077E-07  0.372E-04    0.02      53.8  T
  10    -42.3949809 -0.240973E-08  0.185E-04    0.02     108.2  T
     SCC iter.                  ...        0 min,  0.013 sec
     gradient                   ...        0 min,  0.013 sec
 * total energy  :   -41.8817968 Eh     change       -0.9158367E-02 Eh
   gradient norm :     0.1052111 Eh/α   predicted    -0.6189985E-02 ( -32.41%)
   displ. norm   :     0.2728565 α      lambda       -0.1756872E-01
   maximum displ.:     0.1324445 α      in ANC's #1, #31, #38, ...

........................................................................
.............................. CYCLE   16 ..............................
........................................................................

 iter      E             dE          RMSdq      gap      omega  full diag
   1    -42.4115112 -0.424115E+02  0.372E-01    0.02       0.0  T
   2    -42.4104584  0.105275E-02  0.278E-01    0.02       1.0  T
   3    -42.4122603 -0.180186E-02  0.196E-01    0.02       1.0  T
   4    -42.4127648 -0.504513E-03  0.676E-02    0.02       1.0  T
   5    -42.4125193  0.245502E-03  0.879E-02    0.03       1.0  T
   6    -42.4129210 -0.401734E-03  0.972E-03    0.02       2.1  T
   7    -42.4129220 -0.992474E-06  0.486E-03    0.02       4.1  T
   8    -42.4129223 -0.269932E-06  0.125E-03    0.02      16.0  T
   9    -42.4129223 -0.170338E-07  0.441E-04    0.02      45.4  T
  10    -42.4129223 -0.692751E-09  0.262E-04    0.02      76.4  T
     SCC iter.                  ...        0 min,  0.013 sec
     gradient                   ...        0 min,  0.013 sec
 * total energy  :   -41.8919467 Eh     change       -0.1014986E-01 Eh
   gradient norm :     0.0783455 Eh/α   predicted    -0.9438437E-02 (  -7.01%)
   displ. norm   :     0.2089460 α      lambda       -0.4751158E-02
   maximum displ.:     0.1831420 α      in ANC's #1, #31, #17, ...

........................................................................
.............................. CYCLE   17 ..............................
........................................................................

 iter      E             dE          RMSdq      gap      omega  full diag
   1    -42.4158344 -0.424158E+02  0.211E-01    0.02       0.0  T
   2    -42.4151857  0.648679E-03  0.186E-01    0.02       1.0  T
   3    -42.4157658 -0.580137E-03  0.130E-01    0.03       1.0  T
   4    -42.4150369  0.728887E-03  0.178E-01    0.01       1.0  T
   5    -42.4163893 -0.135236E-02  0.149E-02    0.02       1.3  T
   6    -42.4163942 -0.496666E-05  0.483E-03    0.02       4.1  T
   7    -42.4163946 -0.321037E-06  0.217E-03    0.02       9.2  T
   8    -42.4163946 -0.207309E-07  0.747E-04    0.02      26.8  T
   9    -42.4163946 -0.717416E-08  0.207E-04    0.02      96.5  T
     SCC iter.                  ...        0 min,  0.012 sec
     gradient                   ...        0 min,  0.013 sec
 * total energy  :   -41.8954824 Eh     change       -0.3535719E-02 Eh
   gradient norm :     0.0808296 Eh/α   predicted    -0.2479430E-02 ( -29.87%)
   displ. norm   :     0.2544714 α      lambda       -0.1029971E-01
   maximum displ.:     0.0997225 α      in ANC's #31, #17, #45, ...

........................................................................
.............................. CYCLE   18 ..............................
........................................................................

 iter      E             dE          RMSdq      gap      omega  full diag
   1    -42.4146671 -0.424147E+02  0.522E-01    0.02       0.0  T
   2    -42.4091502  0.551691E-02  0.527E-01    0.02       1.0  T
   3    -42.4164164 -0.726613E-02  0.284E-01    0.04       1.0  T
   4    -42.4145692  0.184713E-02  0.377E-01    0.01       1.0  T
   5    -42.4199480 -0.537872E-02  0.457E-02    0.02       1.0  T
   6    -42.4199773 -0.293755E-04  0.154E-02    0.02       1.3  T
   7    -42.4199836 -0.622675E-05  0.601E-03    0.02       3.3  T
   8    -42.4199839 -0.326061E-06  0.264E-03    0.02       7.6  T
   9    -42.4199839 -0.620161E-07  0.617E-04    0.02      32.4  T
  10    -42.4199840 -0.331372E-08  0.372E-04    0.02      53.8  T
     SCC iter.                  ...        0 min,  0.013 sec
     gradient                   ...        0 min,  0.013 sec
 * total energy  :   -41.9028254 Eh     change       -0.7342965E-02 Eh
   gradient norm :     0.0881157 Eh/α   predicted    -0.5483377E-02 ( -25.32%)
   displ. norm   :     0.2664196 α      lambda       -0.9628638E-02
   maximum displ.:     0.1104215 α      in ANC's #31, #17, #60, ...

........................................................................
.............................. CYCLE   19 ..............................
........................................................................

 iter      E             dE          RMSdq      gap      omega  full diag
   1    -42.4125645 -0.424126E+02  0.548E-01    0.02       0.0  T
   2    -42.4095794  0.298511E-02  0.501E-01    0.03       1.0  T
   3    -42.4171434 -0.756404E-02  0.247E-01    0.01       1.0  T
   4    -42.4102320  0.691145E-02  0.391E-01    0.06       1.0  T
   5    -42.4177205 -0.748854E-02  0.997E-02    0.01       1.0  T
   6    -42.4181008 -0.380271E-03  0.186E-02    0.02       1.1  T
   7    -42.4181068 -0.604177E-05  0.103E-02    0.02       1.9  T
   8    -42.4181098 -0.292742E-05  0.278E-03    0.02       7.2  T
   9    -42.4181098 -0.673990E-07  0.882E-04    0.02      22.7  T
  10    -42.4181099 -0.992185E-08  0.508E-04    0.02      39.4  T
     SCC iter.                  ...        0 min,  0.013 sec
     gradient                   ...        0 min,  0.013 sec
 * total energy  :   -41.9098050 Eh     change       -0.6979608E-02 Eh
   gradient norm :     0.0845341 Eh/α   predicted    -0.5156070E-02 ( -26.13%)
   displ. norm   :     0.2769950 α      lambda       -0.8659339E-02
   maximum displ.:     0.1054426 α      in ANC's #31, #60, #17, ...

........................................................................
.............................. CYCLE   20 ..............................
........................................................................

 iter      E             dE          RMSdq      gap      omega  full diag
   1    -42.4126646 -0.424127E+02  0.529E-01    0.01       0.0  T
   2    -42.4088497  0.381491E-02  0.496E-01    0.04       1.0  T
   3    -42.4089302 -0.805318E-04  0.503E-01    0.00       1.0  T
   4    -42.4168454 -0.791519E-02  0.167E-01    0.02       1.0  T
   5    -42.4171764 -0.331000E-03  0.792E-02    0.01       1.0  T
   6    -42.4173906 -0.214155E-03  0.205E-02    0.01       1.0  T
   7    -42.4173979 -0.733682E-05  0.100E-02    0.02       2.0  T
   8    -42.4174002 -0.224888E-05  0.244E-03    0.02       8.2  T
   9    -42.4174002 -0.551664E-07  0.694E-04    0.02      28.8  T
  10    -42.4174002 -0.667882E-09  0.472E-04    0.02      42.4  T
     SCC iter.                  ...        0 min,  0.013 sec
     gradient                   ...        0 min,  0.013 sec
 * total energy  :   -41.9162703 Eh     change       -0.6465316E-02 Eh
   gradient norm :     0.0978362 Eh/α   predicted    -0.4661908E-02 ( -27.89%)
   displ. norm   :     0.2940103 α      lambda       -0.1018848E-01
   maximum displ.:     0.1058565 α      in ANC's #60, #31, #17, ...
 * RMSD in coord.:     0.8834351 α      energy gain  -0.9127347E+01 Eh

generating ANC from model Hessian ...
Using Lindh-Hessian (1995)
 Shifting diagonal of input Hessian by    1.0735320494028644E-002
 Lowest  eigenvalues of input Hessian
    0.010000    0.000000    0.000000    0.000000    0.000000    0.000000
    0.000000    0.011233    0.012651    0.014451    0.018288    0.018956
    0.019839    0.021180    0.023321    0.025323    0.029650    0.034843
 Highest eigenvalues
    1.936380    2.018677    2.157702    2.290845    2.426183    2.970740


........................................................................
.............................. CYCLE   21 ..............................
........................................................................

 iter      E             dE          RMSdq      gap      omega  full diag
   1    -42.4127324 -0.424127E+02  0.483E-01    0.00       0.0  T
   2    -42.4023236  0.104087E-01  0.572E-01    0.06       1.0  T
   3    -42.3996923  0.263133E-02  0.661E-01    0.00       1.0  T
   4    -42.4150012 -0.153089E-01  0.215E-01    0.00       1.0  T
   5    -42.4156182 -0.617011E-03  0.847E-02    0.01       1.0  T
   6    -42.4158699 -0.251742E-03  0.201E-02    0.01       1.0  T
   7    -42.4158764 -0.641422E-05  0.959E-03    0.01       2.1  T
   8    -42.4158780 -0.164928E-05  0.202E-03    0.01       9.9  T
   9    -42.4158781 -0.549374E-07  0.759E-04    0.01      26.4  T
  10    -42.4158781 -0.251932E-08  0.483E-04    0.01      41.4  T
     SCC iter.                  ...        0 min,  0.013 sec
     gradient                   ...        0 min,  0.013 sec
 * total energy  :   -41.9237432 Eh     change       -0.7472853E-02 Eh
   gradient norm :     0.1221280 Eh/α   predicted     0.0000000E+00 (-100.00%)
   displ. norm   :     0.4538644 α      lambda       -0.3009448E-01
   maximum displ.:     0.2738518 α      in ANC's #18, #16, #17, ...

........................................................................
.............................. CYCLE   22 ..............................
........................................................................

 iter      E             dE          RMSdq      gap      omega  full diag
   1    -42.4367259 -0.424367E+02  0.379E-01    0.01       0.0  T
   2    -42.4369676 -0.241728E-03  0.264E-01    0.00       1.0  T
   3    -42.4338508  0.311679E-02  0.294E-01    0.02       1.0  T
   4    -42.4307242  0.312668E-02  0.399E-01    0.00       1.0  T
   5    -42.4373315 -0.660737E-02  0.302E-02    0.01       1.0  T
   6    -42.4373404 -0.885547E-05  0.183E-02    0.01       1.1  T
   7    -42.4373508 -0.103938E-04  0.970E-03    0.01       2.1  T
   8    -42.4373529 -0.208581E-05  0.281E-03    0.01       7.1  T
   9    -42.4373531 -0.216748E-06  0.866E-04    0.01      23.1  T
  10    -42.4373531 -0.173235E-07  0.364E-04    0.01      54.9  T
     SCC iter.                  ...        0 min,  0.014 sec
     gradient                   ...        0 min,  0.013 sec
 * total energy  :   -41.9472134 Eh     change       -0.2347025E-01 Eh
   gradient norm :     0.0735689 Eh/α   predicted    -0.1816558E-01 ( -22.60%)
   displ. norm   :     0.5274409 α      lambda       -0.2094102E-01
   maximum displ.:     0.3078510 α      in ANC's #18, #16, #17, ...

........................................................................
.............................. CYCLE   23 ..............................
........................................................................

 iter      E             dE          RMSdq      gap      omega  full diag
   1    -42.4584014 -0.424584E+02  0.382E-01    0.00       0.0  T
   2    -42.4579304  0.470993E-03  0.302E-01    0.01       1.0  T
   3    -42.4511315  0.679891E-02  0.471E-01    0.01       1.0  T
   4    -42.4581416 -0.701008E-02  0.184E-01    0.01       1.0  T
   5    -42.4593851 -0.124357E-02  0.449E-02    0.00       1.0  T
   6    -42.4594272 -0.420909E-04  0.215E-02    0.00       1.0  T
   7    -42.4594408 -0.136190E-04  0.111E-02    0.00       1.8  T
   8    -42.4594440 -0.317383E-05  0.236E-03    0.00       8.5  T
   9    -42.4594442 -0.156254E-06  0.745E-04    0.00      26.8  T
  10    -42.4594442 -0.132325E-07  0.232E-04    0.00      86.3  T
     SCC iter.                  ...        0 min,  0.014 sec
     gradient                   ...        0 min,  0.013 sec
 * total energy  :   -41.9601240 Eh     change       -0.1291055E-01 Eh
   gradient norm :     0.0406608 Eh/α   predicted    -0.1338334E-01 (   3.66%)
   displ. norm   :     0.2737601 α      lambda       -0.3608100E-02
   maximum displ.:     0.1555583 α      in ANC's #7, #14, #18, ...

........................................................................
.............................. CYCLE   24 ..............................
........................................................................

 iter      E             dE          RMSdq      gap      omega  full diag
   1    -42.4656461 -0.424656E+02  0.148E-01    0.00       0.0  T
   2    -42.4639754  0.167069E-02  0.211E-01    0.01       1.0  T
   3    -42.4645182 -0.542741E-03  0.187E-01    0.00       1.0  T
   4    -42.4657624 -0.124422E-02  0.364E-02    0.00       1.0  T
   5    -42.4657803 -0.178656E-04  0.171E-02    0.00       1.2  T
   6    -42.4657905 -0.102364E-04  0.574E-03    0.00       3.5  T
   7    -42.4657911 -0.612902E-06  0.249E-03    0.00       8.0  T
   8    -42.4657912 -0.894189E-07  0.797E-04    0.00      25.1  T
   9    -42.4657912 -0.174450E-07  0.170E-04    0.00     117.6  T
     SCC iter.                  ...        0 min,  0.012 sec
     gradient                   ...        0 min,  0.013 sec
 * total energy  :   -41.9625632 Eh     change       -0.2439271E-02 Eh
   gradient norm :     0.0247230 Eh/α   predicted    -0.1939254E-02 ( -20.50%)
   displ. norm   :     0.2414477 α      lambda       -0.1752392E-02
   maximum displ.:     0.1435010 α      in ANC's #7, #2, #14, ...

........................................................................
.............................. CYCLE   25 ..............................
........................................................................

 iter      E             dE          RMSdq      gap      omega  full diag
   1    -42.4684958 -0.424685E+02  0.126E-01    0.01       0.0  T
   2    -42.4681904  0.305388E-03  0.117E-01    0.01       1.0  T
   3    -42.4672948  0.895627E-03  0.181E-01    0.00       1.0  T
   4    -42.4685378 -0.124301E-02  0.510E-02    0.01       1.0  T
   5    -42.4686059 -0.681006E-04  0.190E-02    0.01       1.1  T
   6    -42.4686168 -0.109692E-04  0.311E-03    0.01       6.4  T
   7    -42.4686169 -0.279235E-07  0.211E-03    0.01       9.5  T
   8    -42.4686169 -0.461826E-07  0.494E-04    0.01      40.5  T
   9    -42.4686169 -0.277920E-08  0.222E-04    0.01      90.2  T
     SCC iter.                  ...        0 min,  0.012 sec
     gradient                   ...        0 min,  0.013 sec
 * total energy  :   -41.9635991 Eh     change       -0.1035914E-02 Eh
   gradient norm :     0.0113085 Eh/α   predicted    -0.9272772E-03 ( -10.49%)
   displ. norm   :     0.1618567 α      lambda       -0.3707332E-03
   maximum displ.:     0.1348863 α      in ANC's #2, #7, #8, ...

........................................................................
.............................. CYCLE   26 ..............................
........................................................................

 iter      E             dE          RMSdq      gap      omega  full diag
   1    -42.4700593 -0.424701E+02  0.508E-02    0.02       0.0  T
   2    -42.4698904  0.168950E-03  0.733E-02    0.02       1.0  T
   3    -42.4699766 -0.862350E-04  0.544E-02    0.02       1.0  T
   4    -42.4700735 -0.968898E-04  0.250E-02    0.02       1.0  T
   5    -42.4700915 -0.179828E-04  0.708E-03    0.02       2.8  T
   6    -42.4700928 -0.131356E-05  0.147E-03    0.02      13.6  T
   7    -42.4700928 -0.668937E-08  0.798E-04    0.02      25.0  T
   8    -42.4700928 -0.318563E-08  0.300E-04    0.02      66.7  T
     SCC iter.                  ...        0 min,  0.011 sec
     gradient                   ...        0 min,  0.013 sec
 * total energy  :   -41.9638721 Eh     change       -0.2729622E-03 Eh
   gradient norm :     0.0072447 Eh/α   predicted    -0.1902270E-03 ( -30.31%)
   displ. norm   :     0.1742372 α      lambda       -0.2526287E-03
   maximum displ.:     0.1566935 α      in ANC's #2, #7, #8, ...

........................................................................
.............................. CYCLE   27 ..............................
........................................................................

 iter      E             dE          RMSdq      gap      omega  full diag
   1    -42.4700375 -0.424700E+02  0.551E-02    0.03       0.0  T
   2    -42.4692820  0.755435E-03  0.137E-01    0.03       1.0  T
   3    -42.4700613 -0.779252E-03  0.373E-02    0.03       1.0  T
   4    -42.4700949 -0.335544E-04  0.188E-02    0.03       1.1  T
   5    -42.4701021 -0.725609E-05  0.596E-03    0.03       3.4  T
   6    -42.4701031 -0.103141E-05  0.163E-03    0.03      12.3  T
   7    -42.4701032 -0.147513E-07  0.872E-04    0.03      22.9  T
   8    -42.4701032 -0.348698E-08  0.405E-04    0.03      49.4  T
     SCC iter.                  ...        0 min,  0.011 sec
     gradient                   ...        0 min,  0.013 sec
 * total energy  :   -41.9640602 Eh     change       -0.1880683E-03 Eh
   gradient norm :     0.0069085 Eh/α   predicted    -0.1302047E-03 ( -30.77%)
   displ. norm   :     0.1305673 α      lambda       -0.1374379E-03
   maximum displ.:     0.1220768 α      in ANC's #2, #7, #1, ...

........................................................................
.............................. CYCLE   28 ..............................
........................................................................

 iter      E             dE          RMSdq      gap      omega  full diag
   1    -42.4695353 -0.424695E+02  0.438E-02    0.05       0.0  T
   2    -42.4689376  0.597691E-03  0.121E-01    0.05       1.0  T
   3    -42.4695622 -0.624645E-03  0.259E-02    0.05       1.0  T
   4    -42.4695771 -0.148997E-04  0.130E-02    0.05       1.5  T
   5    -42.4695799 -0.278967E-05  0.469E-03    0.05       4.3  T
   6    -42.4695806 -0.681432E-06  0.154E-03    0.05      13.0  T
   7    -42.4695806 -0.246397E-07  0.797E-04    0.05      25.1  T
   8    -42.4695806 -0.546986E-08  0.330E-04    0.05      60.6  T
     SCC iter.                  ...        0 min,  0.011 sec
     gradient                   ...        0 min,  0.013 sec
 * total energy  :   -41.9641712 Eh     change       -0.1110364E-03 Eh
   gradient norm :     0.0058823 Eh/α   predicted    -0.6989574E-04 ( -37.05%)
   displ. norm   :     0.1131468 α      lambda       -0.1044030E-03
   maximum displ.:     0.1067833 α      in ANC's #2, #7, #1, ...

........................................................................
.............................. CYCLE   29 ..............................
........................................................................

 iter      E             dE          RMSdq      gap      omega  full diag
   1    -42.4692188 -0.424692E+02  0.369E-02    0.07       0.0  T
   2    -42.4688076  0.411198E-03  0.100E-01    0.06       1.0  T
   3    -42.4692368 -0.429152E-03  0.225E-02    0.06       1.0  T
   4    -42.4692487 -0.119776E-04  0.101E-02    0.06       2.0  T
   5    -42.4692496 -0.893786E-06  0.435E-03    0.07       4.6  T
   6    -42.4692503 -0.651351E-06  0.156E-03    0.07      12.8  T
   7    -42.4692503 -0.304628E-07  0.814E-04    0.07      24.6  T
   8    -42.4692503 -0.778103E-08  0.285E-04    0.07      70.2  T
     SCC iter.                  ...        0 min,  0.011 sec
     gradient                   ...        0 min,  0.013 sec
 * total energy  :   -41.9642575 Eh     change       -0.8633445E-04 Eh
   gradient norm :     0.0039926 Eh/α   predicted    -0.5287221E-04 ( -38.76%)
   displ. norm   :     0.1210469 α      lambda       -0.8948938E-04
   maximum displ.:     0.1085869 α      in ANC's #2, #1, #8, ...

........................................................................
.............................. CYCLE   30 ..............................
........................................................................

 iter      E             dE          RMSdq      gap      omega  full diag
   1    -42.4691366 -0.424691E+02  0.350E-02    0.08       0.0  T
   2    -42.4688451  0.291488E-03  0.851E-02    0.08       1.0  T
   3    -42.4691449 -0.299825E-03  0.244E-02    0.08       1.0  T
   4    -42.4691605 -0.156362E-04  0.101E-02    0.08       2.0  T
   5    -42.4691611 -0.618279E-06  0.460E-03    0.08       4.3  T
   6    -42.4691618 -0.702513E-06  0.177E-03    0.08      11.3  T
   7    -42.4691619 -0.398875E-07  0.899E-04    0.08      22.2  T
   8    -42.4691619 -0.107964E-07  0.281E-04    0.08      71.1  T
     SCC iter.                  ...        0 min,  0.011 sec
     gradient                   ...        0 min,  0.013 sec
 * total energy  :   -41.9643340 Eh     change       -0.7648449E-04 Eh
   gradient norm :     0.0030379 Eh/α   predicted    -0.4540405E-04 ( -40.64%)
   displ. norm   :     0.2043375 α      lambda       -0.1266386E-03
   maximum displ.:     0.1630876 α      in ANC's #2, #1, #4, ...

........................................................................
.............................. CYCLE   31 ..............................
........................................................................

 iter      E             dE          RMSdq      gap      omega  full diag
   1    -42.4689960 -0.424690E+02  0.575E-02    0.12       0.0  T
   2    -42.4684976  0.498411E-03  0.114E-01    0.11       1.0  T
   3    -42.4689731 -0.475541E-03  0.489E-02    0.12       1.0  T
   4    -42.4690456 -0.725530E-04  0.186E-02    0.12       1.1  T
   5    -42.4690489 -0.322545E-05  0.850E-03    0.12       2.4  T
   6    -42.4690512 -0.228701E-05  0.326E-03    0.12       6.1  T
   7    -42.4690513 -0.132011E-06  0.156E-03    0.12      12.8  T
   8    -42.4690513 -0.335566E-07  0.494E-04    0.12      40.5  T
   9    -42.4690513 -0.108834E-09  0.324E-04    0.12      61.8  T
     SCC iter.                  ...        0 min,  0.012 sec
     gradient                   ...        0 min,  0.013 sec
 * total energy  :   -41.9644620 Eh     change       -0.1280003E-03 Eh
   gradient norm :     0.0047091 Eh/α   predicted    -0.6596422E-04 ( -48.47%)
   displ. norm   :     0.2107725 α      lambda       -0.1697648E-03
   maximum displ.:     0.1471563 α      in ANC's #2, #1, #4, ...

........................................................................
.............................. CYCLE   32 ..............................
........................................................................

 iter      E             dE          RMSdq      gap      omega  full diag
   1    -42.4686929 -0.424687E+02  0.666E-02    0.16       0.0  T
   2    -42.4682516  0.441331E-03  0.111E-01    0.16       1.0  T
   3    -42.4685947 -0.343135E-03  0.666E-02    0.16       1.0  T
   4    -42.4687455 -0.150763E-03  0.234E-02    0.16       1.0  T
   5    -42.4687527 -0.725091E-05  0.103E-02    0.16       1.9  T
   6    -42.4687560 -0.324929E-05  0.390E-03    0.16       5.1  T
   7    -42.4687562 -0.182920E-06  0.179E-03    0.16      11.2  T
   8    -42.4687562 -0.449966E-07  0.604E-04    0.16      33.1  T
   9    -42.4687562 -0.405350E-09  0.397E-04    0.16      50.4  T
     SCC iter.                  ...        0 min,  0.012 sec
     gradient                   ...        0 min,  0.013 sec
 * total energy  :   -41.9646820 Eh     change       -0.2200031E-03 Eh
   gradient norm :     0.0084746 Eh/α   predicted    -0.8866176E-04 ( -59.70%)
   displ. norm   :     0.2945033 α      lambda       -0.4391923E-03
   maximum displ.:     0.1879775 α      in ANC's #1, #2, #4, ...

........................................................................
.............................. CYCLE   33 ..............................
........................................................................

 iter      E             dE          RMSdq      gap      omega  full diag
   1    -42.4680598 -0.424681E+02  0.116E-01    0.25       0.0  T
   2    -42.4671834  0.876411E-03  0.161E-01    0.24       1.0  T
   3    -42.4675271 -0.343717E-03  0.134E-01    0.25       1.0  T
   4    -42.4681971 -0.670003E-03  0.420E-02    0.25       1.0  T
   5    -42.4682228 -0.257205E-04  0.183E-02    0.25       1.1  T
   6    -42.4682328 -0.997556E-05  0.691E-03    0.25       2.9  T
   7    -42.4682334 -0.627966E-06  0.307E-03    0.25       6.5  T
   8    -42.4682336 -0.136133E-06  0.105E-03    0.25      19.0  T
   9    -42.4682336 -0.164412E-08  0.690E-04    0.25      29.0  T
  10    -42.4682336 -0.575751E-08  0.197E-04    0.25     101.4  T
     SCC iter.                  ...        0 min,  0.014 sec
     gradient                   ...        0 min,  0.013 sec
 * total energy  :   -41.9653067 Eh     change       -0.6246216E-03 Eh
   gradient norm :     0.0167724 Eh/α   predicted    -0.2386447E-03 ( -61.79%)
   displ. norm   :     0.4379010 α      lambda       -0.1350143E-02
   maximum displ.:     0.2807414 α      in ANC's #1, #2, #4, ...

........................................................................
.............................. CYCLE   34 ..............................
........................................................................

 iter      E             dE          RMSdq      gap      omega  full diag
   1    -42.4668135 -0.424668E+02  0.245E-01    0.45       0.0  T
   2    -42.4642233  0.259021E-02  0.289E-01    0.39       1.0  T
   3    -42.4634462  0.777117E-03  0.317E-01    0.43       1.0  T
   4    -42.4674578 -0.401160E-02  0.882E-02    0.42       1.0  T
   5    -42.4675657 -0.107914E-03  0.396E-02    0.42       1.0  T
   6    -42.4676113 -0.456257E-04  0.150E-02    0.42       1.3  T
   7    -42.4676147 -0.342995E-05  0.660E-03    0.42       3.0  T
   8    -42.4676154 -0.714740E-06  0.220E-03    0.42       9.1  T
   9    -42.4676155 -0.346898E-07  0.129E-03    0.42      15.5  T
  10    -42.4676155 -0.106406E-07  0.511E-04    0.42      39.1  T
  11    -42.4676155 -0.624807E-08  0.160E-04    0.42     124.8  T
     SCC iter.                  ...        0 min,  0.015 sec
     gradient                   ...        0 min,  0.013 sec
 * total energy  :   -41.9672849 Eh     change       -0.1978274E-02 Eh
   gradient norm :     0.0370405 Eh/α   predicted    -0.8045236E-03 ( -59.33%)
   displ. norm   :     0.5468025 α      lambda       -0.3992461E-02
   maximum displ.:     0.3175205 α      in ANC's #1, #2, #4, ...

........................................................................
.............................. CYCLE   35 ..............................
........................................................................

 iter      E             dE          RMSdq      gap      omega  full diag
   1    -42.4640497 -0.424640E+02  0.482E-01    0.80       0.0  T
   2    -42.4547948  0.925488E-02  0.547E-01    0.58       1.0  T
   3    -42.4527277  0.206712E-02  0.593E-01    0.59       1.0  T
   4    -42.4672510 -0.145233E-01  0.159E-01    0.71       1.0  T
   5    -42.4675383 -0.287232E-03  0.760E-02    0.69       1.0  T
   6    -42.4676940 -0.155781E-03  0.287E-02    0.68       1.0  T
   7    -42.4677072 -0.131618E-04  0.129E-02    0.69       1.6  T
   8    -42.4677103 -0.309710E-05  0.461E-03    0.69       4.3  T
   9    -42.4677108 -0.462022E-06  0.168E-03    0.69      11.9  T
  10    -42.4677108 -0.640973E-08  0.750E-04    0.69      26.7  T
  11    -42.4677108 -0.952421E-08  0.249E-04    0.69      80.2  T
     SCC iter.                  ...        0 min,  0.015 sec
     gradient                   ...        0 min,  0.013 sec
 * total energy  :   -41.9726767 Eh     change       -0.5391748E-02 Eh
   gradient norm :     0.0646674 Eh/α   predicted    -0.2593099E-02 ( -51.91%)
   displ. norm   :     0.5641237 α      lambda       -0.8793412E-02
   maximum displ.:     0.3438389 α      in ANC's #2, #4, #1, ...

........................................................................
.............................. CYCLE   36 ..............................
........................................................................

 iter      E             dE          RMSdq      gap      omega  full diag
   1    -42.4582895 -0.424583E+02  0.802E-01    1.26       0.0  T
   2    -42.4280026  0.302868E-01  0.982E-01    0.68       1.0  T
   3    -42.4425214 -0.145188E-01  0.810E-01    0.79       1.0  T
   4    -42.4688217 -0.263002E-01  0.258E-01    1.06       1.0  T
   5    -42.4696360 -0.814386E-03  0.119E-01    1.01       1.0  T
   6    -42.4700087 -0.372645E-03  0.430E-02    0.99       1.0  T
   7    -42.4700315 -0.227715E-04  0.197E-02    0.99       1.0  T
   8    -42.4700371 -0.563997E-05  0.898E-03    0.99       2.2  T
   9    -42.4700387 -0.160483E-05  0.335E-03    0.99       6.0  T
  10    -42.4700388 -0.655406E-07  0.174E-03    0.99      11.5  T
  11    -42.4700388 -0.355953E-07  0.837E-04    0.99      23.9  T
  12    -42.4700388 -0.414445E-08  0.431E-04    0.99      46.4  T
     SCC iter.                  ...        0 min,  0.016 sec
     gradient                   ...        0 min,  0.013 sec
 * total energy  :   -41.9824449 Eh     change       -0.9768271E-02 Eh
   gradient norm :     0.0824576 Eh/α   predicted    -0.5795910E-02 ( -40.67%)
   displ. norm   :     0.4772004 α      lambda       -0.1130124E-01
   maximum displ.:     0.3117959 α      in ANC's #2, #4, #10, ...

........................................................................
.............................. CYCLE   37 ..............................
........................................................................

 iter      E             dE          RMSdq      gap      omega  full diag
   1    -42.4604166 -0.424604E+02  0.973E-01    1.56       0.0  T
   2    -42.3987410  0.616756E-01  0.136E+00    0.70       1.0  T
   3    -42.4529398 -0.541988E-01  0.822E-01    1.09       1.0  T
   4    -42.4757374 -0.227977E-01  0.366E-01    1.38       1.0  T
   5    -42.4780533 -0.231589E-02  0.135E-01    1.28       1.0  T
   6    -42.4785525 -0.499123E-03  0.494E-02    1.25       1.0  T
   7    -42.4785718 -0.193093E-04  0.224E-02    1.25       1.0  T
   8    -42.4785769 -0.512627E-05  0.111E-02    1.24       1.8  T
   9    -42.4785788 -0.189040E-05  0.501E-03    1.24       4.0  T
  10    -42.4785790 -0.190669E-06  0.205E-03    1.24       9.7  T
  11    -42.4785790 -0.492001E-07  0.840E-04    1.24      23.8  T
  12    -42.4785790 -0.757510E-08  0.356E-04    1.24      56.1  T
     SCC iter.                  ...        0 min,  0.016 sec
     gradient                   ...        0 min,  0.013 sec
 * total energy  :   -41.9916971 Eh     change       -0.9252183E-02 Eh
   gradient norm :     0.0649138 Eh/α   predicted    -0.6937396E-02 ( -25.02%)
   displ. norm   :     0.2984936 α      lambda       -0.9357263E-02
   maximum displ.:     0.1431695 α      in ANC's #1, #8, #30, ...

........................................................................
.............................. CYCLE   38 ..............................
........................................................................

 iter      E             dE          RMSdq      gap      omega  full diag
   1    -42.4951857 -0.424952E+02  0.626E-01    1.48       0.0  T
   2    -42.4531976  0.419882E-01  0.107E+00    0.82       1.0  T
   3    -42.4948818 -0.416843E-01  0.461E-01    1.33       1.0  T
   4    -42.5004857 -0.560391E-02  0.235E-01    1.33       1.0  T
   5    -42.5018637 -0.137794E-02  0.398E-02    1.25       1.0  T
   6    -42.5018913 -0.276232E-04  0.218E-02    1.25       1.0  T
   7    -42.5018926 -0.127240E-05  0.132E-02    1.25       1.5  T
   8    -42.5018959 -0.333496E-05  0.555E-03    1.25       3.6  T
   9    -42.5018967 -0.755743E-06  0.217E-03    1.25       9.2  T
  10    -42.5018967 -0.269828E-07  0.106E-03    1.25      18.9  T
  11    -42.5018967 -0.595964E-08  0.418E-04    1.25      47.8  T
  12    -42.5018967 -0.237000E-08  0.227E-04    1.25      88.3  T
     SCC iter.                  ...        0 min,  0.016 sec
     gradient                   ...        0 min,  0.013 sec
 * total energy  :   -41.9877525 Eh     change        0.3944659E-02 Eh
   gradient norm :     0.1636707 Eh/α   predicted    -0.5095516E-02 (-229.18%)
   displ. norm   :     0.3327836 α      lambda       -0.1834712E-01
   maximum displ.:     0.2161706 α      in ANC's #1, #2, #14, ...

........................................................................
.............................. CYCLE   39 ..............................
........................................................................

 iter      E             dE          RMSdq      gap      omega  full diag
   1    -42.4905273 -0.424905E+02  0.513E-01    0.97       0.0  T
   2    -42.4598736  0.306537E-01  0.899E-01    1.23       1.0  T
   3    -42.4929344 -0.330609E-01  0.325E-01    1.08       1.0  T
   4    -42.4959435 -0.300908E-02  0.157E-01    1.10       1.0  T
   5    -42.4963656 -0.422113E-03  0.330E-02    1.15       1.0  T
   6    -42.4963775 -0.119059E-04  0.207E-02    1.15       1.0  T
   7    -42.4963863 -0.879464E-05  0.826E-03    1.16       2.4  T
   8    -42.4963865 -0.171842E-06  0.389E-03    1.16       5.1  T
   9    -42.4963867 -0.252824E-06  0.195E-03    1.16      10.3  T
  10    -42.4963868 -0.628512E-07  0.587E-04    1.16      34.1  T
  11    -42.4963868 -0.534754E-09  0.344E-04    1.16      58.1  T
     SCC iter.                  ...        0 min,  0.015 sec
     gradient                   ...        0 min,  0.013 sec
 * total energy  :   -41.9962174 Eh     change       -0.8464883E-02 Eh
   gradient norm :     0.0389346 Eh/α   predicted    -0.1018948E-01 (  20.37%)
   displ. norm   :     0.4687795 α      lambda       -0.5171588E-02
   maximum displ.:     0.3700135 α      in ANC's #2, #5, #1, ...

........................................................................
.............................. CYCLE   40 ..............................
........................................................................

 iter      E             dE          RMSdq      gap      omega  full diag
   1    -42.4901387 -0.424901E+02  0.273E-01    1.28       0.0  T
   2    -42.4874832  0.265546E-02  0.313E-01    1.07       1.0  T
   3    -42.4894496 -0.196639E-02  0.222E-01    1.29       1.0  T
   4    -42.4903595 -0.909901E-03  0.131E-01    1.21       1.0  T
   5    -42.4909709 -0.611368E-03  0.903E-03    1.21       2.2  T
   6    -42.4909713 -0.402490E-06  0.493E-03    1.21       4.1  T
   7    -42.4909713  0.388325E-07  0.273E-03    1.21       7.3  T
   8    -42.4909715 -0.180269E-06  0.109E-03    1.21      18.4  T
   9    -42.4909715 -0.299036E-07  0.516E-04    1.21      38.8  T
  10    -42.4909715 -0.305775E-08  0.243E-04    1.21      82.3  T
     SCC iter.                  ...        0 min,  0.013 sec
     gradient                   ...        0 min,  0.013 sec
 * total energy  :   -41.9955881 Eh     change        0.6292315E-03 Eh
   gradient norm :     0.1261896 Eh/α   predicted    -0.3154030E-02 (-601.25%)
   displ. norm   :     0.3028423 α      lambda       -0.7610691E-02
   maximum displ.:     0.2450086 α      in ANC's #2, #1, #7, ...

........................................................................
.............................. CYCLE   41 ..............................
........................................................................

 iter      E             dE          RMSdq      gap      omega  full diag
   1    -42.4899501 -0.424900E+02  0.199E-01    1.21       0.0  T
   2    -42.4870229  0.292723E-02  0.288E-01    1.07       1.0  T
   3    -42.4897817 -0.275884E-02  0.147E-01    1.22       1.0  T
   4    -42.4903155 -0.533765E-03  0.160E-02    1.17       1.3  T
   5    -42.4903203 -0.476717E-05  0.911E-03    1.17       2.2  T
   6    -42.4903222 -0.191832E-05  0.472E-03    1.17       4.2  T
   7    -42.4903222 -0.688451E-07  0.297E-03    1.17       6.7  T
   8    -42.4903224 -0.133494E-06  0.139E-03    1.17      14.4  T
   9    -42.4903224 -0.482672E-07  0.729E-04    1.17      27.4  T
  10    -42.4903224 -0.966338E-08  0.196E-04    1.17     102.0  T
     SCC iter.                  ...        0 min,  0.013 sec
     gradient                   ...        0 min,  0.013 sec
 * total energy  :   -41.9980115 Eh     change       -0.2423411E-02 Eh
   gradient norm :     0.0369072 Eh/α   predicted    -0.4154351E-02 (  71.43%)
   displ. norm   :     0.3601466 α      lambda       -0.6591910E-02
   maximum displ.:     0.1704635 α      in ANC's #1, #2, #10, ...

........................................................................
.............................. CYCLE   42 ..............................
........................................................................

 iter      E             dE          RMSdq      gap      omega  full diag
   1    -42.5037472 -0.425037E+02  0.327E-01    1.07       0.0  T
   2    -42.5008505  0.289662E-02  0.319E-01    1.24       1.0  T
   3    -42.5002597  0.590884E-03  0.345E-01    1.00       1.0  T
   4    -42.5038357 -0.357607E-02  0.933E-02    1.12       1.0  T
   5    -42.5041934 -0.357651E-03  0.126E-02    1.11       1.6  T
   6    -42.5041942 -0.853007E-06  0.101E-02    1.11       2.0  T
   7    -42.5041944 -0.200908E-06  0.647E-03    1.11       3.1  T
   8    -42.5041955 -0.110691E-05  0.199E-03    1.11      10.0  T
   9    -42.5041956 -0.694046E-07  0.835E-04    1.11      24.0  T
  10    -42.5041956  0.143567E-08  0.547E-04    1.11      36.6  T
     SCC iter.                  ...        0 min,  0.013 sec
     gradient                   ...        0 min,  0.013 sec
 * total energy  :   -41.9987639 Eh     change       -0.7523651E-03 Eh
   gradient norm :     0.0533040 Eh/α   predicted    -0.3723464E-02 ( 394.90%)
   displ. norm   :     0.1697609 α      lambda       -0.4132948E-02
   maximum displ.:     0.0897482 α      in ANC's #2, #1, #14, ...
 * RMSD in coord.:     0.8293257 α      energy gain  -0.8249359E-01 Eh

generating ANC from model Hessian ...
Using Lindh-Hessian (1995)
 Shifting diagonal of input Hessian by    8.6020702477528164E-003
 Lowest  eigenvalues of input Hessian
    0.000000    0.000000    0.000000    0.000000    0.000000    0.000000
    0.010000    0.011205    0.013158    0.016324    0.017944    0.019639
    0.020587    0.021523    0.027443    0.030442    0.033208    0.037516
 Highest eigenvalues
    1.997544    2.060949    2.141380    2.251094    2.419270    3.340086


........................................................................
.............................. CYCLE   43 ..............................
........................................................................

 iter      E             dE          RMSdq      gap      omega  full diag
   1    -42.5033564 -0.425034E+02  0.236E-01    1.27       0.0  T
   2    -42.4965596  0.679678E-02  0.434E-01    1.00       1.0  T
   3    -42.5033968 -0.683723E-02  0.178E-01    1.25       1.0  T
   4    -42.5043183 -0.921420E-03  0.860E-02    1.22       1.0  T
   5    -42.5044547 -0.136478E-03  0.120E-02    1.19       1.7  T
   6    -42.5044578 -0.305186E-05  0.700E-03    1.19       2.9  T
   7    -42.5044586 -0.832538E-06  0.333E-03    1.19       6.0  T
   8    -42.5044588 -0.147194E-06  0.139E-03    1.19      14.4  T
   9    -42.5044588 -0.283931E-07  0.639E-04    1.19      31.3  T
  10    -42.5044588 -0.618756E-08  0.203E-04    1.19      98.8  T
     SCC iter.                  ...        0 min,  0.013 sec
     gradient                   ...        0 min,  0.013 sec
 * total energy  :   -42.0014430 Eh     change       -0.2679083E-02 Eh
   gradient norm :     0.0184918 Eh/α   predicted     0.0000000E+00 (-100.00%)
   displ. norm   :     0.3065005 α      lambda       -0.2615285E-02
   maximum displ.:     0.2420416 α      in ANC's #1, #3, #2, ...

........................................................................
.............................. CYCLE   44 ..............................
........................................................................

 iter      E             dE          RMSdq      gap      omega  full diag
   1    -42.5032672 -0.425033E+02  0.132E-01    1.22       0.0  T
   2    -42.5031902  0.770016E-04  0.919E-02    1.18       1.0  T
   3    -42.5028500  0.340180E-03  0.123E-01    1.26       1.0  T
   4    -42.5030678 -0.217784E-03  0.721E-02    1.19       1.0  T
   5    -42.5033076 -0.239795E-03  0.606E-03    1.21       3.3  T
   6    -42.5033083 -0.700901E-06  0.248E-03    1.21       8.1  T
   7    -42.5033083 -0.114305E-07  0.135E-03    1.20      14.9  T
   8    -42.5033083 -0.375122E-07  0.699E-04    1.20      28.6  T
   9    -42.5033083 -0.117710E-07  0.261E-04    1.21      76.7  T
     SCC iter.                  ...        0 min,  0.012 sec
     gradient                   ...        0 min,  0.013 sec
 * total energy  :   -42.0037628 Eh     change       -0.2319801E-02 Eh
   gradient norm :     0.0193158 Eh/α   predicted    -0.1430501E-02 ( -38.34%)
   displ. norm   :     0.6745899 α      lambda       -0.5868151E-02
   maximum displ.:     0.4515479 α      in ANC's #1, #22, #3, ...

........................................................................
.............................. CYCLE   45 ..............................
........................................................................

 iter      E             dE          RMSdq      gap      omega  full diag
   1    -42.4963394 -0.424963E+02  0.403E-01    1.32       0.0  T
   2    -42.4958931  0.446336E-03  0.250E-01    1.29       1.0  T
   3    -42.4947533  0.113976E-02  0.270E-01    1.30       1.0  T
   4    -42.4952815 -0.528213E-03  0.200E-01    1.39       1.0  T
   5    -42.4968228 -0.154129E-02  0.147E-02    1.31       1.4  T
   6    -42.4968238 -0.102115E-05  0.945E-03    1.31       2.1  T
   7    -42.4968243 -0.424460E-06  0.550E-03    1.31       3.6  T
   8    -42.4968247 -0.406148E-06  0.247E-03    1.31       8.1  T
   9    -42.4968248 -0.154316E-06  0.113E-03    1.31      17.8  T
  10    -42.4968249 -0.180504E-07  0.453E-04    1.31      44.2  T
  11    -42.4968249 -0.207945E-08  0.243E-04    1.31      82.2  T
     SCC iter.                  ...        0 min,  0.015 sec
     gradient                   ...        0 min,  0.013 sec
 * total energy  :   -42.0079220 Eh     change       -0.4159209E-02 Eh
   gradient norm :     0.0713116 Eh/α   predicted    -0.4269318E-02 (   2.65%)
   displ. norm   :     0.3444694 α      lambda       -0.3992677E-02
   maximum displ.:     0.1674273 α      in ANC's #1, #22, #10, ...

........................................................................
.............................. CYCLE   46 ..............................
........................................................................

 iter      E             dE          RMSdq      gap      omega  full diag
   1    -42.4952271 -0.424952E+02  0.234E-01    1.43       0.0  T
   2    -42.4948090  0.418074E-03  0.177E-01    1.36       1.0  T
   3    -42.4945172  0.291786E-03  0.195E-01    1.48       1.0  T
   4    -42.4945292 -0.119254E-04  0.144E-01    1.37       1.0  T
   5    -42.4954721 -0.942906E-03  0.932E-03    1.41       2.1  T
   6    -42.4954731 -0.106944E-05  0.555E-03    1.41       3.6  T
   7    -42.4954734 -0.242158E-06  0.256E-03    1.41       7.8  T
   8    -42.4954735 -0.932090E-07  0.142E-03    1.41      14.0  T
   9    -42.4954735 -0.514626E-07  0.681E-04    1.41      29.4  T
  10    -42.4954735 -0.660528E-08  0.284E-04    1.41      70.5  T
     SCC iter.                  ...        0 min,  0.013 sec
     gradient                   ...        0 min,  0.013 sec
 * total energy  :   -42.0114069 Eh     change       -0.3484907E-02 Eh
   gradient norm :     0.0822661 Eh/α   predicted    -0.2233242E-02 ( -35.92%)
   displ. norm   :     0.5732260 α      lambda       -0.1531253E-01
   maximum displ.:     0.2655472 α      in ANC's #22, #10, #14, ...

........................................................................
.............................. CYCLE   47 ..............................
........................................................................

 iter      E             dE          RMSdq      gap      omega  full diag
   1    -42.5038205 -0.425038E+02  0.390E-01    1.76       0.0  T
   2    -42.5034362  0.384308E-03  0.280E-01    1.71       1.0  T
   3    -42.5035900 -0.153780E-03  0.243E-01    1.82       1.0  T
   4    -42.5027792  0.810835E-03  0.210E-01    1.66       1.0  T
   5    -42.5046767 -0.189754E-02  0.239E-02    1.76       1.0  T
   6    -42.5046901 -0.134220E-04  0.103E-02    1.76       1.9  T
   7    -42.5046909 -0.757194E-06  0.608E-03    1.75       3.3  T
   8    -42.5046910 -0.115976E-06  0.305E-03    1.75       6.6  T
   9    -42.5046913 -0.269533E-06  0.107E-03    1.75      18.7  T
  10    -42.5046913 -0.101266E-07  0.609E-04    1.75      32.8  T
  11    -42.5046913 -0.459449E-08  0.236E-04    1.75      84.8  T
     SCC iter.                  ...        0 min,  0.015 sec
     gradient                   ...        0 min,  0.013 sec
 * total energy  :   -42.0233651 Eh     change       -0.1195825E-01 Eh
   gradient norm :     0.0862151 Eh/α   predicted    -0.1017220E-01 ( -14.94%)
   displ. norm   :     0.4485667 α      lambda       -0.2431580E-01
   maximum displ.:     0.1642056 α      in ANC's #49, #22, #61, ...

........................................................................
.............................. CYCLE   48 ..............................
........................................................................

 iter      E             dE          RMSdq      gap      omega  full diag
   1    -42.5372763 -0.425373E+02  0.342E-01    2.05       0.0  T
   2    -42.5373113 -0.349398E-04  0.247E-01    2.09       1.0  T
   3    -42.5374685 -0.157230E-03  0.194E-01    2.03       1.0  T
   4    -42.5375139 -0.453851E-04  0.111E-01    2.09       1.0  T
   5    -42.5380215 -0.507622E-03  0.243E-02    2.06       1.0  T
[...]
H            3.92694519445943        1.11079711905342       -0.84445523221513
H            2.52917665920481        2.09175047290351       -0.33041656240778
H            3.78627328253130       -1.49168091369099        0.11101463855471
H           -1.74404141720322        2.76789976309932        0.54937717221509
H           -4.15889565086875        2.20155124607960       -0.79433441900996
H           -2.96219190346851        1.51441702325037        1.04224935437320
H           -0.98389209082897       -3.36149121967323        0.96606740191213
H           -1.01304920298959       -3.43956046112559       -0.81347947507931
H           -2.41198167548938       -2.80745828223873        0.07227282907434
H            1.78505971164765       -3.07106101298207        0.16618629522462

 Bond Distances (Angstroems)
 ---------------------------
C1-N2=1.4395         C1-H15=1.0910        C1-H16=1.0893        C1-H17=1.0892        N2-C1=1.4395         N2-C3=1.3337         
N2-C6=1.3770         C3-N2=1.3337         C3-N4=1.3585         C3-H18=1.0713        N4-C3=1.3585         N4-C5=1.3479         
N4-H25=1.0101        C5-N4=1.3479         C5-C6=1.4047         C5-N13=1.3933        C6-N2=1.3770         C6-C5=1.4047         
C6-C7=1.4868         C7-C6=1.4868         C7-O8=1.2082         C7-N9=1.4231         O8-C7=1.2082         N9-C7=1.4231         
N9-C10=1.6607        N9-C11=1.3415        C10-N9=1.6607        C10-O12=1.4264       C10-H19=1.0911       C10-H21=1.0915       
C11-N9=1.3415        C11-N13=1.3673       O12-C10=1.4264       O12-H20=0.9661       N13-C5=1.3933        N13-C11=1.3673       
N13-C14=1.4534       C14-N13=1.4534       C14-H22=1.0909       C14-H23=1.0911       C14-H24=1.0867       H15-C1=1.0910        
H16-C1=1.0893        H17-C1=1.0892        H18-C3=1.0713        H19-C10=1.0911       H20-O12=0.9661       H21-C10=1.0915       
H22-C14=1.0909       H23-C14=1.0911       H24-C14=1.0867       H25-N4=1.0101        
 C  H  Rav=1.0880 sigma=0.0061  Rmin=1.0713  Rmax=1.0915     9
 C  C  Rav=1.4457 sigma=0.0410  Rmin=1.4047  Rmax=1.4868     2
 N  H  Rav=1.0101 sigma=0.0000  Rmin=1.0101  Rmax=1.0101     1
 N  C  Rav=1.4087 sigma=0.0884  Rmin=1.3337  Rmax=1.6607    11
 O  H  Rav=0.9661 sigma=0.0000  Rmin=0.9661  Rmax=0.9661     1
 O  C  Rav=1.3173 sigma=0.1091  Rmin=1.2082  Rmax=1.4264     2

 selected bond angles (degree)
 --------------------
H15-C1-N2=110.16               H16-C1-N2=110.24               H16-C1-H15=108.84              H17-C1-N2=108.87               
H17-C1-H15=108.83              H17-C1-H16=109.88              C3-N2-C1=125.34                C6-N2-C1=126.52                
C6-N2-C3=108.14                N4-C3-N2=110.39                H18-C3-N2=125.29               H18-C3-N4=124.32               
C5-N4-C3=107.04                H25-N4-C3=125.51               H25-N4-C5=127.45               C6-C5-N4=108.63                
N13-C5-N4=139.32               N13-C5-C6=112.05               C5-C6-N2=105.80                C7-C6-N2=127.93                
C7-C6-C5=126.25                O8-C7-C6=123.20                N9-C7-C6=114.00                N9-C7-O8=122.77                
C10-N9-C7=116.24               C11-N9-C7=119.46               C11-N9-C10=121.61              O12-C10-N9=133.29              
H19-C10-N9= 98.66              H19-C10-O12=103.68             H21-C10-N9= 98.42              H21-C10-O12=109.61             
H21-C10-H19=112.62             

 selected dihedral angles (degree)
 ---------------------------------
C3-N2-C1-H15=290.83           C3-N2-C1-H16= 50.96           C3-N2-C1-H17=171.56           C6-N2-C1-H15=109.85           
C6-N2-C1-H16=229.98           C6-N2-C1-H17=350.59           N4-C3-N2-C1=179.04            N4-C3-N2-C6=359.87            
H18-C3-N2-C1=358.92           H18-C3-N2-C6=179.74           C5-N4-C3-N2=  0.00            C5-N4-C3-H18=180.12           
H25-N4-C3-N2=179.42           H25-N4-C3-H18=359.55          C6-C5-N4-C3=  0.13            C6-C5-N4-H25=180.72           
N13-C5-N4-C3=180.49           N13-C5-N4-H25=  1.08          C5-C6-N2-C1=181.04            C5-C6-N2-C3=  0.20            
C7-C6-N2-C1=359.46            C7-C6-N2-C3=178.62            N2-C6-C5-N4=359.79            N2-C6-C5-N13=179.54           
C7-C6-C5-N4=181.34            C7-C6-C5-N13=  1.08           O8-C7-C6-N2=359.84            O8-C7-C6-C5=177.95            
N9-C7-C6-N2=181.59            N9-C7-C6-C5=359.71            C10-N9-C7-C6=161.87           C10-N9-C7-O8=343.62           
C11-N9-C7-C6=  0.11           C11-N9-C7-O8=181.85           O12-C10-N9-C7=107.56          O12-C10-N9-C11=268.90         
H19-C10-N9-C7=349.39          H19-C10-N9-C11=150.73         H21-C10-N9-C7=234.82          H21-C10-N9-C11= 36.16         
           -------------------------------------------------
          |                Final Singlepoint                |
           -------------------------------------------------

          ...................................................
          :                      SETUP                      :
          :.................................................:
          :  # basis functions                  67          :
          :  # atomic orbitals                  67          :
          :  # shells                           39          :
          :  # electrons                        74          :
          :  max. iterations                   250          :
          :  Hamiltonian                  GFN2-xTB          :
          :  restarted?                      false          :
          :  GBSA solvation                  false          :
          :  PC potential                    false          :
          :  electronic temp.         5000.0000000     K    :
          :  accuracy                    1.0000000          :
          :  -> integral cutoff          0.2500000E+02      :
          :  -> integral neglect         0.1000000E-07      :
          :  -> SCF convergence          0.1000000E-05 Eh   :
          :  -> wf. convergence          0.1000000E-03 e    :
          :  Broyden damping             0.4000000          :
          ...................................................

 iter      E             dE          RMSdq      gap      omega  full diag
   1    -42.5960284 -0.425960E+02  0.749E-05    2.06       0.0  T
   2    -42.5960284 -0.344187E-10  0.497E-05    2.06     402.0  T
   3    -42.5960284 -0.285709E-10  0.297E-05    2.06     672.3  T

   *** convergence criteria satisfied after 3 iterations ***

         #    Occupation            Energy/Eh            Energy/eV
      -------------------------------------------------------------
         1        2.0000           -0.9040720             -24.6011
       ...           ...                  ...                  ...
        31        1.9998           -0.6123119             -16.6619
        32        1.9995           -0.6015612             -16.3693
        33        1.9989           -0.5871188             -15.9763
        34        1.9957           -0.5660036             -15.4017
        35        1.9928           -0.5580774             -15.1861
        36        1.9880           -0.5498507             -14.9622
        37        1.8218           -0.5057598             -13.7624 (HOMO)
        38        0.1570           -0.4299482             -11.6995 (LUMO)
        39        0.0375           -0.4062905             -11.0557
        40        0.0094           -0.3841569             -10.4534
        41        0.0001           -0.3180531              -8.6547
        42        0.0000           -0.2901780              -7.8961
       ...           ...                  ...                  ...
        67                          0.5093023              13.8588
      -------------------------------------------------------------
                  HL-Gap            0.0758116 Eh            2.0629 eV
             Fermi-level           -0.4689510 Eh          -12.7608 eV

 SCC (total)                   0 d,  0 h,  0 min,  0.023 sec
 SCC setup                      ...        0 min,  0.000 sec (  0.878%)
 Dispersion                     ...        0 min,  0.000 sec (  0.754%)
 classical contributions        ...        0 min,  0.000 sec (  0.320%)
 integral evaluation            ...        0 min,  0.005 sec ( 19.684%)
 iterations                     ...        0 min,  0.005 sec ( 20.015%)
 molecular gradient             ...        0 min,  0.013 sec ( 57.842%)
 printout                       ...        0 min,  0.000 sec (  0.457%)

         :::::::::::::::::::::::::::::::::::::::::::::::::::::
         ::                     SUMMARY                     ::
         :::::::::::::::::::::::::::::::::::::::::::::::::::::
         :: total energy             -42.118095443134 Eh    ::
         :: gradient norm              0.001400484902 Eh/a0 ::
         :: HOMO-LUMO gap              2.062939140054 eV    ::
         ::.................................................::
         :: SCC energy               -42.596028447782 Eh    ::
         :: -> isotropic ES            0.124739500983 Eh    ::
         :: -> anisotropic ES         -0.005677521406 Eh    ::
         :: -> anisotropic XC          0.014327622983 Eh    ::
         :: -> dispersion             -0.021662727123 Eh    ::
         :: repulsion energy           0.476135106546 Eh    ::
         :: add. restraining           0.001731145911 Eh    ::
         :: total charge               0.999999999945 e     ::
         :::::::::::::::::::::::::::::::::::::::::::::::::::::

           -------------------------------------------------
          |                Property Printout                |
           -------------------------------------------------

    * Orbital Energies and Occupations

         #    Occupation            Energy/Eh            Energy/eV
      -------------------------------------------------------------
         1        2.0000           -0.9040720             -24.6011
       ...           ...                  ...                  ...
        25        2.0000           -0.6661656             -18.1273
        26        2.0000           -0.6511754             -17.7194
        27        2.0000           -0.6464887             -17.5919
        28        1.9999           -0.6269309             -17.0597
        29        1.9999           -0.6199658             -16.8701
        30        1.9998           -0.6175319             -16.8039
        31        1.9998           -0.6123119             -16.6619
        32        1.9995           -0.6015612             -16.3693
        33        1.9989           -0.5871188             -15.9763
        34        1.9957           -0.5660036             -15.4017
        35        1.9928           -0.5580774             -15.1861
        36        1.9880           -0.5498507             -14.9622
        37        1.8218           -0.5057598             -13.7624 (HOMO)
        38        0.1570           -0.4299482             -11.6995 (LUMO)
        39        0.0375           -0.4062905             -11.0557
        40        0.0094           -0.3841569             -10.4534
        41        0.0001           -0.3180531              -8.6547
        42        0.0000           -0.2901780              -7.8961
        43        0.0000           -0.2055258              -5.5926
        44                         -0.1766360              -4.8065
        45                         -0.1382432              -3.7618
        46                         -0.0925788              -2.5192
        47                         -0.0670821              -1.8254
        48                         -0.0589755              -1.6048
       ...                                ...                  ...
        67                          0.5093023              13.8588
      -------------------------------------------------------------
                  HL-Gap            0.0758116 Eh            2.0629 eV
             Fermi-level           -0.4689510 Eh          -12.7608 eV

     #   Z          covCN         q      C6AA      α(0)
     1   6 C        3.691    -0.092    22.456     6.781
     2   7 N        2.828     0.074    19.960     6.635
     3   6 C        3.072     0.045    26.911     8.506
     4   7 N        2.769    -0.050    22.215     7.000
     5   6 C        3.053     0.101    25.718     8.317
     6   6 C        3.094    -0.011    28.185     8.701
     7   6 C        2.763     0.268    22.479     7.764
     8   8 O        0.857    -0.367    21.039     6.150
     9   7 N        2.681    -0.070    22.601     7.061
    10   6 C        3.554     0.116    19.557     6.458
    11   6 C        1.865    -0.068    32.982     9.276
    12   8 O        1.653    -0.362    20.130     6.057
    13   7 N        2.748     0.013    21.028     6.811
    14   6 C        3.705    -0.077    22.122     6.724
    15   1 H        0.924     0.105     1.744     2.065
    16   1 H        0.925     0.101     1.772     2.081
    17   1 H        0.925     0.137     1.483     1.905
    18   1 H        0.926     0.119     1.623     1.992
    19   1 H        0.924     0.124     1.580     1.965
    20   1 H        0.805     0.319     0.667     1.283
    21   1 H        0.924     0.082     1.961     2.190
    22   1 H        0.924     0.077     2.014     2.219
    23   1 H        0.924     0.079     1.993     2.208
    24   1 H        0.925     0.113     1.673     2.022
    25   1 H        0.860     0.227     0.980     1.551

 Mol. C6AA /au·bohr⁶  :       6571.794263
 Mol. C8AA /au·bohr⁸  :     151601.225157
 Mol. α(0) /au        :        123.722580


Wiberg/Mayer (AO) data.
largest (>0.10) Wiberg bond orders for each atom

 ---------------------------------------------------------------------------
     #   Z sym  total        # sym  WBO       # sym  WBO       # sym  WBO
 ---------------------------------------------------------------------------
     1   6 C    3.917 --     2 N    0.986    16 H    0.964    17 H    0.958
                            15 H    0.957
     2   7 N    3.658 --     3 C    1.374     6 C    1.171     1 C    0.986
     3   6 C    3.817 --     2 N    1.374     4 N    1.254    18 H    0.954
     4   7 N    3.581 --     3 C    1.254     5 C    1.216    25 H    0.920
     5   6 C    3.928 --     6 C    1.364     4 N    1.216    13 N    1.139
     6   6 C    3.909 --     5 C    1.364     2 N    1.171     7 C    1.055
     7   6 C    3.915 --     8 O    1.707     9 N    1.065     6 C    1.055
     8   8 O    2.032 --     7 C    1.707     9 N    0.127
     9   7 N    3.580 --    11 C    1.395     7 C    1.065    10 C    0.827
                             8 O    0.127
    10   6 C    3.903 --    12 O    1.099    21 H    0.966    19 H    0.957
                             9 N    0.827
    11   6 C    2.872 --     9 N    1.395    13 N    1.286
    12   8 O    2.082 --    10 C    1.099    20 H    0.886
    13   7 N    3.606 --    11 C    1.286     5 C    1.139    14 C    0.985
    14   6 C    3.939 --    13 N    0.985    24 H    0.973    22 H    0.972
                            23 H    0.972
    15   1 H    0.985 --     1 C    0.957
    16   1 H    0.986 --     1 C    0.964
    17   1 H    0.981 --     1 C    0.958
    18   1 H    0.985 --     3 C    0.954
    19   1 H    0.984 --    10 C    0.957
    20   1 H    0.898 --    12 O    0.886
    21   1 H    0.990 --    10 C    0.966
    22   1 H    0.991 --    14 C    0.972
    23   1 H    0.991 --    14 C    0.972
    24   1 H    0.987 --    14 C    0.973
    25   1 H    0.948 --     4 N    0.920
 ---------------------------------------------------------------------------

Topologies differ in total number of bonds
Writing topology from bond orders to xtbtopo.mol

molecular dipole:
                 x           y           z       tot (Debye)
 q only:        1.597      -2.498       0.390
   full:        2.108      -3.122       0.371       9.621
molecular quadrupole (traceless):
                xx          xy          yy          xz          yz          zz
 q only:       25.338      -5.216      -3.192      -0.335       1.510     -22.146
  q+dip:       25.589      -8.448      -5.263       0.122       1.672     -20.327
   full:       24.433      -7.756      -6.191       0.222       1.964     -18.243

           -------------------------------------------------
          |                Geometry Summary                 |
           -------------------------------------------------

      molecular mass/u    :      195.1988581
   center of mass at/Å    :        0.0177941       0.1159320      -0.0716963
  moments of inertia/u·Å² :        0.4866729E+03   0.9103884E+03   0.1378583E+04
rotational constants/cm⁻¹ :        0.3463853E-01   0.1851697E-01   0.1222823E-01

 * 23 selected distances

     #   Z          #   Z                                           value/Å
     1   6 C        2   7 N                                       1.4395365
     2   7 N        3   6 C                                       1.3337326
     3   6 C        4   7 N                                       1.3585008
     4   7 N        5   6 C                                       1.3479286
     2   7 N        6   6 C                                       1.3770429
     5   6 C        6   6 C                                       1.4046589
     7   6 C        8   8 O                                       1.2081679
     9   7 N       11   6 C                                       1.3414971
    10   6 C       12   8 O                                       1.4264240
     5   6 C       13   7 N                                       1.3932785
    11   6 C       13   7 N                                       1.3672906
    13   7 N       14   6 C                                       1.4533614 (max)
     1   6 C       15   1 H                                       1.0910201
     1   6 C       16   1 H                                       1.0893357
     1   6 C       17   1 H                                       1.0892437
     3   6 C       18   1 H                                       1.0713446
    10   6 C       19   1 H                                       1.0911213
    12   8 O       20   1 H                                       0.9661103 (min)
    10   6 C       21   1 H                                       1.0914916
    14   6 C       22   1 H                                       1.0909420
    14   6 C       23   1 H                                       1.0910797
    14   6 C       24   1 H                                       1.0867019
     4   7 N       25   1 H                                       1.0101039

 * 6 distinct bonds (by element types)

   Z      Z             #   av. dist./Å        max./Å        min./Å
   1 H    6 C           9     1.0880312     1.0914916     1.0713446
   6 C    6 C           1     1.4046589     1.4046589     1.4046589
   1 H    7 N           1     1.0101039     1.0101039     1.0101039
   6 C    7 N           9     1.3791299     1.4533614     1.3337326
   1 H    8 O           1     0.9661103     0.9661103     0.9661103
   6 C    8 O           2     1.3172959     1.4264240     1.2081679


optimized geometry written to: xtbopt.xyz


           -------------------------------------------------
          | TOTAL ENERGY              -42.118095443134 Eh   |
          | GRADIENT NORM               0.001400484902 Eh/α |
          | HOMO-LUMO GAP               2.062939140054 eV   |
           -------------------------------------------------

------------------------------------------------------------------------
 * finished run on 2024/06/05 at 19:57:55.829     
------------------------------------------------------------------------
 total:
 * wall-time:     0 d,  0 h,  0 min,  2.255 sec
 *  cpu-time:     0 d,  0 h,  0 min,  2.238 sec
 * ratio c/w:     0.993 speedup
 SCF:
 * wall-time:     0 d,  0 h,  0 min,  0.037 sec
 *  cpu-time:     0 d,  0 h,  0 min,  0.036 sec
 * ratio c/w:     0.997 speedup
 ANC optimizer:
 * wall-time:     0 d,  0 h,  0 min,  2.195 sec
 *  cpu-time:     0 d,  0 h,  0 min,  2.190 sec
 * ratio c/w:     0.998 speedup

