25
 energy: 0.000000000000 xtb: 6.6.1 (8d0f1dd)
C            3.23720132972391        1.16630909158653        0.08434468864950
N            2.29877796055224        0.07527476373246        0.03981602671198
C            2.58028186251803       -1.21425391179017        0.03006175752192
N            1.43813944744728       -1.93419254010258        0.00098261751768
C            0.39035684826767       -1.05887462812143       -0.00790371763344
C            0.93510047688824        0.21347817468824        0.01709077332874
C            0.09450143016486        1.40504290868848       -0.00410946993748
O            0.49712746915594        2.54126690785742       -0.00342325656480
N           -1.25076628431515        1.06271869620815       -0.03085477937476
C           -2.21907191394203        2.15522079838987       -0.05001256521996
C           -1.81739470187490       -0.20012724136556       -0.04692818139228
O           -2.99983858926755       -0.37846413507442       -0.07008877579474
N           -0.92618577614240       -1.30210203518959       -0.03682761236648
C           -1.46982251276835       -2.64643077634382       -0.06029819901142
H            3.71247229913541        1.21471443890471        1.06488839270555
H            4.00791460421487        1.03430799217987       -0.67357688121503
H            2.69909982127087        2.09770098766290       -0.09130154035862
H            3.56654087521359       -1.63682977417947        0.04233139674524
H           -1.67107945562430        3.09322822573871       -0.02552706696334
H           -2.82428927394145        2.09428605349656       -0.95318074103337
H           -2.87644002486466        2.07745706351925        0.81450059976605
H           -1.17061985538665       -3.19584861009707        0.83242224714061
H           -1.14560246782873       -3.17511580834413       -0.95688266944647
H           -2.55549768731684       -2.55659960601237       -0.07459039105944
H            1.38130842369251       -2.94313824728853       -0.01389874052104
25
 energy: -3.915164036737 xtb: 6.6.1 (8d0f1dd)
C            3.25507132769117        1.17923429721450        0.06977945713058
N            2.31578046140997        0.08446247612922        0.03397475089870
C            2.59590661209620       -1.24709768493929        0.04141176021424
N            1.42052971113346       -1.95219104126562        0.01714026781901
C            0.39202554174420       -1.06585028257030        0.00196643855127
C            0.93339523236811        0.21092455660897        0.02814182128825
C            0.10473442881346        1.38521004275250        0.00582836070916
O            0.50453360306744        2.54919053042759        0.00758247341688
N           -1.25860354275519        1.04608540679295       -0.03142078098970
C           -2.21569906098784        2.14593319189694       -0.06006575372940
C           -1.82591191993786       -0.20323206897734       -0.05134926171027
O           -3.02283457756881       -0.38119337170488       -0.08337748083170
N           -0.94044298789340       -1.30676577950284       -0.03428623425479
C           -1.48707593818833       -2.64634861570332       -0.06071401002087
H            3.79806550960580        1.16126012490362        1.01460000097151
H            4.01772807246755        1.24743537118278       -0.74875528238900
H            2.67945341361605        2.10052293381023       -0.00023877777153
H            3.56919759572518       -1.68025429019576        0.07388114372858
H           -1.65392291613082        3.07727190338384       -0.03851642526600
H           -2.81865537662728        2.08951223399116       -0.96596916680857
H           -2.87725957192976        2.08224415297371        0.80326767873956
H           -1.19272916459520       -3.19961208986690        0.83304643697215
H           -1.15893919797797       -3.18019662112175       -0.95476463006299
H           -2.57224931179783       -2.55104506685037       -0.08052110325460
H            1.35011636162413       -2.95647152062562        0.00639222884406
25
 energy: 4.813225620719 xtb: 6.6.1 (8d0f1dd)
C            3.27549907497773        1.19478081135754        0.04885615485714
N            2.34080510426088        0.09120296399839        0.01919814628042
C            2.60899519236033       -1.28740417757447        0.06250837032288
N            1.39676194720951       -1.96961644872099        0.04415605211107
C            0.39411320381820       -1.07450626975525        0.01755408568046
C            0.93379625047011        0.20743528107269        0.03554314705435
C            0.12103599481916        1.35372662057776        0.01631002059986
O            0.50399156717711        2.54178601158508        0.02754967059952
N           -1.26885669773651        1.02590353010134       -0.03430378138838
C           -2.20919057326630        2.13627464495826       -0.07594057865857
C           -1.83045788259433       -0.20681970718551       -0.05961423956259
O           -3.03700843106158       -0.38548759927528       -0.10504678140054
N           -0.95696192837957       -1.31126767458281       -0.02986424197684
C           -1.51001455383405       -2.64555605425299       -0.06081354250772
H            3.94520652134851        1.05653037541732        0.92080826999260
H            4.00122100735825        1.57145674704770       -0.86580627063855
H            2.64651361733053        2.10350716351993        0.15946712949142
H            3.56410350764174       -1.73733836207026        0.13362776176153
H           -1.63058832033635        3.05895807708451       -0.05971542995143
H           -2.80955176069746        2.08217045077397       -0.98460318892520
H           -2.87693465119918        2.09117884131354        0.78492806326855
H           -1.22800236185728       -3.20603559824522        0.83453268307510
H           -1.17998585147084       -3.18815699407139       -0.95124422213370
H           -2.59492829885266       -2.54261948906532       -0.08982736571454
H            1.31265262748637       -2.97107435526447        0.03877399995768
25
 energy: 19.184441886475 xtb: 6.6.1 (8d0f1dd)
C            3.28929084687805        1.21375758286747        0.02809569769892
N            2.35809948063446        0.09637929642471        0.00391319747103
C            2.61135992648093       -1.30961351267656        0.07951343860309
N            1.38348533631930       -1.97955585537803        0.06989195743068
C            0.39319539322967       -1.08294333015317        0.02910262242773
C            0.93589859473560        0.20250961855174        0.03391328129816
C            0.12887390488074        1.33600267441657        0.02617011480965
O            0.49548838250147        2.53225376239826        0.05438302778019
N           -1.27660657800908        1.01429734548556       -0.03508917633552
C           -2.20499680733031        2.12991809947118       -0.08845852708544
C           -1.83420782627002       -0.21305176784863       -0.06809144420707
O           -3.04341837143482       -0.39329843966367       -0.12561838509390
N           -0.96661376284408       -1.31738197236057       -0.02625738387723
C           -1.52997234446200       -2.64761164248439       -0.06273258657225
H            4.08194138909435        0.96595260085684        0.79872635862456
H            3.96589211254031        1.82943508108597       -0.94163123849956
H            2.65066467484185        2.10089036406564        0.30555301368640
H            3.55405444265804       -1.77820245591216        0.19836450856899
H           -1.61371126045766        3.04470827401576       -0.07726232073733
H           -2.80196339118048        2.07338597477815       -0.99943023410790
H           -2.87673286189229        2.09824249586319        0.77010597596521
H           -1.26376004199136       -3.21462800233911        0.83398350849304
H           -1.20131396779271       -3.19565169885605       -0.95100350306911
H           -2.61483484097659       -2.53497697279159       -0.10098913245226
H            1.29210187481887       -2.98178873107302        0.07188114137443
25
 energy: 30.031452864402 xtb: 6.6.1 (8d0f1dd)
C            3.30021775221167        1.22247302750913        0.01655787401167
N            2.36716532496228        0.09689275401251       -0.00424023914083
C            2.60532997850532       -1.31753190176016        0.09031074838255
N            1.37852848200652       -1.98404057239552        0.08965286494453
C            0.38885885988480       -1.09034570209198        0.03473637645070
C            0.93857419847341        0.19526207158819        0.02451993349215
C            0.12980138549421        1.32959799785541        0.03519099245759
O            0.48381858503575        2.51935139476413        0.08366313336339
N           -1.28103920190939        1.00953194716077       -0.03234995890572
C           -2.20311026111973        2.12641478128063       -0.09443063790967
C           -1.83754416612314       -0.22007717996823       -0.07409498042887
O           -3.04375627626476       -0.40011701273082       -0.14127570459677
N           -0.97124386837584       -1.32390047768660       -0.02394889109621
C           -1.54591833692240       -2.65160009386478       -0.06608173656844
H            4.15992512718075        0.91897118491575        0.67140183960585
H            3.94588005084693        2.02869079170617       -0.96839041401062
H            2.69978707192331        2.06959973943831        0.39469773907927
H            3.53781812446594       -1.80177912273533        0.25962165795938
H           -1.60535788409588        3.03600657168754       -0.08755528739399
H           -2.79792156245711        2.06513639949610       -1.00630368759733
H           -2.87653201609144        2.10364244142617        0.76253739816975
H           -1.29463249328227       -3.22364456556788        0.83114419338720
H           -1.22068088885199       -3.20172422721950       -0.95368703316613
H           -2.63058992856285       -2.52912873618754       -0.11133051632931
H            1.28483624803799       -2.98865272188841        0.09668824803442
25
 energy: 37.820397234410 xtb: 6.6.1 (8d0f1dd)
C            3.30398453269680        1.21187122645450        0.01861112927964
N            2.36501981931536        0.09055112907519        0.00514595460134
C            2.59390088621005       -1.31138536654609        0.08765871349833
N            1.38083953360523       -1.98369386996745        0.10251349643466
C            0.38136940637524       -1.09474902448486        0.03732537798058
C            0.93948028954996        0.18686300961788        0.01789547022595
C            0.12709191303611        1.33367457223936        0.03972618676015
O            0.47765040265456        2.50726994124483        0.09944375966219
N           -1.27906170331729        1.01067365342880       -0.03167295021378
C           -2.20235808538210        2.12590572116130       -0.10322156590751
C           -1.84015588660329       -0.22486089609009       -0.07704286581656
O           -3.04120144330757       -0.40025586244310       -0.15261504536145
N           -0.97159165825022       -1.32845049602702       -0.02095133921534
C           -1.55328719918231       -2.65582440009002       -0.06437606970042
H            4.20624727599727        0.86460885571186        0.54385863280081
H            3.92011720825883        2.18647723317376       -0.98610791053968
H            2.75382315667764        2.01757702529962        0.49813440926356
H            3.51792187357349       -1.79959924489202        0.29708833049999
H           -1.60759312248587        3.03604610816993       -0.10081041241758
H           -2.79614229398083        2.05748643054640       -1.01503528030144
H           -2.87679594732866        2.10932793077290        0.75256668147587
H           -1.31035814772963       -3.22608331811988        0.83439407085590
H           -1.22897370116140       -3.20650320573939       -0.95061742169900
H           -2.63732930181238       -2.52767430104431       -0.11360539149998
H            1.28961649756310       -2.99022406270800        0.10872795152825
25
 energy: 43.961606496811 xtb: 6.6.1 (8d0f1dd)
C            3.29682244338126        1.18784762939442        0.02968853742781
N            2.35304410480360        0.08218068527326        0.03381806859444
C            2.58087076871179       -1.29789373282307        0.08684440258711
N            1.38127393520052       -1.98047252021881        0.10903793749358
C            0.37213035206276       -1.09538783674247        0.03965796403901
C            0.93520670671323        0.18137094598735        0.02038375212094
C            0.12177850040822        1.33903866276492        0.03724306205316
O            0.47417628660759        2.50109595819761        0.10679160054526
N           -1.27523317324428        1.01168705198486       -0.03644013566553
C           -2.20311420561046        2.12554097566178       -0.11205913135188
C           -1.84276533731191       -0.22718999999709       -0.08017606123631
O           -3.03973223503656       -0.39627033312922       -0.15963534851571
N           -0.97282903687266       -1.33015860445202       -0.01979929600866
C           -1.55466368140331       -2.65907511092280       -0.06042970319194
H            4.24650760250849        0.80238210324281        0.43069299823000
H            3.89938737174120        2.30686474404602       -0.99714541690266
H            2.81037121598418        1.96944664750791        0.58274384002194
H            3.50173556486603       -1.78078629371347        0.31789769288672
H           -1.61474798995853        3.03975181315703       -0.11282683924157
H           -2.79673660305195        2.05190670991368       -1.02337187670639
H           -2.87785205136633        2.11100757339700        0.74342123282877
H           -1.31215349711766       -3.22409207929477        0.84056352661670
H           -1.22751664555959       -3.21015227654446       -0.94447749178024
H           -2.63810924936974       -2.53187829909513       -0.11163614359160
H            1.29436315788621       -2.98773562485122        0.10624674094158
25
 energy: 51.910172351926 xtb: 6.6.1 (8d0f1dd)
C            3.28544086927214        1.14710671097136        0.04146575536216
N            2.34150738309987        0.06397544323001        0.06488369373063
C            2.56799442607389       -1.28970143438046        0.09050964160802
N            1.37854638242570       -1.98279828973834        0.11326142409355
C            0.36362793752096       -1.09806555242560        0.04130007274357
C            0.93320274452590        0.17276382609779        0.02480715972725
C            0.11831723570443        1.34153804119217        0.03442970317410
O            0.47543639045904        2.49348359326522        0.10954935455029
N           -1.26815322628688        1.01273163574049       -0.04289652889356
C           -2.20121821784297        2.12632164653623       -0.11862396234876
C           -1.84349169803454       -0.22799774060445       -0.08235021241587
O           -3.03692482170481       -0.38974752847769       -0.16253565360913
N           -0.97472890768159       -1.33109053188367       -0.01970134434024
C           -1.55694296024144       -2.66111725453385       -0.05564664460064
H            4.23449175546347        0.75898425872197        0.32205177220132
H            3.91315340366287        2.46540748751148       -1.00274860792451
H            2.86862510201118        1.90939978990183        0.64606755673570
H            3.48888026212052       -1.76743762265682        0.33316434246729
H           -1.61878348098369        3.04475523739790       -0.12109118154412
H           -2.79553853353197        2.04964545968624       -1.02892904245615
H           -2.87539129804682        2.11106725356553        0.73725236964266
H           -1.31226685838586       -3.22123863744366        0.84741878021234
H           -1.22779387035322       -3.21307886415664       -0.93779487193255
H           -2.63990551907953       -2.53549066365745       -0.10731611417028
H            1.29412980480538       -2.99038747511549        0.10050645018139
25
 energy: 60.147490665741 xtb: 6.6.1 (8d0f1dd)
C            3.26009044276117        1.08830074315563        0.06524660735755
N            2.32165879813413        0.03912678367976        0.11600245168026
C            2.55081047582613       -1.28416687391209        0.10643138556988
N            1.36950351088061       -1.99139639554625        0.12191104520671
C            0.35195337847125       -1.10343866366764        0.04897183388593
C            0.92611074251099        0.16122856603413        0.04542397905772
C            0.11110411911350        1.34282244557886        0.03530369406784
O            0.47696288049106        2.48657057100232        0.10741106976769
N           -1.26274516383167        1.01384493129475       -0.05358508741521
C           -2.20108684061307        2.12815962061247       -0.13147359715679
C           -1.84648456343203       -0.22843257166090       -0.08584569585621
O           -3.03820938233482       -0.38233566238205       -0.16774810518886
N           -0.98089928725729       -1.33250473281842       -0.01951253438880
C           -1.56020646264810       -2.66394945328343       -0.05021516977835
H            4.26931461929045        0.67685135518234        0.17689195602905
H            3.93702217849329        2.70720450480042       -1.02807947138412
H            2.93644300606042        1.84951554706366        0.73270683072008
H            3.47520303345245       -1.75445620217223        0.34168766271314
H           -1.62440697016155        3.05102918511299       -0.13461697506444
H           -2.79392195965489        2.04831405994692       -1.04206701915180
H           -2.87563916287376        2.11116274945710        0.72413738871858
H           -1.31109577124484       -3.21740609915644        0.85597964808447
H           -1.22558951799303       -3.21679062052780       -0.92952418695845
H           -2.64258097918046       -2.54201435395633       -0.10330696422631
H            1.28890318071202       -2.99821064509362        0.09490316590500
25
 energy: 63.467616960020 xtb: 6.6.1 (8d0f1dd)
C            3.22790741377740        1.02674519315679        0.09339469900886
N            2.30522967625670        0.01131522165768        0.15442117797858
C            2.53972487182597       -1.29094007237317        0.13445328283480
N            1.35755408126638       -2.00738328339096        0.12406101899146
C            0.34608106942321       -1.11017891013043        0.05527155310405
C            0.92115764652280        0.15074847873109        0.07226985165548
C            0.10547934154565        1.34018210321903        0.04124460995581
O            0.48387171638825        2.48260447436598        0.09903354561792
N           -1.25820629669032        1.01516901841537       -0.06054182439858
C           -2.19998496792365        2.13124780506376       -0.13461382314298
C           -1.84718484809585       -0.22687425620749       -0.08645102944106
O           -3.04034205166726       -0.37667163786449       -0.16504225674575
N           -0.98691248903197       -1.33256320162035       -0.02195467497611
C           -1.56290674083055       -2.66405054838103       -0.04955106378823
H            4.24625568336755        0.65651013739287        0.12225311011054
H            4.01595480345116        2.89104128393546       -1.03586147559824
H            2.97297153193334        1.82054948265455        0.70234738876043
H            3.47501855395033       -1.75735440418222        0.32473175436068
H           -1.62457187120059        3.05565188681205       -0.13556384132390
H           -2.79154207678644        2.05266093677281       -1.04563491667299
H           -2.87406450198760        2.10905374633712        0.72146470241010
H           -1.30806621419762       -3.21519377908159        0.85768848876404
H           -1.22504742803852       -3.21651669178716       -0.92820371571413
H           -2.64493012413016       -2.54500843985912       -0.10178234675525
H            1.27876752584370       -3.01171575489230        0.08959969719901
25
 energy: 64.811248815222 xtb: 6.6.1 (8d0f1dd)
C            3.17410426641506        0.92192907565166        0.14102604799181
N            2.28502766010916       -0.02261737118161        0.17980568769766
C            2.53561125425527       -1.32250762194641        0.18742929275689
N            1.33149403241469       -2.04077159724146        0.11014851426861
C            0.34796149511425       -1.11948719096189        0.05891181176503
C            0.91140633864228        0.14490145577999        0.12081487437715
C            0.09577190412683        1.33053998988464        0.05685758187325
O            0.49893505149252        2.49009473682455        0.07584077575743
N           -1.25938106763444        1.01634337936711       -0.06723403431272
C           -2.20195282300021        2.13569058092971       -0.13057628341685
C           -1.84662998442549       -0.22212113656282       -0.08499718137809
O           -3.05044327619347       -0.37539672182644       -0.15198006552283
N           -0.99817918468440       -1.33047902303930       -0.02955784575935
C           -1.56525693585930       -2.66027798036615       -0.05165133211766
H            4.17142009299762        0.67960763122797        0.18550826511626
H            4.21223698523709        3.04847551045997       -1.07805983403703
H            2.96989306610823        1.88931321718486        0.56294182152088
H            3.50175626544679       -1.78807059268715        0.27114646821422
H           -1.62008873739052        3.05692047873673       -0.12793848038372
H           -2.79133203484008        2.06134162578538       -1.04254514522267
H           -2.87353852706541        2.10473973499600        0.72776725637081
H           -1.30078713579999       -3.21328279890743        0.85551947764726
H           -1.22503055028497       -3.21372340295688       -0.93079417658026
H           -2.64723761130425       -2.54568753307373       -0.09994113375771
H            1.25645376109467       -3.03644565733316        0.08859154932618
25
 energy: 62.494556481164 xtb: 6.6.1 (8d0f1dd)
C            3.16794379612247        0.91427960925370        0.19187299485430
N            2.28466344341547       -0.02667477027893        0.20382122768612
C            2.53299734391133       -1.35511807374353        0.22810422708258
N            1.31182262581497       -2.05788596281055        0.10355313928305
C            0.34566809919607       -1.13016132848175        0.06196865102721
C            0.90173349717327        0.14022586310505        0.14670071150028
C            0.09577157194088        1.31575798093753        0.06449266038201
O            0.50515924008991        2.48009701097941        0.07720313841118
N           -1.26675284590097        1.01412913275679       -0.06373476975478
C           -2.20104569488709        2.13688145708871       -0.12266056329522
C           -1.84920887755751       -0.22219756872701       -0.08546650471473
O           -3.05699764121329       -0.37666567583388       -0.14850390154829
N           -1.00912066401588       -1.33347911108813       -0.03592125623850
C           -1.57390144914762       -2.66111583926258       -0.06239603032419
H            4.21906155963861        0.73034853070147        0.26786606722024
H            4.33362833768151        3.10959022343271       -1.11316086909925
H            2.89944173636603        1.93689441028703        0.39257157266030
H            3.50570787624253       -1.82290632624553        0.25742084202887
H           -1.61289515276383        3.05311048713954       -0.11704138770913
H           -2.79125340624802        2.06740480594495       -1.03435581573172
H           -2.87220067369009        2.10555627893377        0.73553258242263
H           -1.30848125536751       -3.21751560147821        0.84243886998983
H           -1.23282682656371       -3.21242758723231       -0.94294580316275
H           -2.65612073696283       -2.54726917328717       -0.10948346269858
H            1.23942040169727       -3.05182998334692        0.08915759192311
25
 energy: 60.283629114152 xtb: 6.6.1 (8d0f1dd)
C            3.19457412086688        0.93989038294722        0.23424354685643
N            2.29561868042027       -0.02885558750675        0.19121410245421
C            2.52471118883984       -1.37744842755807        0.22834796533017
N            1.30467918607201       -2.06162908559061        0.10532436173377
C            0.33708251431984       -1.14283752665248        0.05668617096866
C            0.89860769435073        0.12743727192543        0.12624101271520
C            0.10469585627908        1.30557202430370        0.05288003284199
O            0.50712563984842        2.45712446489535        0.07931387543426
N           -1.26900217317068        1.01325712968145       -0.05676786417280
C           -2.19487437903829        2.13708022038164       -0.11872800006925
C           -1.85315944055826       -0.22526637306644       -0.08312841345698
O           -3.05720777087893       -0.37349280063258       -0.14451988055371
N           -1.01480119557026       -1.33929330231421       -0.03491699553324
C           -1.58461464648742       -2.66567781872461       -0.06191426881744
H            4.22475979514152        0.70713631200187        0.34375076341008
H            4.44384985049636        3.21868380098807       -1.15096193471763
H            2.82837872794339        1.95153104352162        0.31138781811307
H            3.48345223690053       -1.84195385248217        0.25695687023856
H           -1.60673728521219        3.05137761371165       -0.11525853840913
H           -2.79004844846471        2.06876879057545       -1.02801352683807
H           -2.86623587735262        2.11277109802668        0.73897611045393
H           -1.32001476081843       -3.21921497176890        0.84156540415126
H           -1.24653979382026       -3.21543758215536       -0.94313987525664
H           -2.66690708723474       -2.54929718358994       -0.10673710556702
H            1.23482167209995       -3.06119685217390        0.10423228088488
25
 energy: 60.084702199985 xtb: 6.6.1 (8d0f1dd)
C            3.18708275841748        0.92233737640936        0.26229996110749
N            2.29181325979560       -0.04030054622320        0.21471301707445
C            2.51344227800746       -1.38011392426067        0.23782794477693
N            1.30546134528162       -2.06150050865555        0.11693340241234
C            0.32810106163114       -1.14877266465647        0.06103950899419
C            0.89659728989229        0.11702574884904        0.12703375010358
C            0.10723488168387        1.30762670815633        0.05382436674279
O            0.50709997753595        2.44994486986078        0.08219855930788
N           -1.26744923239726        1.01383036140427       -0.05123572127350
C           -2.19292104308642        2.13634477116592       -0.11832346164300
C           -1.85744473292401       -0.22755289211066       -0.08226604361317
O           -3.05764894873009       -0.37011771905297       -0.15048245082795
N           -1.01642269514876       -1.34145143703113       -0.03401634647172
C           -1.58925678224645       -2.66851526608490       -0.06538256245806
H            4.23751775012117        0.68442281815877        0.33933717211036
H            4.49787575207416        3.30849565493821       -1.20504130075861
H            2.82094347457131        1.94496282803273        0.28759568890221
H            3.47071339504429       -1.84169284825410        0.26591490365330
H           -1.60652252853346        3.05154784704115       -0.11400055422401
H           -2.78762647179479        2.06901565705486       -1.02859991277049
H           -2.86686083967419        2.11465881035240        0.73777701340403
H           -1.32667402562154       -3.22138777472732        0.83799525715562
H           -1.24968592871891       -3.21526605126719       -0.94699428027395
H           -2.67126106807839       -2.55075385727250       -0.11200517789392
H            1.23810537786991       -3.06375917308308        0.11089117865770
25
 energy: 60.263927480680 xtb: 6.6.1 (8d0f1dd)
C            3.19251167197226        0.94092221222753        0.27937967262198
N            2.29576288275148       -0.03412319804633        0.21296739053414
C            2.51223563972705       -1.37378135032692        0.23020668197719
N            1.31745076838998       -2.04865579543353        0.12279800572737
C            0.32624116582819       -1.14569263459169        0.05854558334486
C            0.89987272730828        0.11813357022425        0.11054200664712
C            0.11319781248338        1.31545773825456        0.05558372718876
O            0.50217234168605        2.45669021439769        0.09055501520783
N           -1.26890680151828        1.01371763173272       -0.03995506209387
C           -2.19348194155235        2.13316528429877       -0.11258227946828
C           -1.86045684550214       -0.22936720620712       -0.08133285767432
O           -3.05729111592703       -0.37185987977273       -0.15785774991667
N           -1.01148188900558       -1.34055278874796       -0.03380055872896
C           -1.58764410896488       -2.66896574725577       -0.06957291235938
H            4.23626075428491        0.69523921681512        0.41309199840453
H            4.50288760361631        3.21353396430153       -1.26825815926820
H            2.78840395215546        1.95870161175038        0.24923113492697
H            3.46753926021363       -1.83462515975712        0.28152921802060
H           -1.60711015975822        3.04855944821248       -0.10753556602104
H           -2.78724255003712        2.06735777428984       -1.02450956464445
H           -2.87021741701406        2.11466569385133        0.74194399129349
H           -1.32882955483395       -3.22374734055039        0.83318503773607
H           -1.24915236645425       -3.21372707977487       -0.95222779951974
H           -2.66958839858725       -2.54842730782225       -0.11730371766066
H            1.24908087371012       -3.05359008332539        0.11241067591920
25