25
 energy: -43.126828444974 gnorm: 0.150848751551 xtb: 6.6.1 (8d0f1dd)
C            3.36860800946885        1.15762992388197        0.10595990562465
N            2.40894801566686        0.15996235541245       -0.00901405277116
C            2.60135201351196       -1.27211001877387        0.04070788941547
N            1.34296054824785       -1.89562662509807        0.02367106571412
C            0.39422403066690       -0.91840827324412        0.00883136195853
C            0.93493972099113        0.31843248790280       -0.01506253879603
C            0.08558120233891        1.39796417262608       -0.08619115270536
O            0.43021628178266        2.59989029238882       -0.06566197577491
N           -1.31762529325319        1.02606410074009       -0.02126527300312
C           -2.27859377779003        2.10827673632296       -0.06156592966062
C           -1.86406224483516       -0.21222962965689        0.05871205924544
O           -3.05326927882188       -0.43210985151896        0.06034820128749
N           -0.95338866098693       -1.24942463784294        0.00075037931538
C           -1.43049576721125       -2.61051284591144       -0.10240195435747
H            3.84716639233450        1.19778632700561        1.06769226344803
H            4.14603346777692        1.06236183296186       -0.67927630142889
H            2.87238055769681        2.11841162526675       -0.00803632373394
H            3.55869806705251       -1.74571501909320        0.06724738455073
H           -1.65922479717939        2.99901179330439       -0.08844226207185
H           -2.90638539390067        2.03568547732826       -0.95340570702920
H           -2.94185078389052        2.09820013045109        0.81646475025263
H           -1.10543651146198       -3.20804224299213        0.76046912944092
H           -1.09381776620471       -3.10430888686713       -1.00576515686635
H           -2.50701926253309       -2.54235479894258       -0.12252419918602
H            1.23292738823340       -2.90926915929446        0.01794177848573
25
 energy: -43.139945011503 gnorm: 0.057342148774 xtb: 6.6.1 (8d0f1dd)
C            3.34395288081666        1.15473252838626        0.10223459407435
N            2.37130927973710        0.13487513169288       -0.01482217250346
C            2.59341582342085       -1.25850982813668        0.03745143579641
N            1.36639279280172       -1.90055996431434        0.02672271186253
C            0.39772359309136       -0.96158571384880        0.00385189751056
C            0.93967081810305        0.29795762766183       -0.00940589315742
C            0.08902279583970        1.41069293245364       -0.05331369997475
O            0.41900179306520        2.60293425564703       -0.07290180428858
N           -1.30753105594077        1.03866950495416       -0.02332104822351
C           -2.26792688535857        2.12368451518634       -0.06213648449187
C           -1.85099076433774       -0.20816840425825        0.02386145224618
O           -3.04542814345473       -0.41979827947947        0.06296997591670
N           -0.94165174623557       -1.26214420536734       -0.00445115824545
C           -1.42681021035270       -2.61692698036441       -0.09475524115125
H            3.84097847672108        1.17368868921881        1.07469394828226
H            4.12180590821246        1.05723079694983       -0.67202391302432
H            2.85158762692550        2.11943915944347       -0.02325339820956
H            3.55123147659379       -1.72280886482090        0.06153549178278
H           -1.67566628413615        3.03471870744517       -0.08274341373624
H           -2.89403434773224        2.04189986747133       -0.95289882491469
H           -2.92282596660290        2.09568488659811        0.81295402375672
H           -1.11052732504595       -3.20794218332831        0.77023726186381
H           -1.08237090821311       -3.09992288227901       -1.00905543242934
H           -2.51081088680250       -2.54555510653671       -0.11450313546882
H            1.26334741658491       -2.90272092401731        0.02325616808114
25
 energy: -43.141703692503 gnorm: 0.011983275669 xtb: 6.6.1 (8d0f1dd)
C            3.34208186839395        1.15751374145415        0.10139730088223
N            2.35412194547637        0.12756196201680       -0.01052188637197
C            2.59127510143060       -1.24622106670507        0.04023328520329
N            1.37726972326165       -1.89483968462928        0.02433824348082
C            0.39770301267725       -0.98012828555092        0.00135486024945
C            0.94634055097483        0.29093442078235       -0.01319100834097
C            0.09385476513767        1.41723568854116       -0.05569259435372
O            0.41775717391458        2.60402073601020       -0.07979691806595
N           -1.30169420590692        1.04129883327828       -0.01940561993235
C           -2.26935656389861        2.12006956715203       -0.06230790678378
C           -1.84503662204534       -0.20448099890034        0.03247660429025
O           -3.04055188311003       -0.41581451375647        0.06839417357749
N           -0.93655245632571       -1.26291905960241       -0.00072659203754
C           -1.42802333563946       -2.61455156560861       -0.09559601084703
H            3.84199245373764        1.16869352789744        1.07855601108517
H            4.11898042166721        1.05054507003856       -0.66766791109592
H            2.85309815699222        2.12202600252174       -0.02319758540279
H            3.54609329456498       -1.71897667866769        0.06492909195746
H           -1.67879563811659        3.03029075457313       -0.09258059366652
H           -2.89732333385743        2.03085040185778       -0.95087527012789
H           -2.91854072826550        2.09727822109237        0.81492666569721
H           -1.11078600013284       -3.20800236388840        0.76360531310560
H           -1.08845608972542       -3.09482796731779       -1.01615357947927
H           -2.51505613577301       -2.54499379822460       -0.11148085780232
H            1.26247068226836       -2.89299767800710        0.01916612613325
25
 energy: -43.141830094952 gnorm: 0.005772926451 xtb: 6.6.1 (8d0f1dd)
C            3.34353275211269        1.16051519648831        0.09840686579554
N            2.35304093855008        0.12840451478159       -0.00851372085043
C            2.59440589202875       -1.24512886822999        0.03896931750424
N            1.37986812356540       -1.89433983306245        0.02791641206149
C            0.39659372106980       -0.98314259386485        0.00248718349608
C            0.94696789992884        0.29042114381931       -0.01132631346097
C            0.09442880289374        1.41711957067366       -0.05262372179072
O            0.41851932364424        2.60471629204786       -0.07456506077107
N           -1.30299521666627        1.04036675349617       -0.02118574550741
C           -2.26863149044619        2.12198383723453       -0.06099910265376
C           -1.84731607041608       -0.20413746408649        0.02516573567766
O           -3.04240905604211       -0.41783464773008        0.05825750696265
N           -0.93732939553991       -1.26284230042614       -0.00208663374625
C           -1.42713609954038       -2.61590711028377       -0.09362137024171
H            3.84064999745797        1.17016235473537        1.07559205478328
H            4.11703531939383        1.05163782111598       -0.67247371753835
H            2.85062526945375        2.12196984653759       -0.02364119391727
H            3.54750485221905       -1.72350199569733        0.05953421543174
H           -1.67648137401415        3.03186587721254       -0.08291467086122
H           -2.89311619966284        2.04052744890111       -0.95247658410649
H           -2.92169422084265        2.09532423541921        0.81345102025795
H           -1.11278628731046       -3.20654906606953        0.76910817819162
H           -1.08383807874944       -3.10035519430230       -1.01037227811133
H           -2.51373704028840       -2.54796181044960       -0.11522864786881
H            1.25716379490116       -2.89374874190339        0.02332361261776
25
 energy: -43.141865836964 gnorm: 0.002345356761 xtb: 6.6.1 (8d0f1dd)
C            3.34537666523663        1.16172427943219        0.09942223857624
N            2.35372135569075        0.12979428334349       -0.00726353756087
C            2.59629818837316       -1.24447040921460        0.03921679609626
N            1.38140508737515       -1.89408577016051        0.02594767621348
C            0.39645876082390       -0.98347870212493        0.00141703898949
C            0.94709484122252        0.29101814992722       -0.01271477189716
C            0.09463295849251        1.41637657517165       -0.05502186919283
O            0.41880083238649        2.60493766398532       -0.07769128330662
N           -1.30382497025172        1.03947563262481       -0.02069110004782
C           -2.26896419925049        2.12178480643836       -0.06143436542092
C           -1.84804566582263       -0.20360979836413        0.02840993850256
O           -3.04262514877443       -0.41936046972622        0.06333366551342
N           -0.93742201449561       -1.26223013498501       -0.00149678423939
C           -1.42742988911825       -2.61538323097416       -0.09420029397375
H            3.83918427217363        1.16948909828538        1.07700110814723
H            4.11838610798380        1.05113576181323       -0.67082351416132
H            2.85126468628306        2.12207913991485       -0.02291877797688
H            3.54805158923304       -1.72512076823851        0.06211879150093
H           -1.67725292211488        3.03226312666245       -0.08662543925347
H           -2.89488033837115        2.03768702940905       -0.95176038292076
H           -2.92074613777474        2.09647441843383        0.81417976065585
H           -1.11128557415486       -3.20782133026420        0.76703070815918
H           -1.08599282189371       -3.09816490535711       -1.01243178951340
H           -2.51367724210340       -2.54685083991678       -0.11375554381494
H            1.25433773655167       -2.89409833975835        0.02093507227967
25
 energy: -43.141869507522 gnorm: 0.001173578011 xtb: 6.6.1 (8d0f1dd)
C            3.34585182058413        1.16171823345196        0.09921649202291
N            2.35374599421214        0.13018075061513       -0.00673935867622
C            2.59603498023656       -1.24401992404746        0.03910912842451
N            1.38153704370872       -1.89388828398225        0.02619558176121
C            0.39645941599132       -0.98316681290083        0.00168146326633
C            0.94687176991643        0.29137188226768       -0.01231304053882
C            0.09486571386634        1.41600676352523       -0.05441905589648
O            0.41878287625619        2.60465512236419       -0.07611178369016
N           -1.30395626145375        1.03923368704457       -0.02032387444702
C           -2.26910433373033        2.12136557934912       -0.06161483961811
C           -1.84811667487547       -0.20320887320873        0.02865012334767
O           -3.04241391110048       -0.41973252667617        0.06293938470902
N           -0.93726034550246       -1.26208320751682       -0.00152416255772
C           -1.42756056374379       -2.61522598826530       -0.09464885912676
H            3.84025288232274        1.16927464530078        1.07612333324799
H            4.11804751191751        1.05070439593431       -0.67150373440602
H            2.85187200501793        2.12219726938646       -0.02339744163632
H            3.54741203087915       -1.72459398487173        0.06259696721468
H           -1.67694182049781        3.03136297231869       -0.08711047764261
H           -2.89491585797987        2.03672720175893       -0.95203607638410
H           -2.92088588575675        2.09637090526974        0.81406404887565
H           -1.11150316813597       -3.20750768325278        0.76672973303713
H           -1.08593183165142       -3.09796828385547       -1.01277413526712
H           -2.51376699163266       -2.54660693752393       -0.11397279378315
H            1.25348975885209       -2.89360163612800        0.02136671911769
25
 energy: -43.141870303922 gnorm: 0.000572823852 xtb: 6.6.1 (8d0f1dd)
C            3.34559840299076        1.16157522026170        0.09969635338664
N            2.35367900001861        0.12999818708794       -0.00668525963268
C            2.59585785929098       -1.24396413913326        0.03814334376466
N            1.38183099234992       -1.89401393323981        0.02581058777450
C            0.39659672731002       -0.98320330557799        0.00138232741994
C            0.94665574517491        0.29139958450353       -0.01305477295553
C            0.09534262428673        1.41563773285235       -0.05513291253854
O            0.41884593551797        2.60441092743439       -0.07682639588599
N           -1.30397611841141        1.03921057756355       -0.02065485169677
C           -2.26896208315189        2.12153551175073       -0.06145434646086
C           -1.84807162461298       -0.20268655395669        0.02826858575707
O           -3.04218866465202       -0.41995668872516        0.06286604244854
N           -0.93699434893250       -1.26224956709125       -0.00175504544265
C           -1.42753641335580       -2.61546001312657       -0.09437166472961
H            3.83963615559286        1.16926836318481        1.07658982808755
H            4.11807807925033        1.05115375651177       -0.67079961405293
H            2.85140109035923        2.12206417297748       -0.02301691490235
H            3.54724455527920       -1.72428328578102        0.06254169619480
H           -1.67658290374326        3.03127002322742       -0.08660036266064
H           -2.89498453987632        2.03745471008568       -0.95176826693945
H           -2.92069199725253        2.09650308954604        0.81427981143122
H           -1.11152088996614       -3.20732662686036        0.76730597749739
H           -1.08580347859370       -3.09856282826719       -1.01217697594112
H           -2.51373651072937       -2.54683242678760       -0.11360237066125
H            1.25314856355686       -2.89337722208317        0.02119854209223
25
 energy: -43.066364168350 gnorm: 0.264039947185 xtb: 6.6.1 (8d0f1dd)
C            3.50250791169016        1.12552982413232        0.12532149061090
N            2.51768024693614        0.19937983916518       -0.08965673584121
C            2.59757066379466       -1.33850972425467        0.06267493785812
N            1.25274769612545       -1.84109011661300        0.06093889697956
C            0.38957873596885       -0.78253701336519        0.06279264859209
C            0.94911143749737        0.42481842730904       -0.04032216911323
C            0.06363881432761        1.43184020985682       -0.16185792144138
O            0.31092785685524        2.63219372552147       -0.15826606552377
N           -1.39184109930112        1.00200180669515       -0.00621243658175
C           -2.34728099304951        2.07257735618413       -0.07681655900179
C           -1.90082026948872       -0.22278977460956        0.17063579317047
O           -3.08137456318637       -0.48769877937901        0.22660856324949
N           -0.96133311473191       -1.19436508044694        0.04857884045854
C           -1.38143957168500       -2.58080599998322       -0.14828934433500
H            3.98246898457152        1.15710090987232        1.06451012307795
H            4.28141131298445        1.07479576596124       -0.68990892662502
H            3.04668363218365        2.12692210322956        0.08067885225102
H            3.51779508545026       -1.85347620411694        0.10648074562599
H           -1.67513546596438        2.92063326454433       -0.17477727245970
H           -2.98792725788508        1.97522678510630       -0.95143698051495
H           -3.00430032050368        2.12842971474819        0.81367337497923
H           -1.04338966887549       -3.22594403373116        0.68571599144384
H           -1.04722024201019       -3.03327202002346       -1.06397465133854
H           -2.45411611460221       -2.53629611987205       -0.17217298680667
H            1.08919639054652       -2.86200630662610        0.06628618759187
25
 energy: -43.113309228977 gnorm: 0.114600892687 xtb: 6.6.1 (8d0f1dd)
C            3.46329931126615        1.11928506278571        0.11579334544206
N            2.44965424477076        0.15836202078576       -0.09106675764019
C            2.58332979073380       -1.29470243491151        0.05888367606971
N            1.30152156559282       -1.84982082615602        0.06613507420689
C            0.39438089333538       -0.85520496195608        0.04796384152537
C            0.95932501470904        0.38431365998812       -0.02908134552926
C            0.06466607216428        1.44901614831966       -0.11364208379259
O            0.30843841877476        2.64745910760590       -0.17192932030164
N           -1.37137848934203        1.02244557164919       -0.00930691398268
C           -2.33457877794338        2.09296287814150       -0.07849240264450
C           -1.88797431619809       -0.21964668262076        0.12541615608878
O           -3.07331805055191       -0.47007889706934        0.23220004277650
N           -0.94325564461570       -1.21880504278279        0.04185478818751
C           -1.37857671538238       -2.58843728698147       -0.13527997090598
H            3.97452755837298        1.11587092242221        1.07538577752975
H            4.24849441041349        1.06397824564497       -0.67399533495307
H            3.02612293005939        2.12381717755541        0.05555604811358
H            3.50978641721154       -1.81416359988174        0.09766377864584
H           -1.70335142373157        2.97296349686013       -0.16797776462315
H           -2.97908254777165        1.97712474089348       -0.95174202045516
H           -2.98070578478915        2.12624649511483        0.80754773456117
H           -1.05223241431288       -3.22463242077293        0.69596644895282
H           -1.03046603649335       -3.01965038623440       -1.06979053191528
H           -2.46164704502935       -2.53716942316970       -0.16032537122168
H            1.13816070640524       -2.84887500592538        0.07346750217124
25
 energy: -43.122925349203 gnorm: 0.020865251857 xtb: 6.6.1 (8d0f1dd)
C            3.44100565429170        1.12456751420318        0.11192022022417
N            2.39880680070656        0.13979839643592       -0.06268170732019
C            2.57222311403532       -1.24903862177889        0.05374170390613
N            1.33431726506646       -1.84490599280941        0.06476118725792
C            0.39272181979749       -0.90047259543106        0.03442006103640
C            0.97023128411001        0.35671969106611       -0.03216941663963
C            0.07123457293067        1.45046912924765       -0.11058066582998
O            0.31831978842931        2.64513109967821       -0.17990593468403
N           -1.34500398666707        1.03284901802074       -0.00232447632546
C           -2.32463922294866        2.09502959501174       -0.07797241360051
C           -1.87245866157801       -0.21124453725830        0.12296158570355
O           -3.05782666828309       -0.45316781790130        0.22794848450402
N           -0.93177741587950       -1.22712696723402        0.04414125090678
C           -1.37879436404691       -2.58746222486226       -0.12956456721155
H            3.96482917793771        1.09688727400511        1.07909606442308
H            4.21905116481596        1.04557847739020       -0.66830330501150
H            3.00867417070825        2.12256592123816        0.05228436734161
H            3.49610821610558       -1.78922348463660        0.09037039800192
H           -1.71449856008213        2.98641033656284       -0.17349019633255
H           -2.97126672501070        1.96635920306380       -0.95001018032923
H           -2.96399321356491        2.12573476142923        0.80770063607085
H           -1.05398384345969       -3.22377395685716        0.69366281070758
H           -1.03079893088585       -3.01323515315928       -1.07396264955382
H           -2.46689441650302       -2.54254902693763       -0.15249417866436
H            1.14955306762273       -2.83324147918220        0.07165531772483
25
 energy: -43.123281854411 gnorm: 0.007672289811 xtb: 6.6.1 (8d0f1dd)
C            3.44483360572312        1.13101326420054        0.10667017664461
N            2.39963380576086        0.14512600707750       -0.05981883775701
C            2.58065667733338       -1.25052158402285        0.05133901812710
N            1.34062679117530       -1.84773775401357        0.06800449427601
C            0.39167881290749       -0.90534995075236        0.03545344954941
C            0.96886048045718        0.35610089041774       -0.02767574360678
C            0.06905465723326        1.44983857406319       -0.10203546281428
O            0.32111988441137        2.64691942318953       -0.17681012118237
N           -1.34552260997004        1.03327322448196       -0.00368792111670
C           -2.32484439505361        2.09788302054740       -0.07714792507701
C           -1.87507345650746       -0.20985299352342        0.11550554244153
O           -3.05965035307648       -0.45376025512214        0.21972595957075
N           -0.93412613725044       -1.22803227028944        0.04303131609445
C           -1.38113831308330       -2.58925443809027       -0.12925583593615
H            3.95951175500367        1.09606903431076        1.07574243108343
H            4.22046403146335        1.04673689043760       -0.67320489339722
H            3.00812322729453        2.12560430995398        0.04673621979625
H            3.50209652707584       -1.79506581813631        0.09244607136264
H           -1.71696713138662        2.99184551600074       -0.16664953820816
H           -2.96887237101067        1.97331292366167       -0.95080017195264
H           -2.96598931540421        2.12321961362716        0.80802522836321
H           -1.05932281927849       -3.22503445113829        0.69771986996973
H           -1.03006522781208       -3.01743371493407       -1.07114211477587
H           -2.46832389344491       -2.54400755255000       -0.15679531599693
H            1.14837585508717       -2.83823335009228        0.07582850084806
25
 energy: -43.123342000574 gnorm: 0.003064372190 xtb: 6.6.1 (8d0f1dd)
C            3.44804439110826        1.13242205206643        0.10816887835961
N            2.39980478531393        0.14764601171340       -0.05698039615432
C            2.58160458661508       -1.25015865871931        0.04859845362020
N            1.34151487533879       -1.84737377879186        0.06422297315120
C            0.39124326814782       -0.90595080704484        0.03359114406342
C            0.96810024626485        0.35722852359715       -0.03092982974600
C            0.06646487479751        1.44909297876100       -0.10566965486571
O            0.32104715528628        2.64695511830430       -0.18020856587911
N           -1.34518891533358        1.03322604200408       -0.00358277620184
C           -2.32551386525316        2.09768741408805       -0.07794467641193
C           -1.87494997041833       -0.20819572925258        0.11914981866364
O           -3.05866837779739       -0.45482417809532        0.22636721029517
N           -0.93425889114970       -1.22703418688783        0.04444670754935
C           -1.38048070692120       -2.58844970170384       -0.12941975732363
H            3.95705636235382        1.09167896334474        1.07826496713710
H            4.22187726449146        1.04639474586885       -0.67110008866848
H            3.00969968614170        2.12557793022230        0.04879929017670
H            3.50067120053283       -1.79650526313170        0.09665329576730
H           -1.71789951126760        2.99112397501882       -0.17122500903204
H           -2.97071295892952        1.96948497185728       -0.95003815197817
H           -2.96462735444810        2.12458819956271        0.80877628797306
H           -1.05495603537219       -3.22501849830695        0.69625397735530
H           -1.03053010917560       -3.01478432975494       -1.07253532202905
H           -2.46728397819752       -2.54429185627304       -0.15403325276999
H            1.14308206551978       -2.83786137914213        0.07157887325427
25
 energy: -43.123353967601 gnorm: 0.001456039829 xtb: 6.6.1 (8d0f1dd)
C            3.44861508789216        1.13264611744228        0.10692199106771
N            2.39959600498664        0.14736894689523       -0.05581542673921
C            2.58110825071706       -1.24965466954190        0.04791599832757
N            1.34142286371332       -1.84686980807274        0.06609966018433
C            0.39146287823753       -0.90573665163314        0.03510672725792
C            0.96843866647904        0.35748895923223       -0.02969829116799
C            0.06601175694413        1.44830303342118       -0.10422520508816
O            0.32159573604670        2.64596900111337       -0.17645536633712
N           -1.34470395075581        1.03291701449568       -0.00356860366391
C           -2.32525719803386        2.09746831566499       -0.07798851503118
C           -1.87501746378661       -0.20793195620421        0.11829037054557
O           -3.05847580698089       -0.45584385432249        0.22362917747609
N           -0.93397140922715       -1.22688391500029        0.04457138893826
C           -1.38048335875272       -2.58836418098977       -0.13001352342266
H            3.95805116617312        1.09265943484607        1.07595339599562
H            4.22062882391917        1.04622823242510       -0.67342446291005
H            3.00922589923927        2.12534048577233        0.04756311410579
H            3.49991546249061       -1.79554228614035        0.09693726334359
H           -1.71650115981782        2.99003388378311       -0.16981106998735
H           -2.96955149362134        1.97005475307886       -0.95070601563764
H           -2.96532096959714        2.12394845823018        0.80807253511440
H           -1.05618855825848       -3.22487377396441        0.69619839608994
H           -1.02989462321055       -3.01531153498676       -1.07244515845682
H           -2.46714668086278       -2.54394134617730       -0.15541927627925
H            1.14158016371461       -2.83681410006250        0.07351529258060
25
 energy: -43.123355342972 gnorm: 0.000666274746 xtb: 6.6.1 (8d0f1dd)
C            3.44818419517699        1.13248705505922        0.10764874945243
N            2.39974532181490        0.14676125310994       -0.05620299341641
C            2.58132177802650       -1.24988131163553        0.04646917197320
N            1.34165662741029       -1.84694100786624        0.06578710012966
C            0.39194470459557       -0.90543677715777        0.03483916612285
C            0.96881383606756        0.35755027586989       -0.03070172399920
C            0.06578592023120        1.44763379048336       -0.10530351011323
O            0.32206211432753        2.64537751570018       -0.17763425097773
N           -1.34456011960466        1.03288142116167       -0.00429190197008
C           -2.32524976601035        2.09774109866648       -0.07770290811867
C           -1.87504551269332       -0.20764896774087        0.11785797773182
O           -3.05847014213929       -0.45598309353292        0.22359789126149
N           -0.93382938542736       -1.22695226271754        0.04419739196095
C           -1.38084677740396       -2.58858789878060       -0.12959124564633
H            3.95725525767675        1.09316829969939        1.07661629003641
H            4.22116575797032        1.04643266474699       -0.67201105448882
H            3.00857418977623        2.12535495425120        0.04820261733353
H            3.50064851333864       -1.79491237109593        0.09693930228801
H           -1.71637571630684        2.99043310905607       -0.16932959545363
H           -2.97008707674361        1.97092785098185       -0.95006151189479
H           -2.96504387250283        2.12384143532585        0.80857068513464
H           -1.05688317918879       -3.22481117914299        0.69689529779142
H           -1.03057463916542       -3.01618688604860       -1.07166064200168
H           -2.46752655064727       -2.54390394724845       -0.15487807483029
H            1.14247460906944       -2.83668646183991        0.07295216800048
25
 energy: -43.000544950438 gnorm: 0.317596787343 xtb: 6.6.1 (8d0f1dd)
C            3.60180927748952        1.05022506471022        0.12304165223685
N            2.64365216511153        0.15754662220502       -0.11108248453600
C            2.58241236299046       -1.36201009630735        0.08431347394464
N            1.24486149551195       -1.77357786217075        0.14171470408893
C            0.37487975007709       -0.65081939537525        0.12966225260147
C            0.94277689355541        0.53927279133121       -0.06447362472896
C            0.01601923823144        1.48701662475359       -0.20948317592670
O            0.21091296372133        2.66312098815633       -0.24439173421342
N           -1.46843524444882        0.99504244553900        0.00172547684169
C           -2.42056220001259        2.05413510741168       -0.09431941233287
C           -1.90861140055913       -0.22287629674672        0.28552500279094
O           -3.09320262166016       -0.54718872808500        0.38484789059742
N           -0.95339573022624       -1.16690021519545        0.11859854419480
C           -1.33584433034696       -2.55139619344170       -0.19411968093486
H            4.11801545411218        1.10796140630201        1.05759986495541
H            4.34225140154510        1.02042326944082       -0.71026968232084
H            3.23813437997335        2.10239836543992        0.11672575772055
H            3.47668873849532       -1.95931919064488        0.14231480007974
H           -1.74257170845076        2.89115638854977       -0.25190481994504
H           -3.07341506513009        1.92197337582700       -0.95018341128289