25
 energy: 0.000000000000 xtb: 6.6.1 (8d0f1dd)
C            3.23720163006194        1.16630919979326        0.08434469647475
N            2.29877817382611        0.07527477071623        0.03981603040599
C            2.58028210190900       -1.21425402444508        0.03006176031096
N            1.43813958087363       -1.93419271955128        0.00098261760884
C            0.39035688448383       -1.05887472636071       -0.00790371836672
C            0.93510056364412        0.21347819449412        0.01709077491437
C            0.09450143893243        1.40504303904423       -0.00410947031874
O            0.49712751527797        2.54126714362870       -0.00342325688240
N           -1.25076640035757        1.06271879480407       -0.03085478223738
C           -2.21907211982101        2.15522099834493       -0.05001256985998
C           -1.81739487048744       -0.20012725993278       -0.04692818574614
O           -2.99983886758376       -0.37846417018721       -0.07008878229737
N           -0.92618586207120       -1.30210215599479       -0.03682761578324
C           -1.46982264913417       -2.64643102187190       -0.06029820460571
H            3.71247264356769        1.21471455160235        1.06488849150277
H            4.00791497605742        1.03430808813993       -0.67357694370751
H            2.69910007168542        2.09770118228144       -0.09130154882931
H            3.56654120610678       -1.63682992603973        0.04233140067262
H           -1.67107961066214        3.09322851271934       -0.02552706933167
H           -2.82428953597071        2.09428624779827       -0.95318082946668
H           -2.87644029173232        2.07745725625962        0.81450067533302
H           -1.17061996399332       -3.19584890659852        0.83242232437030
H           -1.14560257411436       -3.17511610292205       -0.95688275822323
H           -2.55549792440841       -2.55659984320617       -0.07459039797972
H            1.38130855184625       -2.94313852034425       -0.01389874181052
25
 energy: -5.399258708815 xtb: 6.6.1 (8d0f1dd)
C            3.24433257276108        1.17714824386941        0.08677008941461
N            2.30813040765229        0.09555297183236        0.03770409714954
C            2.59942440830427       -1.23261593982214        0.03012260115062
N            1.42723924847708       -1.93997931871770        0.00084127281924
C            0.39633888642198       -1.05576621242364       -0.00825346430417
C            0.93023173637123        0.22289541635525        0.01518733012194
C            0.10149925850755        1.39627955282676       -0.00540784139587
O            0.49803999759873        2.56216811430386       -0.00495191063623
N           -1.26054596605960        1.05081565893667       -0.03103517528539
C           -2.22091790588448        2.14686537071083       -0.04993074284267
C           -1.82370390879421       -0.20054871455505       -0.04685927594616
O           -3.02031706883857       -0.38305546926894       -0.06961078006897
N           -0.93416114339014       -1.30065241573864       -0.03690903233039
C           -1.47155288018291       -2.64280009036257       -0.06037939713609
H            3.72255434781162        1.22284556806293        1.06886193752253
H            4.01244667479034        1.04205989607499       -0.67616354346612
H            2.69762316339986        2.10183545863569       -0.08884691720412
H            3.57748765584050       -1.65919649992703        0.04287741953620
H           -1.65948451160582        3.07821037916408       -0.02561598329585
H           -2.82637955703240        2.09326248403351       -0.95428669119859
H           -2.87849194643670        2.07689643538603        0.81595177538807
H           -1.16789660827270       -3.19417064328591        0.83155086925328
H           -1.14285963293890       -3.17313517330876       -0.95629287115973
H           -2.55687515292899       -2.55224418611040       -0.07477872302343
H            1.36005259236512       -2.94364228449956       -0.01351114691500
25
 energy: -6.575377667006 xtb: 6.6.1 (8d0f1dd)
C            3.25244123533416        1.18362814312434        0.08938531737796
N            2.31532613352301        0.10712471745560        0.03399259330573
C            2.60902966831525       -1.24655705279180        0.03041923845598
N            1.41414123109452       -1.93819152682620        0.00125677076431
C            0.39950302324528       -1.05052041066882       -0.00893368126147
C            0.92695365155715        0.23160438350412        0.01221728260541
C            0.10709924762160        1.38493470795438       -0.00806886053369
O            0.48525096740946        2.56630764061326       -0.00879529552454
N           -1.27134972689203        1.03971536965066       -0.03154665061911
C           -2.22220293877746        2.13946855878758       -0.04984858068889
C           -1.82693090628713       -0.20192940546793       -0.04641641455311
O           -3.02772550154909       -0.39075956867070       -0.06792596957128
N           -0.94019298158557       -1.29677264953144       -0.03688764345852
C           -1.47111637957809       -2.63792899391932       -0.06056759455164
H            3.73815421093990        1.23239653581101        1.06992118359793
H            4.01988059662406        1.05702509921235       -0.67774748041764
H            2.70071980682695        2.10642036213005       -0.08147882575069
H            3.57989636586322       -1.68093712398959        0.04399114132420
H           -1.64269173949190        3.06048351397483       -0.02601322124323
H           -2.82892052870829        2.09331529495259       -0.95439369981036
H           -2.88017547506036        2.07779984158665        0.81698797292615
H           -1.16476052773723       -3.19127039199209        0.83045183867766
H           -1.13959381482990       -3.16958562728485       -0.95591802322141
H           -2.55648708636250       -2.54713112914366       -0.07511863428695
H            1.33596613644121       -2.93961168629895       -0.01192886739551
25
 energy: -6.643211961275 xtb: 6.6.1 (8d0f1dd)
C            3.25739863884796        1.18506122944676        0.09109261146340
N            2.31918066491396        0.10832630664023        0.03066868487776
C            2.60903625224076       -1.25299359800280        0.03058416234063
N            1.40758866643625       -1.93554727489788        0.00219687692489
C            0.39968812267394       -1.04734318335272       -0.00957717816750
C            0.92739097952931        0.23567307987573        0.00953993120124
C            0.10813179835403        1.38226614446041       -0.01144985308711
O            0.47128852891406        2.56736010603368       -0.01404407442222
N           -1.27786397467148        1.03553995102355       -0.03245145211762
C           -2.22305404800071        2.13716926495040       -0.04993979269105
C           -1.82900234198144       -0.20430892942483       -0.04571729789086
O           -3.02920782293582       -0.39870979291678       -0.06552573798191
N           -0.94131245711759       -1.29451369856106       -0.03671157264322
C           -1.46855827882191       -2.63591798387581       -0.06078880257675
H            3.75004679724308        1.23381141917147        1.06889886050395
H            4.02412046712132        1.07034841937653       -0.67937146341044
H            2.70483480401474        2.10960659620632       -0.07134360908023
H            3.57621892133784       -1.69502162835008        0.04510428229122
H           -1.63196656129076        3.05078627877506       -0.02703607571077
H           -2.83117800120052        2.09491052247025       -0.95375473694470
H           -2.88042200279885        2.08037979097183        0.81772907844669
H           -1.16159873960522       -3.18924208763071        0.83007561688386
H           -1.13622616574346       -3.16670872837048       -0.95642601491297
H           -2.55412714877466       -2.54512302499879       -0.07544674581592
H            1.32180756925141       -2.93678057684827       -0.00927180133307
25
 energy: -6.530476611666 xtb: 6.6.1 (8d0f1dd)
C            3.26442707154073        1.18507320700839        0.09451254261041
N            2.32490370002888        0.10706540341127        0.02426235608960
C            2.60573682554031       -1.26040232176945        0.03041521028974
N            1.39947933733260       -1.93121323276814        0.00453189165126
C            0.39857496798606       -1.04183207897455       -0.01088376825790
C            0.92974713667085        0.24146227997820        0.00394816890170
C            0.10818724659690        1.38241463742617       -0.01962794039844
O            0.44911137080634        2.57054292905769       -0.02684836356486
N           -1.28666484754488        1.03115067263848       -0.03497112001248
C           -2.22457103211056        2.13574432226731       -0.05040371060718
C           -1.83313636002576       -0.20843831881182       -0.04405992099061
O           -3.03157525812129       -0.41139739667489       -0.05947463429066
N           -0.94147219104831       -1.29136046167716       -0.03621025607928
C           -1.46211557960341       -2.63448895069766       -0.06124592559759
H            3.77028783083449        1.22525544149025        1.06674442642850
H            4.02689689361642        1.09328917045267       -0.68455760554874
H            2.71052807721728        2.11353333736962       -0.04682098012859
H            3.56709485046050       -1.71590452929995        0.04736159161463
H           -1.61867120107894        3.03950679909664       -0.03034423803413
H           -2.83627985650051        2.09902153899052       -0.95197066684631
H           -2.87955923698889        2.08684727519487        0.81952912630467
H           -1.15389254119249       -3.18683682401789        0.82953116415099
H           -1.12808494511542       -3.16228775884039       -0.95782878798252
H           -2.54807297771971       -2.54547716954111       -0.07607809793094
H            1.30133538635503       -2.93223936913701       -0.00247656562400
25
 energy: -5.917952678906 xtb: 6.6.1 (8d0f1dd)
C            3.27571890614975        1.18240238377842        0.10292017463867
N            2.33370674362712        0.10373317768823        0.01078884418017
C            2.59761722261702       -1.27010159204657        0.02872571105605
N            1.38645375632159       -1.92361505335630        0.00985985817632
C            0.39492289894070       -1.03059258523885       -0.01382084159891
C            0.93408010943383        0.25190436619007       -0.00882745411367
C            0.10732737612064        1.38617916431247       -0.03985879887658
O            0.41471238649541        2.57828693032584       -0.05900493300905
N           -1.30012517807137        1.02560344774644       -0.04174483310128
C           -2.22787651273324        2.13553119931110       -0.05197337697702
C           -1.84172846482848       -0.21441598729715       -0.03996549499453
O           -3.03720287724463       -0.43074539878753       -0.04408006211166
N           -0.94156490224458       -1.28582123198445       -0.03494245872497
C           -1.44747507674010       -2.63404679368483       -0.06220862417374
H            3.81087972889106        1.19011031632418        1.06252100745140
H            4.02316193859092        1.13727603820444       -0.69896448517758
H            2.71815668853181        2.11866465890711        0.01435435026388
H            3.54836714999623       -1.74964648215666        0.05226154896784
H           -1.60209556860748        3.02577603367088       -0.04017470472997
H           -2.84885577597018        2.10695228648671       -0.94744628313126
H           -2.87542798882949        2.10094318799078        0.82437234025185
H           -1.13464738647175       -3.18399914216946        0.82803387842399
H           -1.10805686316193       -3.15462773654351       -0.96074892603352
H           -2.53424606182882       -2.55302457126467       -0.07727518943134
H            1.26641241895212       -2.92369801423465        0.01423264892219
25
 energy: 0.234245772379 xtb: 6.6.1 (8d0f1dd)
C            3.31010157357884        1.17098013440441        0.13255390416686
N            2.35986477170138        0.09240549333859       -0.03474758708594
C            2.57004524108174       -1.29753036815803        0.02214424264238
N            1.34623012189685       -1.89941008027669        0.02817342988068
C            0.38182495795988       -0.99365228115260       -0.02388299461680
C            0.94752172207715        0.28517201189599       -0.05283416423078
C            0.10483744944582        1.40111094999192       -0.11038479982652
O            0.31235396767621        2.60381655334703       -0.17216414573167
N           -1.34076157744382        1.01081914962579       -0.06589047411603
C           -2.23939971370219        2.13708866769148       -0.05771374108480
C           -1.86979183909114       -0.23109553081090       -0.02568844644441
O           -3.05582257800100       -0.48785256325728        0.01025981100904
N           -0.94213766651579       -1.26796941041339       -0.03055473798468
C           -1.39809606609638       -2.63425072636834       -0.06555394598766
H            3.94560706336266        1.05709154501415        1.04728802597295
H            4.00062128591017        1.28134416727104       -0.74913629538040
H            2.74054228985751        2.13198760297695        0.22873658740540
H            3.48705273177749       -1.85226492985094        0.06914950424772
H           -1.55840650184299        2.98910886446244       -0.07616111818748
H           -2.89310926228052        2.13123210689201       -0.93124499735903
H           -2.85925281546850        2.14709116205784        0.84173469768997
H           -1.06813058546806       -3.17618686497798        0.82245747088097
H           -1.03898197330881       -3.13013242144968       -0.97044544721751
H           -2.48761371479174       -2.58412455237219       -0.08121598111275
H            1.15711578562133       -2.89575007770958        0.07215509861771
25
 energy: 1.134366583369 xtb: 6.6.1 (8d0f1dd)
C            3.31600209684916        1.16326013956200        0.14188816609521
N            2.36331181015770        0.08807120585757       -0.04554993345391
C            2.56138649951820       -1.29801746466897        0.02261814469320
N            1.34037135931292       -1.89356598237144        0.03436526853648
C            0.37721072580016       -0.98408044455740       -0.02741586566652
C            0.95081460247247        0.29190054243719       -0.06666711517659
C            0.10528001135938        1.40916420459795       -0.13349095368855
O            0.30137852757552        2.60794805669024       -0.21235610777313
N           -1.34715632255122        1.01262059616493       -0.07300871709919
C           -2.24524359235394        2.14025687391878       -0.05647594307991
C           -1.87665927274714       -0.23147255049421       -0.02038236667607
O           -3.05962340519905       -0.49503109368500        0.02980729081902
N           -0.94189284828961       -1.26351275788942       -0.03024995284100
C           -1.38396807484941       -2.63556846682594       -0.06853215375581
H            3.96822815390605        1.01922699131097        1.03952537914439
H            3.99066695475662        1.30296600312860       -0.74585777753969
H            2.75306015809691        2.12171463353012        0.27496103386058
H            3.47040935405122       -1.86572137944338        0.07360165608000
H           -1.56716344525129        2.99131585853039       -0.08563620695325
H           -2.90971973052491        2.13564483011476       -0.92157583474416
H           -2.85282906382365        2.15594942494025        0.85092243618843
H           -1.04780156668184       -3.17583723770537        0.81803731534761
H           -1.01835488949498       -3.12297545497758       -0.97548439525251
H           -2.47392648946760       -2.59839812746614       -0.08384079411417
H            1.13843311531435       -2.88682979852693        0.08783132319677
25
 energy: 1.320456581839 xtb: 6.6.1 (8d0f1dd)
C            3.32001480244987        1.12524729640907        0.17280181595464
N            2.35565218161266        0.08095198567171       -0.06867457413912
C            2.54128790172776       -1.26755411902025        0.03669802452479
N            1.34169904348913       -1.88166845779501        0.05929376016845
C            0.36243868340238       -0.96036759981150       -0.03863024633572
C            0.95265609065437        0.30110356411924       -0.10931393842584
C            0.10865911070094        1.43912624296814       -0.20848152101719
O            0.34165807543171        2.61256526456644       -0.37743023435813
N           -1.34374225277515        1.03365703090617       -0.09223074374951
C           -2.26887974092290        2.15419457668533       -0.04069647382577
C           -1.89137209157346       -0.21379159834514       -0.00038869485666
O           -3.06674872203453       -0.47275632491289        0.10367101309053
N           -0.94568938956969       -1.25453214709350       -0.03348919288201
C           -1.34922397701227       -2.64157372834719       -0.08678670629034
H            3.97339697019118        0.90186645405436        0.99831385235392
H            3.94206191462716        1.29374016532545       -0.67225853939010
H            2.80870653161582        2.03084693053445        0.36743755950155
H            3.43641871169903       -1.83113602084932        0.08291073021828
H           -1.66239732401923        3.04322282767580       -0.11374534453098
H           -2.97236368240540        2.13184942110042       -0.87206677569186
H           -2.82353139818137        2.16048367034567        0.89605638563615
H           -0.98801781960718       -3.18094383491972        0.79198628639635
H           -0.95776342420187       -3.10002984743591       -0.99903210154932
H           -2.43734723905397       -2.65941310407008       -0.09982714514843
H            1.13464171169099       -2.85606004558972        0.13091670049357
25
 energy: 7.186278727756 xtb: 6.6.1 (8d0f1dd)
C            3.33903035936679        1.09758355279389        0.20563511437409
N            2.36594109264550        0.06770142187326       -0.11337334677534
C            2.51309632934650       -1.26795364078745        0.03969298210698
N            1.32231829531379       -1.86226771629607        0.08433236298364
C            0.34682977983294       -0.92834288877307       -0.04862382447468
C            0.96235337065710        0.32360403588203       -0.15794137579018
C            0.11133416088450        1.46577673959656       -0.29005073734759
O            0.30905202488410        2.62389307570420       -0.53149172408403
N           -1.36345918945477        1.04100481502937       -0.11864662691728
C           -2.28772533938435        2.16464304633676       -0.04021170245363
C           -1.91334478018128       -0.21223649517576        0.01716672674764
O           -3.07822339024343       -0.49135353326015        0.17237720162806
N           -0.94613135944559       -1.23961704386412       -0.03083970170031
C           -1.30276469473169       -2.64535889367404       -0.09616820694162
H            4.07394581981871        0.72970659365845        0.96167501865847
H            3.88916250980068        1.40218070097993       -0.68998952819214
H            2.84011384858632        2.00193824324796        0.58599654293963
H            3.38408119709626       -1.87308769217720        0.10032912751744
H           -1.69548732263235        3.05352754592737       -0.15622592341030
H           -3.03086685885718        2.13847319042681       -0.83953974878269
H           -2.79695866882898        2.18980899982421        0.92542066308691
H           -0.92196506915195       -3.17897945110663        0.77816442046053
H           -0.88800167946099       -3.07565470394934       -1.01414270426182
H           -2.39164704100073       -2.70885923227177       -0.10982023742716
H            1.07153127307599       -2.82710206777313        0.19330912420263
25
 energy: 15.156684684774 xtb: 6.6.1 (8d0f1dd)
C            3.34905021847467        1.07169109324146        0.23238809337795
N            2.36927986566397        0.06391178540996       -0.15710694638781
C            2.49702525245336       -1.26315509848634        0.05182744511357
N            1.31011473340115       -1.84995402856236        0.10630420910284
C            0.33615559973048       -0.90759094150843       -0.05194020353859
C            0.96527506794028        0.33700295762904       -0.19811064458244
C            0.10947482203190        1.48093551024440       -0.35058575690396
O            0.29570558962366        2.62192257704069       -0.68078495170130
N           -1.37044336367826        1.04980455160495       -0.13545289492107
C           -2.29686576483763        2.17303868541596       -0.03813526832504
C           -1.92418900543908       -0.20387984341634        0.02942709280780
O           -3.08118283711412       -0.48433651675536        0.22482912584418
N           -0.95026051560345       -1.23121381332248       -0.02687115113759
C           -1.27416156803159       -2.64746014358543       -0.10631404925674
H            4.14866915163835        0.57453025571658        0.90629781866164
H            3.82616503487762        1.52039715436028       -0.70946426788007
H            2.86012054392654        1.95658255407252        0.80189072781298
H            3.35956045285517       -1.88862470022965        0.11756118650993
H           -1.72816811250807        3.07144299027457       -0.20272743508154
H           -3.07946942438876        2.12348306568253       -0.80173583779559
H           -2.76232064892119        2.21120705420350        0.95215191543040
H           -0.88095101134944       -3.17916198200591        0.76359939032315
H           -0.84046757481999       -3.05530980017724       -1.02685178448993
H           -2.35940365331555       -2.74769355409009       -0.12442628783504
H            1.03350181532574       -2.80854121058477        0.25126437099948
25
 energy: 10.769981247967 xtb: 6.6.1 (8d0f1dd)
C            3.33594324882598        1.06740149648757        0.23332835617686
N            2.35321382007822        0.08380983717393       -0.16960622764416
C            2.51111012033424       -1.25449265405588        0.07725856964367
N            1.31345659049224       -1.85768011752675        0.10701756134830
C            0.34122040919724       -0.92067174078074       -0.04361625811205
C            0.94863449687661        0.32708439567692       -0.20458683528033
C            0.09334531387318        1.46409432120214       -0.35393289423863
O            0.32116491403781        2.59269744480000       -0.72678842414708
N           -1.35112710604709        1.05915943123827       -0.13105304952439
C           -2.28423779086393        2.17350701829609       -0.03215307715220
C           -1.90637470196882       -0.18630524888415        0.02417003057261
O           -3.06876524118068       -0.43311933750052        0.22435411725191
N           -0.95911325968821       -1.23768747410332       -0.02555775435231
C           -1.29295154429618       -2.64460270350944       -0.11341574004492
H            4.13128938864113        0.54794335651700        0.87230784340481
H            3.80200052557181        1.55923079116201       -0.71797253721980
H            2.84433968813230        1.93219150873783        0.86164467222771
H            3.40399041301420       -1.84878019900954        0.12521226349060
H           -1.73562469094460        3.08824887177220       -0.22909485483034
H           -3.08982996605839        2.07726430138954       -0.76940023852491
H           -2.72916461786439        2.20820853176664        0.96650953072920
H           -0.90368206800250       -3.18359269478849        0.75338710102129
H           -0.85769989570014       -3.05318532881817       -1.03006954698555
H           -2.37074726453194       -2.74698951469268       -0.13920554246521
H            1.06182388600771       -2.82470569037840        0.26829683080211
25
 energy: 5.693267982252 xtb: 6.6.1 (8d0f1dd)
C            3.33038427229583        1.04974042316795        0.27265968468164
N            2.32748196680987        0.11909939083038       -0.18673656814800
C            2.51188328532353       -1.23904965858697        0.12491209211115
N            1.29200099689522       -1.85279347763506        0.11527932053770
C            0.34133397505980       -0.91664491993893       -0.04598693397094
C            0.91860949715799        0.33082642072225       -0.24828810160598
C            0.04823920310363        1.44975363172209       -0.44440055084819
O            0.31796627813544        2.56492810438498       -0.89077165747590
N           -1.33754277774540        1.07568383736523       -0.14750255754559
C           -2.28617086186016        2.17788384407030       -0.00841982474609
C           -1.89297810944922       -0.16092870729595        0.03679873893723
O           -3.06629064128983       -0.37355786471714        0.29243076503494
N           -0.97497249733846       -1.23155806823645       -0.03137066592954
C           -1.28262804843476       -2.63930405035211       -0.13864882069988
H            4.11528751130286        0.49957575215310        0.82167672411598
H            3.77909493439476        1.55066526501861       -0.61293603464783
H            2.90061909159077        1.84621017198824        0.91328975631934
H            3.43037024568748       -1.80518791848586        0.12415507768907
H           -1.76243894395758        3.10561342411187       -0.27209358549738
H           -3.15540761051959        2.03432074064754       -0.68024649440383
H           -2.66349064093636        2.22696252486866        1.02861693939624
H           -0.86936328151290       -3.18922371643117        0.71634858799735
H           -0.82068346909128       -3.02484542550640       -1.05811588012346
H           -2.35564853045675       -2.78761026599999       -0.16879242636197
H            1.06655882277084       -2.82153085569309        0.31517631133117
25
 energy: 10.620006369814 xtb: 6.6.1 (8d0f1dd)
C            3.33218535930105        1.02444060575387        0.30852957504710
N            2.31553685641205        0.13035261712428       -0.20718323520666
C            2.50281201534365       -1.22322583017285        0.16014464995999
N            1.27708189608307       -1.84157689729954        0.14630841179557
C            0.33543243154818       -0.90561640213350       -0.05218642219195
C            0.90450635216948        0.33474076346279       -0.29653107730609
C            0.02199915608846        1.44040780043346       -0.57395840643639
O            0.29790983036663        2.53531386412546       -1.07411160516531
N           -1.33717350214742        1.08615956932197       -0.17656630874117
C           -2.29162321340390        2.18388942257289        0.00989389629678
C           -1.89209973232698       -0.14472886506205        0.06410139514392
O           -3.05913540248112       -0.33502670978264        0.36016737565755
N           -0.98774624990476       -1.22017395255115       -0.03599321752928
C           -1.26326583088811       -2.63238303661810       -0.16178965022937
H            4.14355087972793        0.38287726700002        0.75474422344609
H            3.73365102453738        1.61211182339195       -0.54542778327675
H            2.93978944734172        1.75714591655065        1.07686060093925
H            3.42390423402980       -1.77104650688330        0.10936048784642
H           -1.80039603158714        3.11797055022432       -0.32512184169520
H           -3.21935005682580        2.00525617187269       -0.59018897438394
H           -2.59045660625621        2.25289228197905        1.08246784506918
H           -0.83180931715711       -3.18549678875707        0.68461459440502
H           -0.77650766963150       -2.98994423884948       -1.08349210048179
H           -2.33026805011909       -2.82715981162236       -0.19646029441147
H            1.06368684771537       -2.79815101190933        0.38885175759574
25
 energy: 15.073966256491 xtb: 6.6.1 (8d0f1dd)
C            3.31613544312419        1.03431333961226        0.31629873317299
N            2.29108551940048        0.16023585638431       -0.15496844902199
C            2.52733769117609       -1.20792230324644        0.19546521161190
N            1.26869399281549       -1.84643654619181        0.17591608528047
C            0.35401386771373       -0.93579848134306       -0.05261072303907
C            0.86918057694423        0.30457092186490       -0.28277356011692
C           -0.03185683316336        1.35343493235298       -0.70605249455311
O            0.25272497636048        2.45450646987626       -1.09594803666539
N           -1.32079933369210        1.07665898834995       -0.20153133409633
C           -2.26853482727618        2.17096300883351        0.01622197371384
C           -1.85507360644215       -0.13345672342451        0.09799438232982
O           -3.01547289753426       -0.26525631028989        0.35590950400880
N           -1.01003553212916       -1.21057565943771       -0.05070295398030
C           -1.29846055313405       -2.60139618055990       -0.17258591307877
H            4.11800044431497        0.38808315322931        0.65431493787896
H            3.69960896083262        1.65715299313660       -0.46449724948900
H            2.93700471542864        1.64215928584181        1.14882430060592
H            3.46381137713282       -1.66585226343381        0.00313065005306
H           -1.79881017602653        3.07878025934742       -0.32989787139701
H           -3.17631748976985        1.98428568744212       -0.51139876645542
H           -2.51919766016045        2.25594436708653        1.06211957575929
H           -0.87416000860654       -3.15860944562967        0.67395479783479
H           -0.81035858253534       -2.96512794186485       -1.08198164242617
H           -2.35470009656812       -2.79999188034251       -0.21290334070966
H            1.14839469972998       -2.78163692542176        0.44473607892654
25