25
 energy: 0.000000000000 xtb: 6.6.1 (8d0f1dd)
C            3.23720132972391        1.16630909158653        0.08434468864950
N            2.29877796055224        0.07527476373246        0.03981602671198
C            2.58028186251803       -1.21425391179017        0.03006175752192
N            1.43813944744728       -1.93419254010258        0.00098261751768
C            0.39035684826767       -1.05887462812143       -0.00790371763344
C            0.93510047688824        0.21347817468824        0.01709077332874
C            0.09450143016486        1.40504290868848       -0.00410946993748
O            0.49712746915594        2.54126690785742       -0.00342325656480
N           -1.25076628431515        1.06271869620815       -0.03085477937476
C           -2.21907191394203        2.15522079838987       -0.05001256521996
C           -1.81739470187490       -0.20012724136556       -0.04692818139228
O           -2.99983858926755       -0.37846413507442       -0.07008877579474
N           -0.92618577614240       -1.30210203518959       -0.03682761236648
C           -1.46982251276835       -2.64643077634382       -0.06029819901142
H            3.71247229913541        1.21471443890471        1.06488839270555
H            4.00791460421487        1.03430799217987       -0.67357688121503
H            2.69909982127087        2.09770098766290       -0.09130154035862
H            3.56654087521359       -1.63682977417947        0.04233139674524
H           -1.67107945562430        3.09322822573871       -0.02552706696334
H           -2.82428927394145        2.09428605349656       -0.95318074103337
H           -2.87644002486466        2.07745706351925        0.81450059976605
H           -1.17061985538665       -3.19584861009707        0.83242224714061
H           -1.14560246782873       -3.17511580834413       -0.95688266944647
H           -2.55549768731684       -2.55659960601237       -0.07459039105944
H            1.38130842369251       -2.94313824728853       -0.01389874052104
25
 energy: -6.064713371221 xtb: 6.6.1 (8d0f1dd)
C            3.22293001705787        1.18503025760117        0.08905443641226
N            2.30142555651179        0.09766660054537        0.03281995031459
C            2.60715577264096       -1.24993712437093        0.03325498399360
N            1.42072378586516       -1.94928147458835        0.00120307066348
C            0.39626775571441       -1.07360041644008       -0.01020104825608
C            0.91144143200476        0.21532628927356        0.01115201141609
C            0.09937923257867        1.36904131377168       -0.00891349405397
O            0.46944762187870        2.54769526645763       -0.01207904620160
N           -1.29198905979296        1.04367266552042       -0.03148741129720
C           -2.19849177380269        2.19480795024921       -0.04435948917621
C           -1.83529537485090       -0.20881380263241       -0.04828680142592
O           -3.03203059144010       -0.40894589127970       -0.07028916008208
N           -0.94478352677001       -1.31353915813094       -0.03868901673595
C           -1.45805598484581       -2.66449245145519       -0.06073884540726
H            3.68562895330804        1.25461361971317        1.07792738901328
H            4.00321928822821        1.06288083934102       -0.66107247892868
H            2.66345888084441        2.09970428665397       -0.10640044281037
H            3.58545588367744       -1.67117526768733        0.04347136589366
H           -1.59625365772280        3.10115065932706       -0.01826770880316
H           -2.81003527941128        2.17737177530731       -0.94809725493682
H           -2.86260196896428        2.15786414309811        0.81973721923437
H           -1.14444911191726       -3.21522614621630        0.83018427898363
H           -1.11956782844299       -3.19503979214632       -0.95474377361625
H           -2.54446105965790       -2.59029905165970       -0.07536921465480
H            1.36218768129107       -2.95452327788484       -0.01197441547858
25
 energy: -4.618891766862 xtb: 6.6.1 (8d0f1dd)
C            3.20070280251296        1.19508919536629        0.09044825022564
N            2.29068517695844        0.09566771368580        0.02682813583373
C            2.60115704116785       -1.25614983532392        0.03932768485710
N            1.41658329228872       -1.96184681503709        0.00196505932400
C            0.38908563318822       -1.08911343329452       -0.01276817992434
C            0.89781283132269        0.20204846303902        0.00607295943147
C            0.07973505241096        1.34776070105041       -0.01388446256662
O            0.44949498085033        2.52640483200694       -0.02108180889105
N           -1.31952143827785        1.03669808612220       -0.03218187017413
C           -2.17760025012319        2.23958910583334       -0.03814459123980
C           -1.85614729239752       -0.22308980393360       -0.04971667801999
O           -3.04925564882420       -0.44001762697634       -0.07066099480763
N           -0.95347909748367       -1.32820280667285       -0.04092526203072
C           -1.44536560488391       -2.68736127110063       -0.06192444500810
H            3.64686434086182        1.28765885792115        1.08497499156989
H            3.99312884338200        1.08315134657442       -0.64367980663966
H            2.62877023629411        2.09853179495487       -0.12577736489174
H            3.58542947929973       -1.65216580035164        0.02288730452060
H           -1.52548026015672        3.10937152695906       -0.01016342296742
H           -2.79366056946072        2.26194745988696       -0.94096037394889
H           -2.84467856036511        2.23744744375922        0.82538516173047
H           -1.12062152453668       -3.23469816173665        0.82784381429311
H           -1.09438358946998       -3.21473577392718       -0.95351359165779
H           -2.53291116055097       -2.62704056540239       -0.07773700461136
H            1.36587641086845       -2.96946872298103       -0.00627389492599
25
 energy: -2.025017945431 xtb: 6.6.1 (8d0f1dd)
C            3.17556211921898        1.20276322686716        0.09273334595649
N            2.27564796236160        0.09268426748597        0.01981324066563
C            2.58897895804498       -1.26029639053006        0.04346185012129
N            1.41161513245676       -1.97568610934414        0.00143997540445
C            0.38034534114165       -1.10630696451497       -0.01587879127215
C            0.88167759086580        0.18685241519076        0.00034689348324
C            0.06008866599480        1.32565781800163       -0.02034335375796
O            0.44110919504931        2.50075105903965       -0.03377315657200
N           -1.34776632419594        1.03347333633884       -0.03304575237372
C           -2.15843179496173        2.28674547788490       -0.03238356312758
C           -1.87648290335062       -0.23535420864369       -0.05017336339426
O           -3.06521316901595       -0.47071883582506       -0.06995346153888
N           -0.96301485722165       -1.34315765417901       -0.04315685030285
C           -1.43338721101508       -2.70990444611688       -0.06219243085174
H            3.60287723566388        1.31579363609668        1.09317027991517
H            3.98089153623461        1.09939048454575       -0.62285378338251
H            2.59354794116925        2.09595362789345       -0.14405532375928
H            3.58531296049522       -1.62217447221955        0.00619268978149
H           -1.45720888840622        3.11632749557251       -0.00261385165473
H           -2.77728854638468        2.34813611405491       -0.93360898401339
H           -2.82564782453788        2.31699718179018        0.83089060292006
H           -1.09614067974634       -3.25219853910507        0.82679158579190
H           -1.06961307597017       -3.23380460218016       -0.95128290058312
H           -2.52200519802812       -2.66445279420832       -0.07857248571414
H            1.37592728294924       -2.98497062621271       -0.00337491601022
25
 energy: 1.487379124016 xtb: 6.6.1 (8d0f1dd)
C            3.15039935212417        1.21149569319115        0.09609166541979
N            2.26081536382908        0.09314174244357        0.01320638905551
C            2.58476044314131       -1.25399969719178        0.05205265904476
N            1.41334493806878       -1.98641166206285       -0.00007922274349
C            0.37445468539278       -1.12418750680313       -0.01917726711776
C            0.86608715363189        0.17086591811236       -0.00484821174532
C            0.04142281609010        1.30424601220284       -0.02667444392197
O            0.44508616139647        2.47241364180738       -0.04682350983378
N           -1.37525615075931        1.03500385997418       -0.03274634960476
C           -2.14080385923088        2.33762119910350       -0.02607318279816
C           -1.89494675077021       -0.24546060524043       -0.04972064951424
O           -3.07839755389828       -0.50161025353917       -0.06928020521008
N           -0.96956972094869       -1.35838878728428       -0.04472750098756
C           -1.42095949019712       -2.73203772175308       -0.06180344424985
H            3.55845932519153        1.34195747968374        1.10214277286740
H            3.96788320373688        1.11080273238446       -0.59962582066233
H            2.55918807631774        2.09371921056425       -0.16119476550707
H            3.58613758637265       -1.61073774549502       -0.03102145324676
H           -1.39198748135479        3.12514755463261        0.00443593611306
H           -2.75725260563399        2.43249965929868       -0.92702558511487
H           -2.80732769744419        2.40154685143290        0.83602172494005
H           -1.07159525197997       -3.26918288266368        0.82649803638963
H           -1.04492104649049       -3.25265442551753       -0.94840027134019
H           -2.51058405257337       -2.70040651241281       -0.07862100445418
H            1.39201999598657       -2.99715916905282       -0.00226396483046
25
 energy: 5.920633270758 xtb: 6.6.1 (8d0f1dd)
C            3.12683160283177        1.21742831983642        0.09892957523115
N            2.24880043809171        0.08965003519883        0.00898504106309
C            2.58985422022773       -1.25342515239413        0.07551891384127
N            1.41941839093942       -1.99720084800853        0.00052492065277
C            0.37199581431842       -1.14247165135335       -0.02144234267082
C            0.85351889502653        0.15407730376992       -0.00916041947927
C            0.02426209503849        1.28433059882058       -0.03441210460708
O            0.45372432657830        2.44395071403796       -0.06415672650413
N           -1.39982503413111        1.03914146353094       -0.03151808090041
C           -2.12064959562883        2.39007849854956       -0.01878299274454
C           -1.91090623300194       -0.25577520832198       -0.04633121709619
O           -3.08839846338676       -0.53359017174325       -0.06638458250424
N           -0.97223267292905       -1.37461570483148       -0.04455569732245
C           -1.40956721170157       -2.75367733073368       -0.06208613830441
H            3.51268897762167        1.36653089732528        1.11061564777304
H            3.95714864012123        1.10895055042474       -0.57358454124286
H            2.52965703156999        2.09010071346356       -0.18154390905334
H            3.58850850633509       -1.60637533753282       -0.07608616595541
H           -1.32652090197873        3.13317804123112        0.01261169137060
H           -2.73212874877104        2.51197940185327       -0.92085095802757
H           -2.78412222141043        2.48184661836484        0.84324233002958
H           -1.04999392252224       -3.28743705537021        0.82480361360603
H           -1.02479154848194       -3.27051593006850       -0.94765855000732
H           -2.50017931065060       -2.73281969879233       -0.07825023575286
H            1.41104251662090       -3.00809833747182       -0.00097182917978
25
 energy: 11.627409276929 xtb: 6.6.1 (8d0f1dd)
C            3.10473835114520        1.22059368252854        0.10136703087926
N            2.23776546061044        0.08365267300597        0.00646593130398
C            2.59637809969520       -1.25711961739388        0.10329463955890
N            1.42665182004252       -2.00780127105089        0.00145644752484
C            0.37143267058191       -1.15997939254848       -0.02254409726501
C            0.84192607923858        0.13831625378813       -0.01164864140767
C            0.00571091560168        1.26812790431158       -0.04212174601707
O            0.45589359941621        2.41970154804384       -0.08866277304699
N           -1.42207189726024        1.04828359357313       -0.02750035662255
C           -2.10555529250588        2.44775817240318       -0.00974266639812
C           -1.91831289812116       -0.26791720498856       -0.03848389019372
O           -3.09089980177092       -0.56594930234209       -0.06117063109502
N           -0.97208906811249       -1.39130637019951       -0.04279479887170
C           -1.39581582858203       -2.77557683564476       -0.06160274424035
H            3.46501040987470        1.38846369999264        1.11902564568528
H            3.95243982944542        1.10053761164866       -0.54314101591343
H            2.50130812053640        2.08269768039792       -0.20329937520463
H            3.58885004806501       -1.60190790559864       -0.12218082128330
H           -1.27366452141396        3.15471444073887        0.02401231687602
H           -2.70703259807281        2.59539620611928       -0.91506718828751
H           -2.76420559787078        2.56114979688436        0.84975612483295
H           -1.02588707271472       -3.30516463797075        0.82412830291798
H           -1.00128934819888       -3.28797171986101       -0.94600906903887
H           -2.48736002566402       -2.76602532187695       -0.07779446317901
H            1.43076293318700       -3.01798227635490       -0.00190890062845
25
 energy: 18.208780543847 xtb: 6.6.1 (8d0f1dd)
C            3.08636794701535        1.22173182966207        0.10097247514457
N            2.22889946149035        0.07672291446060        0.00452035521630
C            2.60520459781900       -1.26080389239257        0.13005169886136
N            1.43557549072849       -2.01807366252711        0.00360743064126
C            0.37378652315480       -1.17609106009202       -0.02266365160937
C            0.83403091271729        0.12390633327967       -0.01360278313655
C           -0.00866751802535        1.25624243730976       -0.05242598051911
O            0.45553543264538        2.40242772569567       -0.12486308362663
N           -1.42942316004686        1.04880419126057       -0.02093410183270
C           -2.09556952423373        2.50587921665391       -0.00194598340960
C           -1.91773073758074       -0.28597113288910       -0.03488052360725
O           -3.08730728947590       -0.59728118696555       -0.05757577209671
N           -0.96654320096903       -1.40988762409365       -0.04164324325709
C           -1.38008618083338       -2.79830799716894       -0.06186883970120
H            3.41774306971239        1.40876219722473        1.12483263198128
H            3.95426425187289        1.08349665465429       -0.51303963687936
H            2.47797787643538        2.07283996017849       -0.22939130448952
H            3.58931879188532       -1.59556750948356       -0.16351497476972
H           -1.23284166550540        3.18500638293658        0.03762971152076
H           -2.68399163762036        2.67287568487618       -0.90850363774005
H           -2.74295404262031        2.63605380425425        0.85868039974748
H           -1.00038937472507       -3.32286152956887        0.82307989950152
H           -0.97544118750934       -3.30585426459219       -0.94480756788709
H           -2.47286283443285       -2.79998469512271       -0.07868757990332
H            1.45025041287014       -3.02719588269683       -0.00065751250288
25
 energy: 25.967330163258 xtb: 6.6.1 (8d0f1dd)
C            3.06889606487379        1.22281740237485        0.09867682272174
N            2.22054036022992        0.06991085807085        0.00300761358632
C            2.61461229744740       -1.26293572808786        0.15924029247990
N            1.44606696368132       -2.02701671503104        0.00658876420447
C            0.37614996096693       -1.19307236463714       -0.02271547971643
C            0.82682884084613        0.10887073006370       -0.01578924980879
C           -0.02459757054696        1.24138179140220       -0.06475135608882
O            0.44416219318513        2.38404120415180       -0.15435716083356
N           -1.43757655965850        1.03710022422718       -0.01815082063920
C           -2.09122345845434        2.56244780070148        0.00711338449006
C           -1.91885375474762       -0.30862790985881       -0.03314306902237
O           -3.08659836817454       -0.62938489437098       -0.04977774728225
N           -0.96117364695084       -1.43095230385722       -0.04221990104312
C           -1.36607477088301       -2.82364882789528       -0.06206832273512
H            3.36804861224546        1.42752585956946        1.12853433072974
H            3.96088919282433        1.07010127104751       -0.48124388672128
H            2.45894618178007        2.06238909727500       -0.25996613361270
H            3.58767956257745       -1.58432173500909       -0.19937057055057
H           -1.20693274192599        3.21366855393238        0.05917785745813
H           -2.65732164327205        2.74614314302998       -0.90375098474928
H           -2.72864081531713        2.71228007786553        0.86713244264320
H           -0.97641041327748       -3.34349518354573        0.82165471812765
H           -0.95126366627648       -3.32621599767031       -0.94324185172570
H           -2.45975493656376       -2.83757226242786       -0.07911806394857
H            1.47086503861726       -3.03549193765185       -0.00083533714915
25
 energy: 36.773399520210 xtb: 6.6.1 (8d0f1dd)
C            3.05360989242146        1.22198456076104        0.09812451741773
N            2.21193021329799        0.06352503992343        0.00037992413428
C            2.61898673223643       -1.26338000525502        0.17727011873640
N            1.45530323859394       -2.03701896831601        0.01422812519670
C            0.37894838380672       -1.21042822260989       -0.02331798677795
C            0.81892466864399        0.09342386678107       -0.01849593837146
C           -0.04140811090647        1.22161027780015       -0.07323496639439
O            0.42142936892014        2.36411984253021       -0.16881078281886
N           -1.44211114912900        1.01325514359954       -0.01509651974950
C           -2.09209827082790        2.63673946300822        0.01214148351802
C           -1.91779764192039       -0.33656370439014       -0.02658364451022
O           -3.08454191049356       -0.65876652348687       -0.03251966106441
N           -0.95398384886902       -1.45498713130428       -0.04346085323017
C           -1.35048754977735       -2.84829706274123       -0.06370581036294
H            3.31768040300009        1.43859293972622        1.13470799909177
H            3.96761808324215        1.05984433289312       -0.44753383388230
H            2.43915842860801        2.04772957107917       -0.28846572172657
H            3.58612018658828       -1.56917369021826       -0.19649560661379
H           -1.20365683905990        3.27347138207591        0.07549530971335
H           -2.63645782275106        2.82128197568467       -0.90195914006337
H           -2.71238662704381        2.79063505483835        0.87621782236166
H           -0.95101490639476       -3.36021157838795        0.82052191446886
H           -0.92578176951111       -3.34262554056967       -0.94490509210184
H           -2.44542975051177       -2.86414161254153       -0.08046100164765
H            1.49242306053880       -3.04274311846587        0.00056925956434
25
 energy: 55.680976545472 xtb: 6.6.1 (8d0f1dd)
C            3.03863333508248        1.21813158961200        0.09763726612884
N            2.20448364283763        0.04755445398618        0.00955853497166
C            2.61091624107805       -1.25408065375351        0.14859297728732
N            1.47715368811549       -2.05341349929109        0.01767205995621
C            0.38100542088072       -1.23365240939277       -0.01800995498555
C            0.82138953913170        0.06604465659280       -0.01159766460205
C           -0.08173109795209        1.18617839402758       -0.07893841359871
O            0.37980204749838        2.31954362822668       -0.18442502491313
N           -1.41774377876974        0.88965082894147       -0.02732551620868
C           -2.13632257259617        2.90066767176872        0.02063653037812
C           -1.90214299792509       -0.38949522491285       -0.02665617020023
O           -3.06676297064827       -0.71296389580299       -0.03338977663681
N           -0.92970792679899       -1.51249057610199       -0.04345840315509
C           -1.33223730893052       -2.89494514608924       -0.06430432122404
H            3.26613097894848        1.45476602763786        1.13792558264242
H            3.97344689957176        1.04698345949842       -0.41062399192845
H            2.43417172855467        2.03557949709378       -0.32226106747128
H            3.58737056195749       -1.56027256024524       -0.14565043445596
H           -1.19366716137874        3.39454053948547        0.09132708828733
H           -2.63423591346511        2.93639902595284       -0.91379897835335
H           -2.71299605549134        2.89200380200507        0.90204097966556
H           -0.92743167311479       -3.39621218799809        0.82192138428749
H           -0.89986287955817       -3.37668171553649       -0.94623909751844
H           -2.42914077299714       -2.89973127861203       -0.08051884310569
H            1.51348245889431       -3.05925134038243       -0.00395893142944
25
 energy: 57.337337838347 xtb: 6.6.1 (8d0f1dd)
C            3.02755835555279        1.21529978999411        0.09587017831339
N            2.19559987625779        0.04161056396488        0.00786802406851
C            2.60688039343462       -1.24760179097947        0.10920757705324
N            1.49304784638820       -2.06316037213436        0.01529554192479
C            0.38602017437856       -1.25235300807052       -0.01442351387212
C            0.81922988897044        0.05048368205709       -0.00255110488020
C           -0.10724806683789        1.16337097924075       -0.08122291133868
O            0.34769585764582        2.29646920952766       -0.19497048750005
N           -1.42298483468949        0.83950820176649       -0.02854265263379
C           -2.15915189704967        3.02902195024960        0.03206836895292
C           -1.89744516477161       -0.42339347622178       -0.02621408886538
O           -3.05787648108057       -0.75799720013131       -0.03330387552543
N           -0.91468571485612       -1.54850207866169       -0.04222117554387
C           -1.31980113750476       -2.92670109179398       -0.06850443565280
H            3.21525876067378        1.46320015414544        1.14003077861542
H            3.97995753946708        1.03362755832474       -0.37480035392122
H            2.44889812166534        2.03140409577791       -0.35640842514732
H            3.59061436069772       -1.55599900476054       -0.12541663273375
H           -1.19685826997340        3.47103906450311        0.10884625473996
H           -2.62711247946207        3.01591305409977       -0.91330144444010
H           -2.74571178163383        2.95891511648413        0.90529904025195
H           -0.92709711411592       -3.43045266583315        0.81894213311788
H           -0.89010750801120       -3.40505265270844       -0.95206106038708
H           -2.41708276221067       -2.92883069107593       -0.08371168281807
H            1.53372034846209       -3.07006898560965       -0.00597487586488
25
 energy: 57.628666863236 xtb: 6.6.1 (8d0f1dd)
C            3.01898896622017        1.21653390898228        0.09654578072300
N            2.19409020900256        0.03742172935177        0.01308877370958
C            2.61459977316387       -1.24428011509108        0.07056752903879
N            1.51164931213550       -2.07152300128672        0.00793357789564
C            0.39456623857236       -1.27120705558294       -0.01220267445805
C            0.82057455294181        0.03535830744404        0.00925349972515
C           -0.12588151425799        1.14044434743646       -0.07963245083816
O            0.31790333448406        2.27537907261197       -0.20162947627751
N           -1.42808504578564        0.79818131723963       -0.02953981765505
C           -2.17833744770631        3.13512613335477        0.03461611242934
C           -1.89313611189213       -0.45581005007238       -0.02620277915900
O           -3.04991449818793       -0.79978852251798       -0.03382909863737
N           -0.90003453569428       -1.58143177046505       -0.04161690639165
C           -1.30802120656416       -2.95738258316801       -0.07076640548290
H            3.17799007964814        1.49570518985016        1.13868288900027
H            3.98680174859528        1.02315050362573       -0.33651176328277
H            2.46523418527441        2.02688876683558       -0.39164491301488
H            3.60384183619752       -1.55182471695757       -0.15712556935073
H           -1.20255348494760        3.54191593387927        0.11896843976581
H           -2.63690604102027        3.10196814777551       -0.91590597796364
H           -2.77233471363280        3.03821150840607        0.90211645955398
H           -0.92438576707465       -3.46508466957903        0.81675547308273
H           -0.88720285770324       -3.43810423325583       -0.95651412750978
H           -2.40588594607478       -2.95938034032289       -0.08477516027971
H            1.55527084775273       -3.07955921686287       -0.00907237642777
25
 energy: 57.758328486739 xtb: 6.6.1 (8d0f1dd)
C            3.01048231867402        1.21589831305278        0.09468346113272
N            2.19597655493229        0.02915382600955        0.02351360647201
C            2.62860061324573       -1.24762275330366        0.06287007642741
N            1.53075632483190       -2.08104486537672        0.00467927738524
C            0.40618191498669       -1.28988472582318       -0.01121599398863
C            0.82477566607462        0.01989489610914        0.01887150158901
C           -0.13924001200509        1.11849017942844       -0.07707506972848
O            0.29178222541562        2.25613324502234       -0.20098087874644
N           -1.42916021102138        0.76059372798709       -0.03254512145190
C           -2.19652470828250        3.22667182095194        0.03724958615834
C           -1.88457455985812       -0.48958747759087       -0.02731472125968
O           -3.03881075322289       -0.84244922264016       -0.03301101889066
N           -0.88383576846224       -1.61171033379835       -0.04192040873297
C           -1.29373564786279       -2.98657410884336       -0.07337672716694
H            3.14144880614437        1.53019789895826        1.13109946891699
H            3.99064183868759        1.01843125730999       -0.30938926940811
H            2.47437526822874        2.01407766485630       -0.42796412284361
H            3.62055400674007       -1.55064612408397       -0.19182465304930
H           -1.21093084733346        3.60827031894616        0.12792568345944
H           -2.64961622494071        3.18795880994437       -0.91698505750548
H           -2.80105828243016        3.11976952564829        0.89905605015800
H           -0.91680902845532       -3.49781078202973        0.81471768820349
H           -0.87963022620266       -3.46905964960505       -0.96107544434455
H           -2.39182082368838       -2.98514777551379       -0.08746203312220
H            1.57624913100974       -3.08998119030548       -0.00512162887713
25
 energy: 57.711014408752 xtb: 6.6.1 (8d0f1dd)
C            3.00435137691808        1.21398584606892        0.09227065481238
N            2.19848907910024        0.01940214027004        0.03398974182472
C            2.64048547868517       -1.25271949483386        0.08772726247183
N            1.54847902893904       -2.08879767084848        0.00415329719847
C            0.41664611374292       -1.30882816640620       -0.01264202722481
C            0.82934360244742        0.00330278305407        0.02301058594583
C           -0.15052849211057        1.09637724044098       -0.07130375245079
O            0.26860426222601        2.23646134012823       -0.19146299011336
N           -1.42865590120078        0.72363498295478       -0.03427027356192
C           -2.21489901574729        3.31860998520203        0.03840678367557
C           -1.87663147835730       -0.52202531887349       -0.03139290319545
O           -3.02899749714665       -0.87956632559137       -0.03421913584408
N           -0.86940153683584       -1.64143860455062       -0.04378661501585
C           -1.28118867538848       -3.01582396315745       -0.07417199323378
H            3.10795244172945        1.56434133434499        1.11974855955228
H            3.99658743985182        1.01336944236592       -0.28598546195129
H            2.49204675484413        2.00223593128954       -0.46415227521826
H            3.63698965590605       -1.55581787322300       -0.17051279219695
H           -1.21800071151233        3.67265931477109        0.13229579896892
H           -2.66623670646941        3.27518898659457       -0.91857298099325
H           -2.82494342815463        3.19998271268290        0.89843079604602
H           -0.90978942068971       -3.52893859332537        0.81498151165296
H           -0.87302417303394       -3.50131725072819       -0.96300647458148
H           -2.37938357781830       -3.01450786280640       -0.08785491525487
H            1.59768012704831       -3.09709870127692       -0.00101605411346
25