25
 energy: -43.835005902767 gnorm: 0.103433670129 xtb: 6.6.1 (8d0f1dd)
C            3.25879348614699        1.18190776939165        0.06634724616675
N            2.31499128690556        0.08416909763842        0.03431288100939
C            2.58860355518883       -1.23058911235797        0.03527193983654
N            1.42979112472093       -1.94327045199336        0.00832579860339
C            0.39146834078104       -1.06352631990602       -0.00154452489513
C            0.93340584468992        0.21054629450648        0.02940797174487
C            0.09850731230119        1.39727322194578        0.00011971357350
O            0.50390986690406        2.54852320104042        0.00461539743431
N           -1.25372464526566        1.05633790808756       -0.03101469592463
C           -2.21769141235062        2.15091564025227       -0.05430322362853
C           -1.82126135033367       -0.20133977083825       -0.04848259920243
O           -3.00804771746695       -0.37925639589421       -0.07391404169630
N           -0.93157953279562       -1.30393517378552       -0.03594874081021
C           -1.47688719469735       -2.64640774224724       -0.06051769566083
H            3.77477072281038        1.17641046093243        1.02863929343228
H            4.01555239865552        1.15924838973492       -0.71747626748807
H            2.68283389628357        2.10012102992903       -0.01617826431517
H            3.56843924897047       -1.66025753849745        0.05826106998745
H           -1.66483694030344        3.08720919376891       -0.03006684177420
H           -2.82161323026101        2.09199701609474       -0.95937706766976
H           -2.87703135677434        2.07994543967765        0.80851798737907
H           -1.18107237253771       -3.19760455481331        0.83269470661684
H           -1.15273908156508       -3.17783812721502       -0.95575974128409
H           -2.56251871556313       -2.55432592991743       -0.07700089601724
H            1.36868101618396       -2.94863842134196       -0.00616593220814
25
 energy: -43.838772993162 gnorm: 0.038781633322 xtb: 6.6.1 (8d0f1dd)
C            3.25319462624181        1.18798301835539        0.08050243717499
N            2.31987271028099        0.09859425817061        0.03219587144614
C            2.60452154977708       -1.24082194673485        0.03096916355067
N            1.42512606719028       -1.94246248961214        0.00602206442763
C            0.39933306023037       -1.05725015728361       -0.00340902494169
C            0.93313643024517        0.22156332341935        0.02077666568852
C            0.10643827448061        1.39024532084586       -0.00253770079942
O            0.50007731174361        2.55955490633050        0.00294882212452
N           -1.25993458665344        1.04765175656622       -0.03164692017727
C           -2.21761843383962        2.14480811603178       -0.05415689265023
C           -1.82286778673388       -0.20110258949862       -0.04874821612871
O           -3.01975068902283       -0.38349825821298       -0.07431264500973
N           -0.93476251621145       -1.30027554242286       -0.03545964485046
C           -1.47540398393462       -2.64118849624524       -0.05962374668221
H            3.78284612525630        1.18486060598919        1.03782193445139
H            3.99016554588421        1.13236553068715       -0.72352146261206
H            2.67845659933039        2.10764797622053       -0.01192171677755
H            3.57847535587390       -1.67409499994431        0.05704677425626
H           -1.65218945770141        3.07398943678085       -0.03026393405885
H           -2.82177398817720        2.09183093380837       -0.95981481315784
H           -2.87735461195682        2.07925336227148        0.81033476839054
H           -1.17630036057797       -3.19436904755351        0.83286731248828
H           -1.14783008381149       -3.17412785643371       -0.95456587402160
H           -2.56080971203188       -2.54794627018747       -0.07630385186301
H            1.35569710474573       -2.94559576715544       -0.00643589705868
25
 energy: -43.839415803050 gnorm: 0.016470936994 xtb: 6.6.1 (8d0f1dd)
C            3.25580585641149        1.18655129928571        0.07296765452697
N            2.31968445433513        0.10585657118713        0.01798481547282
C            2.60990537830301       -1.24556796549576        0.03040205790232
N            1.42217701194110       -1.94423943676366        0.01081770257931
C            0.40245561718181       -1.06056999923189        0.00008440734397
C            0.92916723887650        0.22361200175578        0.01894753389211
C            0.11570409340771        1.38158813329438        0.00433459813370
O            0.50292836934532        2.55839952890110        0.00845771177631
N           -1.26345249766526        1.04713169418946       -0.02776528939024
C           -2.21841334381076        2.14830301884992       -0.05410918604486
C           -1.81708504065301       -0.19798401758455       -0.04668648651395
O           -3.01773834989576       -0.38173293060841       -0.07520586219743
N           -0.93870161702889       -1.30245847301106       -0.03286851477961
C           -1.47964153071518       -2.64342093451465       -0.06074543237570
H            3.77515539321405        1.17706469536595        1.03369441893566
H            4.01267705954333        1.15212850484680       -0.71698612533418
H            2.68324634150581        2.10590623998471       -0.02017420568504
H            3.57980420661005       -1.67023341183153        0.06127240764658
H           -1.66630755457288        3.08644884603307       -0.02967479835191
H           -2.82189757403406        2.09235127253815       -0.95988493926764
H           -2.88144422816784        2.08097889466809        0.80781474196954
H           -1.18421469408753       -3.20208010279011        0.83065644130105
H           -1.15401890628786       -3.17969875637281       -0.95583086286501
H           -2.56501876990312       -2.55344217906894       -0.07866387196974
H            1.35996763677464       -2.94727736943434       -0.00007544349536
25
 energy: -43.839615694911 gnorm: 0.009811497832 xtb: 6.6.1 (8d0f1dd)
C            3.25238515471632        1.18257374607141        0.07800770442430
N            2.31461654303777        0.10420558431604        0.02787861329126
C            2.60426077702679       -1.24541134357332        0.03504390831108
N            1.41892726439634       -1.94336603228235        0.00801969997273
C            0.40027338695927       -1.06164867393414        0.00048824170381
C            0.92469271534019        0.22343208238762        0.02459210209102
C            0.11507763890782        1.38116039518937       -0.00159735021228
O            0.49715452971480        2.55736717321654        0.00000994324623
N           -1.26618739769147        1.04764048134433       -0.03313048022519
C           -2.21687057367962        2.14932920777145       -0.05512285227346
C           -1.81634916685584       -0.19757637289389       -0.04964590809093
O           -3.01566472667695       -0.38348846127543       -0.07519229757056
N           -0.93952342159609       -1.30175190867987       -0.03528585330393
C           -1.47558952780738       -2.64260326171595       -0.05915270891608
H            3.78237291598047        1.17724934035174        1.03308330786388
H            4.00035716926018        1.14797324066046       -0.72094707426717
H            2.68032534970042        2.10284702059144       -0.00883495127478
H            3.57453532422045       -1.66643155349464        0.05848468625206
H           -1.65527190259909        3.08158002430534       -0.03164482991249
H           -2.82314373450338        2.09495205741388       -0.95919528419744
H           -2.87454405500792        2.08221089371824        0.81086642854062
H           -1.17498501284855       -3.19458172063531        0.83462159649506
H           -1.14775879415431       -3.17755948476340       -0.95405625277948
H           -2.56090466606904       -2.55355385217978       -0.07504853016883
H            1.36255876085663       -2.94693345771723       -0.01347838578979
25
 energy: -43.839638049056 gnorm: 0.006247097504 xtb: 6.6.1 (8d0f1dd)
C            3.25354345395743        1.18239819101682        0.07576707616997
N            2.31674710613800        0.10207714880740        0.02824452539191
C            2.60434786776116       -1.24512596249824        0.03582020577834
N            1.42047675943307       -1.94201960389355        0.01146399321374
C            0.40129369151274       -1.06148652564318       -0.00077439114205
C            0.92686044930794        0.22358223723982        0.02422483091776
C            0.11655035743624        1.38369295547003        0.00097785114732
O            0.49657212842454        2.55838528025421        0.00687723385783
N           -1.26554958081624        1.04868251169277       -0.03035883444305
C           -2.21920077704979        2.14596912051125       -0.05367069789402
C           -1.81531117944000       -0.19728635310607       -0.04821472367906
O           -3.01371703103371       -0.38427957079864       -0.07342930769842
N           -0.93767338018947       -1.30048262373223       -0.03608500851005
C           -1.47713839256393       -2.63988117290809       -0.06203743610468
H            3.78027356817233        1.18565523339815        1.03339094679209
H            4.00120168687854        1.13740487931597       -0.72257071499313
H            2.68309118950925        2.10409512286628       -0.02048040518674
H            3.57627297882575       -1.66743927976676        0.05744033964384
H           -1.65751188618000        3.07737894233939       -0.02788688559963
H           -2.82128604283324        2.08989501302852       -0.96041793414520
H           -2.88057750488000        2.07672620730638        0.80937282547445
H           -1.18007660657318       -3.19546364875169        0.83033901117155
H           -1.15119514339811       -3.17289077276260       -0.95823008035381
H           -2.56224698941170       -2.54585682285744       -0.07883986476857
H            1.36499782764019       -2.94611538233598       -0.00215908183073
25
 energy: -43.839697080819 gnorm: 0.004142358126 xtb: 6.6.1 (8d0f1dd)
C            3.25335242544174        1.18404514347451        0.07813931048090
N            2.31843091937071        0.10160581168535        0.02324954851777
C            2.60523274629406       -1.24588285863611        0.03033981547846
N            1.42055615428199       -1.94199222447613        0.00668682867127
C            0.40111946881754       -1.06173405956735       -0.00375884237769
C            0.92788432413381        0.22335089272168        0.01959279653676
C            0.11800116278102        1.38395688412499       -0.00041017865426
O            0.49848537208616        2.55846771334218        0.00503351376339
N           -1.26547200021516        1.04909372627144       -0.03063720773802
C           -2.21839411529589        2.14774255611585       -0.05466907794995
C           -1.81645997666005       -0.19708851318587       -0.04757179239503
O           -3.01543482106701       -0.38324023814206       -0.07321231590703
N           -0.93846786720895       -1.30106372850880       -0.03542734586278
C           -1.47732387125231       -2.64208720103678       -0.05872876989660
H            3.77716123073656        1.17964062473942        1.03740289669491
H            4.00361187265986        1.14613945906333       -0.71772498095577
H            2.68159656065611        2.10590887499550       -0.01282429028111
H            3.57760361188929       -1.66957280562653        0.05559791759594
H           -1.65859906122063        3.08041238785515       -0.03118901712860
H           -2.82226030577355        2.09220237560330       -0.96019140867514
H           -2.87943828584724        2.08152901024822        0.80877259579708
H           -1.17996446012187       -3.19761121588717        0.83360026520684
H           -1.15137044329952       -3.17790306495448       -0.95322958710394
H           -2.56288840094125       -2.55209336134152       -0.07554268743024
H            1.36378231038238       -2.94621106468562       -0.00453451317751
25
 energy: -43.839693945155 gnorm: 0.003804358801 xtb: 6.6.1 (8d0f1dd)
C            3.25360237452735        1.18371968338114        0.07467239224117
N            2.31778532830964        0.10226186809366        0.02573307577046
C            2.60454744747322       -1.24606142014010        0.03628479425891
N            1.41941829130636       -1.94212519591119        0.00997296325409
C            0.40036048928890       -1.06191333521921        0.00078678486256
C            0.92664013556412        0.22362154255346        0.02391479296991
C            0.11803629860226        1.38294933242639        0.00106093483114
O            0.49769037424576        2.55825387522850        0.00359555865962
N           -1.26654991325006        1.04832462096532       -0.03078766023815
C           -2.21758740989179        2.14879284617123       -0.05395629950769
C           -1.81736971963403       -0.19739014260151       -0.04847350816901
O           -3.01668216031008       -0.38350021201138       -0.07706721834473
N           -0.93950292984411       -1.30144119243651       -0.03423674289410
C           -1.47644386866750       -2.64295678341092       -0.06095852953555
H            3.78225215147803        1.17886204701895        1.03097514887377
H            4.00175845456770        1.14730651429248       -0.72364007065351
H            2.68098047862731        2.10468461808739       -0.01442175475405
H            3.57652063221998       -1.66873824629966        0.06288028229594
H           -1.65852929998437        3.08229773296200       -0.02985721810766
H           -2.82304000029388        2.09507375298947       -0.95859362171289
H           -2.87705888204235        2.08196796451297        0.81057431300219
H           -1.17844449795842       -3.19832966122055        0.83137007326857
H           -1.14816474953622       -3.17714548388737       -0.95593401023500
H           -2.56207580636559       -2.55454306388349       -0.07883625925871
H            1.36260133219558       -2.94635653746854       -0.00629474766763
25
 energy: -43.839721905554 gnorm: 0.002059184269 xtb: 6.6.1 (8d0f1dd)
C            3.25377714646557        1.18318134114441        0.07682568330141
N            2.31761896117949        0.10230278745795        0.02627446099767
C            2.60449558240246       -1.24559655102985        0.03430936026715
N            1.42002996726643       -1.94200392730566        0.00860364891899
C            0.40085780405313       -1.06205440492378       -0.00025744582497
C            0.92654932150985        0.22373956453003        0.02358816899242
C            0.11829102919474        1.38298743027802        0.00044465427502
O            0.49700285434399        2.55833439018752        0.00367922240150
N           -1.26639521125367        1.04794960855066       -0.03112703710139
C           -2.21806556243872        2.14716470503703       -0.05474858253909
C           -1.81649338762061       -0.19756777800327       -0.04826654709886
O           -3.01550658766085       -0.38420051243888       -0.07433915206911
N           -0.93875458469923       -1.30114673885861       -0.03473856422747
C           -1.47716532215346       -2.64143611917023       -0.05998488689493
H            3.77979423047959        1.18049215762378        1.03453760915461
H            4.00377546319918        1.14457806000076       -0.71959400801461
H            2.68187274450974        2.10409192663047       -0.01535546326474
H            3.57659922581172       -1.66740581307040        0.05717977961830
H           -1.65862993796109        3.08039899761877       -0.03013909858763
H           -2.82216103088598        2.09202351606068       -0.96027718221713
H           -2.87829306007219        2.07923984911475        0.80921772529157
H           -1.17859609379658       -3.19574511937927        0.83278235418589
H           -1.15133994141542       -3.17594294821435       -0.95563419455933
H           -2.56250343575186       -2.54944069763838       -0.07596618444576
H            1.36398437592158       -2.94632860000961       -0.00825084734986
25
 energy: -43.839722338661 gnorm: 0.001742776928 xtb: 6.6.1 (8d0f1dd)
C            3.25294956003666        1.18353274431528        0.07675835999933
N            2.31770972186214        0.10162305133925        0.02470664440673
C            2.60424596962664       -1.24578699311104        0.03292981613935
N            1.42011978283943       -1.94204365751056        0.00922374412137
C            0.40072292847294       -1.06214885402370       -0.00226210258935
C            0.92674561253810        0.22353273488262        0.02132911182334
C            0.11862301706514        1.38361994863507       -0.00024791859606
O            0.49757050746717        2.55846961288674        0.00511327448625
N           -1.26616452026564        1.04859767983357       -0.03095043486150
C           -2.21789177805093        2.14780933341752       -0.05399538394375
C           -1.81642689579697       -0.19716220816735       -0.04854407986227
O           -3.01527362743439       -0.38350255862663       -0.07366921959290
N           -0.93866077004526       -1.30114208242381       -0.03583557408507
C           -1.47673017178083       -2.64208483389688       -0.06030264255612
H            3.77855251625677        1.18071586652788        1.03488008192166
H            4.00210660827108        1.14480070522458       -0.72024487386166
H            2.68108816884802        2.10480632225170       -0.01446779503876
H            3.57657226686051       -1.66828238899228        0.05702087704432
H           -1.65724434341542        3.08019570444595       -0.03003795222884
H           -2.82211101785838        2.09301213128273       -0.95944852854278
H           -2.87854577649980        2.08137008730422        0.80985473810879
H           -1.17925602656724       -3.19688620550854        0.83246662149133
H           -1.14958734095903       -3.17707250382274       -0.95499030460810
H           -2.56219756479977       -2.55191575151975       -0.07777573517521
H            1.36382772395687       -2.94644276055132       -0.00274725079042
25
 energy: -43.839723880435 gnorm: 0.001369697536 xtb: 6.6.1 (8d0f1dd)
C            3.25416986639349        1.18348398772021        0.07646101403401
N            2.31832203624692        0.10189997074340        0.02571175882486
C            2.60461617498370       -1.24578833878724        0.03431439083810
N            1.42024294420142       -1.94181099578458        0.00779895628318
C            0.40083204620026       -1.06190674924428       -0.00086043152107
C            0.92698543083003        0.22384909881098        0.02303492076839
C            0.11870689276431        1.38360407933092        0.00098052508601
O            0.49745277826184        2.55868773352728        0.00454493645592
N           -1.26644358989141        1.04847297769264       -0.03052698303339
C           -2.21855000999977        2.14750839485097       -0.05478365531750
C           -1.81671962574326       -0.19720527610102       -0.04765200400316
O           -3.01566677362543       -0.38369825265615       -0.07504858375698
N           -0.93875159545019       -1.30104297677766       -0.03446775822064
C           -1.47714608587699       -2.64190745603470       -0.05976072770946
H            3.78116668050480        1.17974827536296        1.03378480441682
H            4.00293659187047        1.14521385330642       -0.72104410043287
H            2.68252840449566        2.10491719474026       -0.01416781688948
H            3.57685055182612       -1.66855806267939        0.05958500911001
H           -1.65960980479363        3.08095205725317       -0.03065587265809
H           -2.82274979666088        2.09231246378993       -0.96024696409328
H           -2.87925784976351        2.08040025287890        0.80890483390432
H           -1.17908036155178       -3.19759221390114        0.83230185244077
H           -1.15099531145574       -3.17630464060481       -0.95519835923201
H           -2.56264275926017       -2.55150660412637       -0.07610949486368
H            1.36354771612159       -2.94611364911818       -0.00813677722112
25
 energy: -43.834940898672 gnorm: 0.078293246182 xtb: 6.6.1 (8d0f1dd)
C            3.27779929990375        1.19743798141393        0.04575380588799
N            2.33139519464064        0.08882310569439        0.02554419337611
C            2.59581081886658       -1.24684996175033        0.04130880216401
N            1.42141456516520       -1.95142397764824        0.01624867476956
C            0.39254551923900       -1.06769244961246        0.00511223506733
C            0.93593088337715        0.20242725865457        0.03386391105167
C            0.10256201985352        1.38941539636788        0.00401890770536
O            0.50445333635556        2.54754086621531        0.01453196563192
N           -1.25671780335088        1.04998784273618       -0.03123209734381
C           -2.21617504221307        2.14695246798889       -0.05874875530495
C           -1.82462044889990       -0.20259599196431       -0.05029914938145
O           -3.01572008551966       -0.38011281969813       -0.07807451810926
N           -0.93696966929388       -1.30569831397342       -0.03498785436512
C           -1.48395133610563       -2.64637188872219       -0.06067768997990
H            3.83529622026682        1.13554767002440        0.99213027991263
H            4.01741779368378        1.28398280012754       -0.76197041848570
H            2.66425238250726        2.10199864910582        0.05893497974426
H            3.56918924523162       -1.68220882609879        0.07559096741337
H           -1.65859520944289        3.08138605945819       -0.03477654817016
H           -2.81886012257166        2.08968241548835       -0.96552561263369
H           -2.87725905101760        2.08255465268776        0.80258789841550
H           -1.19151613423424       -3.19939919921228        0.83300596764050
H           -1.15987440036691       -3.18055210883455       -0.95460598100152
H           -2.56948885412682       -2.55200060127164       -0.07948831335563
H            1.35630039627584       -2.95391745052222        0.00194954445726
25
 energy: -43.837412840237 gnorm: 0.034334042113 xtb: 6.6.1 (8d0f1dd)
C            3.26023575600655        1.19760465370343        0.07317261641147
N            2.33056880688279        0.09957541896833        0.02401245483606
C            2.60901619203533       -1.24966980297255        0.03200582792889
N            1.42256878419900       -1.94589355007176        0.01183345192783
C            0.40164684137769       -1.05882666375254        0.00035738186725
C            0.93709306421631        0.21773479737793        0.01981055926558
C            0.11067672474962        1.38516775048787       -0.00009597269196
O            0.49956399751999        2.55584973154197        0.01273566944182
N           -1.25950725562925        1.04444062112363       -0.03233529903976
C           -2.21474213783992        2.14286425072658       -0.05847624249450
C           -1.82206737420252       -0.20207156556747       -0.05054557470033
O           -3.01961038533822       -0.38443202486159       -0.07851632125957
N           -0.93554523088869       -1.30060618806268       -0.03449463570121
C           -1.47916237910147       -2.64029786562495       -0.05915654695934
H            3.84080065957997        1.14610223655194        1.00208707222617
H            3.96306298175199        1.22161315792887       -0.76800756483417
H            2.66242167758603        2.10977912607503        0.06545143558078
H            3.57899097249287       -1.68819286728193        0.07181103309863
H           -1.64696159628016        3.07083130530058       -0.03526579821745
H           -2.81764446839649        2.08970759464109       -0.96523752039337
H           -2.87644945911774        2.08137144069057        0.80466717389996
H           -1.18454280056195       -3.19531135316940        0.83382258535708
H           -1.15286249964826       -3.17558188801224       -0.95331107012026
H           -2.56459084133678       -2.54426447434601       -0.07803436741709
H            1.35165948816691       -2.94858026474005        0.00190484709379
25
 energy: -43.838399946329 gnorm: 0.013745503243 xtb: 6.6.1 (8d0f1dd)
C            3.26545735526046        1.19817322456583        0.06493518509148
N            2.33387397679679        0.10341538619109        0.00385811365817
C            2.61295844211437       -1.25359694023917        0.02958931946945
N            1.42038166696535       -1.94673974892819        0.01735444151033
C            0.40366998889791       -1.06026606897808        0.00392387800143
C            0.93818081996566        0.22092692985047        0.01570709988693
C            0.11804131171797        1.37784123616425        0.00657671644629
O            0.50076567553290        2.55396720970153        0.01691437632127
N           -1.26181064309174        1.04235092560269       -0.02810825563206
C           -2.21560972663967        2.14324634782214       -0.05846395441151
C           -1.82009126124302       -0.20126032188586       -0.04781587135189
O           -3.02051994461516       -0.38363654022012       -0.07912362848345
N           -0.93910656385909       -1.30232502909098       -0.03069662307381
C           -1.48508451004900       -2.64194845553666       -0.06000092998283
H            3.83615273670591        1.14003689178982        0.99444357293809
H            3.98963492336425        1.25752190657593       -0.75629985591843
H            2.66783358416604        2.10703726804823        0.05897339941027
H            3.57879829888195       -1.69209226827491        0.07926082774311
H           -1.65503056716986        3.07573972318040       -0.03476392743039
H           -2.81771170630121        2.08838732703090       -0.96560407634470
H           -2.88068713619989        2.08171386441518        0.80260786292989
H           -1.19442312224581       -3.20200099058460        0.83175449597187
H           -1.16009004082346       -3.17950320038175       -0.95437334358196
H           -2.57073307051016       -2.54780792521149       -0.08082428839613
H            1.34976903060211       -2.95026717495198        0.01037066033485
25
 energy: -43.838501927117 gnorm: 0.008728654554 xtb: 6.6.1 (8d0f1dd)
C            3.26581073965554        1.19386913323621        0.06406661827722
N            2.32944813202599        0.10214351238057        0.01561580625896
C            2.60712728265780       -1.25378997318984        0.03945556260441
N            1.41663074374348       -1.94732453768141        0.01740127573861
C            0.40042954295004       -1.06288954172780        0.00839900961953
C            0.93309547259090        0.22003310122129        0.02802322930065
C            0.11781927576378        1.37682277898021        0.00428537735098
O            0.49703317359245        2.55323781124953        0.01221133645332
N           -1.26549607821251        1.04395023639364       -0.03297739591674
C           -2.21512227309505        2.14713433478563       -0.05977931124205
C           -1.82036269181024       -0.20007940587314       -0.05170847535422
O           -3.02007922125043       -0.38334671278309       -0.08127286775668
N           -0.94149474479049       -1.30273483530446       -0.03296437929890
C           -1.48065593163136       -2.64362547714795       -0.05946612214628
H            3.84063677886600        1.13859189865649        0.99218322744718
H            3.98921532085577        1.25799208623345       -0.76297765692307
H            2.66588764082057        2.10210489371709        0.06338118346502
H            3.57314417527861       -1.68784195272996        0.07710702802767
H           -1.65150566194335        3.07797218393639       -0.03626036780453
H           -2.82040031151121        2.09362133369504       -0.96493606630116
H           -2.87546536251496        2.08509198887247        0.80459185228920
H           -1.18350010165708       -3.19676256228747        0.83453601193360
H           -1.15260709157714       -3.18053101126231       -0.95315949289039
H           -2.56631695623204       -2.55354059375798       -0.07792791629510
H            1.35134766564850       -2.95118511295795       -0.00763227173093
25
 energy: -43.838594206930 gnorm: 0.005174471433 xtb: 6.6.1 (8d0f1dd)
C            3.26528127043341        1.19458308788763        0.06435911275446
N            2.33047417920554        0.10162568197427        0.01475902072104
C            2.60844847746484       -1.25292525406226        0.03790467315582
N            1.41930418773194       -1.94701531477558        0.01954102041677
C            0.40217180872137       -1.06447853905623        0.00517761483906
C            0.93387873334497        0.21929585313134        0.02535519328019
C            0.12025330546968        1.37749388251480        0.00280258654979
O            0.49787836798460        2.55357404358424        0.01359253979715
N           -1.26452873005896        1.04416087889862       -0.03176208871979
C           -2.21591133203577        2.14419826095067       -0.05861573290618
C           -1.81775594000515       -0.20006914834374       -0.05002375651977
O           -3.01695438787986       -0.38446395165278       -0.07654460177160
N           -0.93957949805755       -1.30275157305283       -0.03455896984952
C           -1.48369644405342       -2.64115807730087       -0.06122052264518
H            3.83640081510517        1.14248459862123        0.99611697909786
H            3.98989142387131        1.25126681033126       -0.76312894474859
H            2.66559904003959        2.10468283933624        0.05897780194178
H            3.57595003456223       -1.68503770373450        0.07319801833927
H           -1.65322364496328        3.07522886376621       -0.03397843639337
H           -2.81823317243235        2.08795843366165       -0.96550089903380