25
 energy: -43.834612305125 gnorm: 0.106620863060 xtb: 6.6.1 (8d0f1dd)
C            3.23816776880710        1.17704157379979        0.08512085715728
N            2.31986738297800        0.07972469054587        0.03780573323881
C            2.60959286522385       -1.24418142830531        0.02968970830237
N            1.43107574400248       -1.93258788438011       -0.00308756377222
C            0.39899475957068       -1.05211988238731       -0.00850012077860
C            0.94284926079228        0.22470441383861        0.01478262870845
C            0.10392844532230        1.40004623921021       -0.00329516597376
O            0.49392488862154        2.55319371390856       -0.00294806609495
N           -1.25903710887067        1.06038792319835       -0.03038030232868
C           -2.22654282152348        2.15304651085257       -0.04946428222732
C           -1.82274533038803       -0.19611596036600       -0.04688778292646
O           -3.00615063856777       -0.37876587876895       -0.07007898912214
N           -0.92810008122767       -1.29401678755262       -0.03693857191458
C           -1.46885863588174       -2.64177307055284       -0.06015653177150
H            3.70699811454473        1.23206391246214        1.06881404633781
H            4.01188391147070        1.04917695738162       -0.67010549796562
H            2.68694250655488        2.10556836720226       -0.10150132445628
H            3.60607083204130       -1.76789247892491        0.04165221904301
H           -1.67929952355539        3.09150661812561       -0.02492679963609
H           -2.83269289209260        2.09421443721367       -0.95255411315973
H           -2.88573847707979        2.07723846183555        0.81497646996682
H           -1.16808484010749       -3.19142925854748        0.83255737069098
H           -1.14256395584886       -3.17099999701391       -0.95631001832890
H           -2.55420866604778       -2.55184381717216       -0.07491253434891
H            1.36742389753663       -2.93964662623862       -0.01553069566225
25
 energy: -43.838896539071 gnorm: 0.035052382627 xtb: 6.6.1 (8d0f1dd)
C            3.24653957667648        1.18054260619091        0.08673208413836
N            2.32291770286655        0.09026495728422        0.03492612781311
C            2.61226257639201       -1.25206668516652        0.02911933510529
N            1.42196840808535       -1.93941031805167       -0.00240116732600
C            0.40115627202112       -1.05390134851051       -0.00928132271230
C            0.93830631520230        0.22562889412846        0.01318079242974
C            0.11141971971816        1.39096915746097       -0.00489062285744
O            0.49387140391226        2.56297855562096       -0.00440733563802
N           -1.26197405674007        1.04915905525334       -0.03065656707143
C           -2.22214620824631        2.14508294932405       -0.04916037572284
C           -1.82365748862184       -0.19886123492499       -0.04727229152978
O           -3.01935187474767       -0.38404166057002       -0.07026505997077
N           -0.93356733853352       -1.29559253904280       -0.03741332513022
C           -1.46983135378907       -2.63911109867517       -0.06014191241404
H            3.71936272939977        1.24004105684272        1.07105624738995
H            4.02044623961281        1.05693506522788       -0.67232942867064
H            2.68957359117868        2.10044499063482       -0.09602362466173
H            3.57735833989481       -1.73734504333120        0.04115953548528
H           -1.66215620749628        3.07705597000040       -0.02451933222991
H           -2.82896275060077        2.09219788917833       -0.95313312627192
H           -2.88141410721708        2.07535984658302        0.81618399071940
H           -1.16550123251840       -3.18944379832668        0.83219844999080
H           -1.14000637193727       -3.16942490161804       -0.95563089361406
H           -2.55500518451218       -2.54795448520876       -0.07483121183465
H            1.35208870627535       -2.94296713093913       -0.01437829243864
25
 energy: -43.839250017769 gnorm: 0.016824607120 xtb: 6.6.1 (8d0f1dd)
C            3.24163687627531        1.17808078010746        0.08445795055347
N            2.32542757749111        0.08940436269938        0.03276266224953
C            2.62506275952442       -1.26347047831364        0.03124507440752
N            1.42655336126884       -1.94338521060414       -0.00212861552902
C            0.40933914950651       -1.05658319415416       -0.00814866409967
C            0.93729427909257        0.22484310019175        0.01462507661060
C            0.12078394893072        1.38662893117896       -0.00139727841330
O            0.49966214391855        2.56473259502528        0.00010576332073
N           -1.26319247818157        1.05481822018820       -0.02876249463440
C           -2.22814300073637        2.15082014528654       -0.04929906977083
C           -1.81306956677863       -0.19166106704371       -0.04609735945165
O           -3.01235426699148       -0.37992749655886       -0.07051168519826
N           -0.93071615216273       -1.29337744395497       -0.03636812573346
C           -1.46705387414811       -2.63561841412377       -0.06016311471542
H            3.70599152189297        1.23393501133018        1.07281995339244
H            4.01623611811258        1.04600524777346       -0.67193888352885
H            2.68423795434885        2.09585735328694       -0.10470313071137
H            3.58093407939599       -1.73871665201944        0.04214927043860
H           -1.68858034859235        3.09582500198141       -0.02482567597135
H           -2.83669903399489        2.09408789624759       -0.95222987887463
H           -2.89143926102798        2.07754671904469        0.81277847295412
H           -1.16627042674598       -3.19107195349611        0.83128911588648
H           -1.14037637751298       -3.16982633245376       -0.95556015512085
H           -2.55223814422760       -2.54767872562402       -0.07507870047468
H            1.36067056761743       -2.94472764663066       -0.01719983460818
25
 energy: -43.839533320444 gnorm: 0.008602303452 xtb: 6.6.1 (8d0f1dd)
C            3.24052381600944        1.18086607183094        0.08689090229025
N            2.32217195438740        0.09238878461659        0.03317182463325
C            2.62302127230604       -1.26153368481200        0.03048744111464
N            1.42358364754550       -1.93933127461172       -0.00170204966634
C            0.40606581925715       -1.05577464963019       -0.00875445594178
C            0.93298702204859        0.22646225462932        0.01389682268265
C            0.11705291230862        1.38454093871228       -0.00574775164258
O            0.48876865731000        2.56301018629187       -0.00657670474971
N           -1.26754844115982        1.05108982521795       -0.03147550662982
C           -2.22320717806017        2.15053161337341       -0.04927092141239
C           -1.81595263370138       -0.19445026512097       -0.04737254300370
O           -3.01454508051296       -0.38430249009884       -0.07030794106295
N           -0.93437790224038       -1.29520828073611       -0.03711198972514
C           -1.46918189856800       -2.63800353053045       -0.05973474369107
H            3.71291758051655        1.23352569152857        1.07139343201112
H            4.01332131892433        1.05434007472162       -0.67195650487404
H            2.68818703365805        2.10386356302650       -0.09414245040207
H            3.58279171635849       -1.74081183554481        0.03983337433142
H           -1.66604761839491        3.08510309793529       -0.02528179079290
H           -2.83108603256852        2.09746109353622       -0.95278966541174
H           -2.88154077949601        2.08030131532073        0.81681793731281
H           -1.16766517767468       -3.19192361315101        0.83260319637459
H           -1.14229571925254       -3.17240800299275       -0.95515290027487
H           -2.55487443122708       -2.55231649691311       -0.07449712832431
H            1.36062754850150       -2.94087963723469       -0.01539921016779
25
 energy: -43.839519856176 gnorm: 0.006486795546 xtb: 6.6.1 (8d0f1dd)
C            3.24581622994369        1.17830396599914        0.08446961538794
N            2.32262195778417        0.09185311346386        0.03376554961776
C            2.61860130663366       -1.26070525110446        0.03231719121933
N            1.41978229840335       -1.93740210434114       -0.00138493811047
C            0.40402882638588       -1.05373332850803       -0.00862825087449
C            0.93381554528421        0.22830039312227        0.01522025180407
C            0.11860585067464        1.38733374340991       -0.00154055278697
O            0.49023250468539        2.56381516339193        0.00052403080606
N           -1.26709714936976        1.05207087784933       -0.02906902347824
C           -2.22641049239345        2.14596092767173       -0.04901264005960
C           -1.81683706309258       -0.19340876456443       -0.04662597976688
O           -3.01474602464033       -0.38313107691014       -0.07055333084238
N           -0.93521696250049       -1.29314695483242       -0.03714604385336
C           -1.46903590065839       -2.63547720854249       -0.06107603160771
H            3.71767974710070        1.24032519878561        1.06904111489586
H            4.02182930518443        1.05061614761604       -0.67163882051365
H            2.69323582158303        2.09980796537660       -0.10384449646344
H            3.58080590103080       -1.74327709221529        0.04264420236534
H           -1.67159791174065        3.08105032704501       -0.02338844709015
H           -2.83086582943338        2.08838790359380       -0.95435618331395
H           -2.88710721416748        2.07122914474907        0.81479111495087
H           -1.16573574029602       -3.18831154929172        0.83117012372968
H           -1.14000544904786       -3.16686365360943       -0.95732318315217
H           -2.55466869602529       -2.54690827213451       -0.07588890090628
H            1.35596654494694       -2.94014886665568       -0.01464569897963
25
 energy: -43.839601560644 gnorm: 0.003255190771 xtb: 6.6.1 (8d0f1dd)
C            3.24242013823226        1.17861504384739        0.08701843492472
N            2.32245270406879        0.09071377380935        0.03285770431779
C            2.61944510485222       -1.26115996941343        0.02994111782197
N            1.42146476931808       -1.93932844838388       -0.00336191576512
C            0.40501480371767       -1.05608602537975       -0.00968817576430
C            0.93408789715276        0.22646974238346        0.01339478214736
C            0.12089657543658        1.38667044137130       -0.00460014620438
O            0.49396715940049        2.56277162658365       -0.00400599590443
N           -1.26608082050403        1.05272958423540       -0.03062469642269
C           -2.22474683173886        2.14872555108900       -0.04942667633307
C           -1.81573293961111       -0.19338888374992       -0.04671690083146
O           -3.01397157487811       -0.38272205709037       -0.06966936272885
N           -0.93451000395180       -1.29446403976135       -0.03706350829370
C           -1.46845185443344       -2.63711430787945       -0.05938943681949
H            3.71217151101606        1.23708515921835        1.07287889167020
H            4.01783288349421        1.05440645719367       -0.67039645560006
H            2.68560994878057        2.09848616463543       -0.09773514122013
H            3.58180920636622       -1.74055518662769        0.03996988686032
H           -1.67224047396263        3.08534375140128       -0.02554538039295
H           -2.83260755316256        2.09343746731008       -0.95256741138331
H           -2.88469188109420        2.07723950422669        0.81514198763403
H           -1.16540300533490       -3.18991445244058        0.83293826069318
H           -1.14016684715067       -3.17027126719007       -0.95481401901554
H           -2.55398926889239       -2.54865554425883       -0.07395184852551
H            1.35911775915397       -2.94249333576514       -0.01676332188703
25
 energy: -43.839586077729 gnorm: 0.003762907843 xtb: 6.6.1 (8d0f1dd)
C            3.24252073831993        1.17926540904278        0.08445032149918
N            2.32265198465175        0.09186088459532        0.03347587324045
C            2.62093557751458       -1.26055151428620        0.03251210087735
N            1.42299627062397       -1.93883932887478        0.00023574663337
C            0.40586642281046       -1.05633342561770       -0.00747995589414
C            0.93352724019481        0.22702401069029        0.01536447488164
C            0.11986050484606        1.38629545260465       -0.00311066081400
O            0.49007283080719        2.56375554114250       -0.00303813668626
N           -1.26778923503675        1.05194367199565       -0.03010665213700
C           -2.22471805503817        2.14978145675578       -0.04877945897579
C           -1.81591341026599       -0.19426653975505       -0.04717507840448
O           -3.01432016446801       -0.38452670155277       -0.07169669174407
N           -0.93423590523706       -1.29515568060514       -0.03666565442700
C           -1.46886127915807       -2.63791310321601       -0.06124827715531
H            3.71473647951370        1.23440504073260        1.06910721972471
H            4.01477988191404        1.05047679458784       -0.67505807695768
H            2.68973170443643        2.10193913125253       -0.09910313442110
H            3.58231414830390       -1.73891246533902        0.04256212730536
H           -1.67125726886104        3.08620872295604       -0.02355910624371
H           -2.83209423810164        2.09716661729680       -0.95256885693259
H           -2.88522720634341        2.07916396560508        0.81555451571706
H           -1.16807890496085       -3.19277352553293        0.83054775457129
H           -1.14120975424495       -3.17102520809260       -0.95695530272392
H           -2.55443923510962       -2.55069641792006       -0.07685022062278
H            1.36184827916394       -2.94175203910098       -0.01259419733305
25
 energy: -43.839615122560 gnorm: 0.001586059698 xtb: 6.6.1 (8d0f1dd)
C            3.24295567167169        1.17910494730961        0.08639500748102
N            2.32300296432392        0.09143905431904        0.03308409626582
C            2.62037179926369       -1.26112009589400        0.03071572611772
N            1.42209218238043       -1.93852583989275       -0.00272213098181
C            0.40555133738645       -1.05573090537222       -0.00911587682094
C            0.93384647786388        0.22732331174568        0.01413540004486
C            0.12045796462696        1.38663151329759       -0.00387401878244
O            0.49043495543478        2.56387699249144       -0.00335821039765
N           -1.26744529813755        1.05203940001263       -0.03038617038066
C           -2.22501389473560        2.14846583746248       -0.04945999409806
C           -1.81595340685933       -0.19371693817434       -0.04680756164558
O           -3.01429358278792       -0.38371732262519       -0.07003270350315
N           -0.93440296046528       -1.29432360815833       -0.03698092027351
C           -1.46891840446095       -2.63684285733504       -0.05973181905160
H            3.71316714228860        1.23571587102576        1.07192188602513
H            4.01757749933723        1.05187575937593       -0.67092166483805
H            2.68985413563481        2.10129338005746       -0.09857309959005
H            3.58166720876414       -1.74111762537983        0.04037203074532
H           -1.67161121808599        3.08487133370859       -0.02502277524286
H           -2.83199486941900        2.09342042070438       -0.95339600605203
H           -2.88503147602567        2.07667703674462        0.81520244053980
H           -1.16649134455698       -3.19009665753821        0.83249767505228
H           -1.14168802294565       -3.17021303756915       -0.95541632751221
H           -2.55453742267605       -2.54938630563910       -0.07406009410290
H            1.36009996845458       -2.94140291531247       -0.01664421602092
25
 energy: -43.839586088982 gnorm: 0.003574040314 xtb: 6.6.1 (8d0f1dd)
C            3.24162069988918        1.17890037734582        0.08522418784721
N            2.32268154736255        0.08991038662970        0.03326611569312
C            2.61906248364669       -1.26192456791412        0.03178908650079
N            1.42093574971580       -1.93939122273265       -0.00080211794988
C            0.40470851021630       -1.05638395111258       -0.00860344227668
C            0.93393860442071        0.22624232801972        0.01427254163241
C            0.12214209707500        1.38647188146512       -0.00398353481697
O            0.49405240035251        2.56247327356119       -0.00324799677741
N           -1.26632977627008        1.05257279185603       -0.03025869733422
C           -2.22407194971850        2.14867638970734       -0.04852134624116
C           -1.81591790269506       -0.19306917825836       -0.04704443803038
O           -3.01409371442531       -0.38219716036645       -0.07058128667703
N           -0.93476921566784       -1.29423023119053       -0.03712674886582
C           -1.46815526834154       -2.63700297304271       -0.06101148506235
H            3.71292850858178        1.23983505129867        1.07012918530521
H            4.01631198774182        1.05564913792573       -0.67297724933142
H            2.68296583346008        2.09763445604377       -0.09990662947764
H            3.58149424293233       -1.74208752442049        0.04216023355065
H           -1.67062655196958        3.08483684647060       -0.02420210860799
H           -2.83186886560099        2.09376642570179       -0.95182551079703
H           -2.88391997308190        2.07683342862718        0.81621427295004
H           -1.16573613969002       -3.19018216728829        0.83129953374002
H           -1.13810106117906       -3.16911374208530       -0.95642736770532
H           -2.55373252956796       -2.54910837777082       -0.07706672310018
H            1.35817768908827       -2.94257092910574       -0.01294780119043
25
 energy: -43.839615154760 gnorm: 0.001440284814 xtb: 6.6.1 (8d0f1dd)
C            3.24260608383737        1.17874221439813        0.08576352397883
N            2.32280093174632        0.09068078847015        0.03318114095931
C            2.61955646761894       -1.26119741895730        0.03117431551977
N            1.42160099587658       -1.93889636930949       -0.00163616593189
C            0.40503541791504       -1.05618045867292       -0.00874717739108
C            0.93377974281839        0.22679271723098        0.01431682256978
C            0.12141360964321        1.38664434015830       -0.00377438525344
O            0.49237001562408        2.56313132509670       -0.00319289211784
N           -1.26708886944143        1.05235949035549       -0.03029372998386
C           -2.22477139211521        2.14873878024039       -0.04907225585650
C           -1.81604894567701       -0.19347511465891       -0.04692505587131
O           -3.01423272286820       -0.38315631026546       -0.07053625705428
N           -0.93459629727299       -1.29442288323228       -0.03695019968576
C           -1.46847483559062       -2.63718600073384       -0.06035281382071
H            3.71388966169261        1.23711441714397        1.07079431149016
H            4.01696116628858        1.05357943408703       -0.67241084773386
H            2.68663388215367        2.09920257221888       -0.09872838282837
H            3.58182946338827       -1.74073359426273        0.04121404070259
H           -1.67154832604668        3.08510054130319       -0.02456426596727
H           -2.83226265084810        2.09422702546854       -0.95263774294800
H           -2.88506135262097        2.07731993526649        0.81537294650221
H           -1.16613925219649       -3.19067359226300        0.83179567603743
H           -1.13985239764605       -3.16994487868052       -0.95590423785113
H           -2.55404868934022       -2.54921110232494       -0.07555805503546
H            1.35934569933610       -2.94201510871226       -0.01450763945176
25
 energy: -43.830608903295 gnorm: 0.086243415492 xtb: 6.6.1 (8d0f1dd)
C            3.23867166549552        1.18777464562241        0.08574380544315
N            2.34093598079899        0.08003302444651        0.03516195206885
C            2.63860460532012       -1.27439881877849        0.02914282865490
N            1.43376366560634       -1.93330231253258       -0.00825870430955
C            0.40736676225874       -1.04505871942835       -0.00916096019799
C            0.95255141482302        0.23441070820633        0.01271912811704
C            0.11360988589817        1.39757925971679       -0.00203191900027
O            0.49013164534433        2.56411408289939       -0.00242487290820
N           -1.26744480649126        1.05960116776800       -0.02971421745262
C           -2.23404906847431        2.15121901514761       -0.04884685778256
C           -1.82411554802555       -0.19132473791826       -0.04676501891915
O           -3.01237360109321       -0.37915346190441       -0.07006469526984
N           -0.92847783250091       -1.28584622982336       -0.03696196730349
C           -1.46781734807145       -2.63714930789452       -0.06001304562523
H            3.70133646254749        1.24937803665756        1.07251457037385
H            4.01618434310766        1.06374909850974       -0.66617672034835
H            2.67439837668163        2.11056642921690       -0.11239736783669
H            3.63087760867575       -1.90160988685350        0.04046995747628
H           -1.68752619494737        3.09043138786220       -0.02430232500449
H           -2.84106737711573        2.09410680130212       -0.95182460213175
H           -2.89501780876294        2.07692211196452        0.81538362054098
H           -1.16556965126427       -3.18700065504347        0.83270671294405
H           -1.13952621449080       -3.16688263456589       -0.95574543093695
H           -2.55271801583775       -2.54720024067888       -0.07524557386680
H            1.35393044702155       -2.93524391245626       -0.01737972391873
25
 energy: -43.836015647458 gnorm: 0.027604261875 xtb: 6.6.1 (8d0f1dd)
C            3.24856432975889        1.18339456499970        0.08630971906291
N            2.33817349607969        0.08291153126651        0.03169711851691
C            2.62501404469684       -1.27319513623562        0.02809806829363
N            1.42095522146053       -1.94147687455289       -0.00654543412781
C            0.40607230108466       -1.05215259206110       -0.01028284613016
C            0.94772002804383        0.22704626755832        0.01154240472213
C            0.12169743940799        1.38745502555462       -0.00397265607626
O            0.49155080913838        2.56427901605289       -0.00368201763387
N           -1.26320446461678        1.04903241755978       -0.02991928733847
C           -2.22404992260210        2.14398455614484       -0.04841709357302
C           -1.82082321599821       -0.19634501683225       -0.04708782155411
O           -3.01710099655345       -0.38457763395167       -0.07012986979077
N           -0.93171310335185       -1.29112543067456       -0.03768667428051
C           -1.46793635899224       -2.63578639977899       -0.06011035574327
H            3.71443511093038        1.25579919133787        1.07331067834536
H            4.02853432520773        1.06982742101348       -0.66814204138136
H            2.68090893592153        2.09706713953148       -0.10468866196380
H            3.57662412121672       -1.81540806945499        0.03928579468148
H           -1.66793925140363        3.07817451672380       -0.02368515904712
H           -2.83244886356420        2.09089820901900       -0.95179519122630
H           -2.88536382266716        2.07385986619168        0.81603312411618
H           -1.16321814633877       -3.18536064639477        0.83255016696665
H           -1.13724842222870       -3.16576386264396       -0.95544225006085
H           -2.55283526319870       -2.54348317215242       -0.07511579416941
H            1.34029106507238       -2.94334003677865       -0.01559534780168
25
 energy: -43.836413978814 gnorm: 0.013869230813 xtb: 6.6.1 (8d0f1dd)
C            3.24504392385752        1.18243324859406        0.08466842399732
N            2.34632976776586        0.07535579669195        0.03070147797766
C            2.64022957043475       -1.28808199471103        0.03019334150888
N            1.42784931522572       -1.94395833942176       -0.00674068479445
C            0.41587895312365       -1.05207838666681       -0.00961951134769
C            0.95318039751358        0.22629766234422        0.01299370407229
C            0.12898444162569        1.38796199615908       -0.00150765246881
O            0.49504233439500        2.56813983715625       -0.00024508845454
N           -1.26277331878721        1.05623174036027       -0.02838546086545
C           -2.23361589848493        2.14752515911547       -0.04857508331558
C           -1.81301270138555       -0.18952071089752       -0.04599763853044
O           -3.01137534982702       -0.38061169191731       -0.07007998816079
N           -0.92587970123989       -1.28637746308789       -0.03676157716853
C           -1.46347515643411       -2.62940796265097       -0.05992432116699
H            3.70355541723628        1.25500785906454        1.07502634995400
H            4.02452028657810        1.06613828924635       -0.66847491143193
H            2.67305481181884        2.09318629627570       -0.11166920780980
H            3.57318839458215       -1.83844414776361        0.04097534659997
H           -1.69525985641283        3.09226764984180       -0.02415154797691
H           -2.84437899663342        2.09098430512227       -0.95088961615333
H           -2.89914147069672        2.07425080412996        0.81288595560895
H           -1.16250046238759       -3.18368630252284        0.83176740085637
H           -1.13615951950641       -3.16314241861054       -0.95489720830659
H           -2.54883224265457       -2.54048151016158       -0.07518069497472
H            1.34620645679689       -2.94427486424798       -0.01958323484243
25
 energy: -43.836620284508 gnorm: 0.007616862665 xtb: 6.6.1 (8d0f1dd)
C            3.24179163800994        1.18712807300548        0.08636061920050
N            2.34347667966327        0.07899202962550        0.03070050988810
C            2.64338713783200       -1.28628107406608        0.02925246612285
N            1.42772557948311       -1.93976706567478       -0.00553477562591
C            0.41329748294949       -1.05157305365253       -0.00982189306676
C            0.94857196177196        0.22779330158211        0.01251948873666
C            0.12433711394405        1.38618147028068       -0.00444339646975
O            0.48430627679138        2.56765801340981       -0.00503680406480
N           -1.26758528256557        1.05228560211321       -0.03031857613430
C           -2.22778436137023        2.14939823717573       -0.04849901159866
C           -1.81741336505933       -0.19268751808927       -0.04710964392076
O           -3.01605478145986       -0.38451448218729       -0.07039872409154
N           -0.93019550133314       -1.28934049182508       -0.03709264448027
C           -1.46677584544791       -2.63340328877075       -0.05970413735544
H            3.70591169465314        1.25245169579995        1.07435518239204
H            4.01936526999467        1.06946316064820       -0.66790583932893
H            2.67640748932588        2.10388453407867       -0.10493736403326
H            3.58289215081679       -1.83967177663294        0.03784692679152
H           -1.67256509667982        3.08451110144632       -0.02433763704679
H           -2.83707366922902        2.09781975868592       -0.95196561370394
H           -2.88890266043088        2.08052894768124        0.81657445916541
H           -1.16618415215920       -3.18827635515527        0.83221938654696
H           -1.14012655000891       -3.16874019812727       -0.95447322265022
H           -2.55290966352845       -2.54833185474230       -0.07499161362762
H            1.34875985054041       -2.93979391516715       -0.01672956883863
25
 energy: -43.836672509199 gnorm: 0.005359141621 xtb: 6.6.1 (8d0f1dd)
C            3.24677986685767        1.18413248642388        0.08478895967404
N            2.34190105066208        0.08034983124334        0.03097247443815
C            2.63842718125068       -1.28433694936428        0.03060957578603
N            1.42299608365405       -1.93841006897054       -0.00600111708613
C            0.41049940655377       -1.04982102950094       -0.01011126709912
C            0.94741305392082        0.22957111619194        0.01320029606400
C            0.12576989892834        1.38799915498253       -0.00194618048447
O            0.48777803061807        2.56786944519574       -0.00067996576807
N           -1.26689455561687        1.05299900208507       -0.02884394315621
C           -2.23026133420494        2.14537770256800       -0.04829977537040
C           -1.81755940661961       -0.19141308529661       -0.04657045348826
O           -3.01579519307068       -0.38266523235649       -0.07019101162734
N           -0.93175450565521       -1.28785090384069       -0.03728299259225
C           -1.46662159376244       -2.63138568339921       -0.06058950932381
H            3.71144205283192        1.25401212596264        1.07244131432526
H            4.02681579069144        1.06393528899250       -0.66741075055245
H            2.68275156469187        2.10000677265974       -0.11087273104162
H            3.58264967793307       -1.83479127105061        0.04124777679776
H           -1.68007932060587        3.08302245060087       -0.02324367357002
H           -2.83705476045935        2.08765361776796       -0.95272974562687