25
 energy: -43.833739998261 gnorm: 0.087730167082 xtb: 6.6.1 (8d0f1dd)
C            3.24841182799443        1.16594433642210        0.07989860480556
N            2.30908325840217        0.08424528228070        0.03563050869840
C            2.58979384290284       -1.22503872409377        0.03010821447855
N            1.43479510549881       -1.94178205937081        0.00226385932571
C            0.39816753116239       -1.06147550645285       -0.00761524844497
C            0.93556278858274        0.21774866867826        0.00871450418199
C            0.10898190775008        1.39568368097336       -0.00598554694810
O            0.50917833215058        2.55416370635408       -0.00769478042053
N           -1.26393599688035        1.08511189774691       -0.01758751873820
C           -2.22668303195291        2.18076387240599       -0.03106257701019
C           -1.80951146801388       -0.18589429225870       -0.04933655396164
O           -3.01193231258127       -0.38272850768336       -0.06997275377255
N           -0.93221253156319       -1.29944542130801       -0.03258957504124
C           -1.46394152745868       -2.64940757585849       -0.05473517940680
H            3.72202922990822        1.21648245693885        1.06319153098625
H            4.01819078058360        1.02637502409355       -0.67869761290233
H            2.70479471742151        2.09148282866603       -0.10256833521794
H            3.57340611141741       -1.65033446746774        0.04272590515811
H           -1.78164815955070        3.17104361869692        0.02516116011512
H           -2.76107317160990        2.16768146173278       -0.96099485424921
H           -2.93373329229061        2.03256236897718        0.76612286825309
H           -1.16309668960396       -3.19869502692615        0.83811311695109
H           -1.13620396740523       -3.18183919699670       -0.95018897852729
H           -2.55040243346180       -2.56502116431394       -0.07279874998643
H            1.37061712670356       -2.94941742825472       -0.01014762047261
25
 energy: -43.836839173250 gnorm: 0.033958645418 xtb: 6.6.1 (8d0f1dd)
C            3.25243909461123        1.17459843969130        0.08126575881095
N            2.31311343746213        0.09803101038077        0.03347138527995
C            2.60102579524178       -1.23778744394518        0.03008639973987
N            1.42377974636684       -1.94029250400554        0.00271238005022
C            0.39926873113102       -1.05429911143875       -0.00750801192277
C            0.93027471760488        0.22730082689325        0.00976621209805
C            0.11098339538005        1.39379651099060       -0.00551979906886
O            0.50233010479861        2.56592712272380       -0.01092321354723
N           -1.26842713442405        1.06938698771289       -0.01952596068056
C           -2.23250145058536        2.16010484230437       -0.04102121553369
C           -1.81761032320655       -0.18622180496686       -0.04447109529971
O           -3.01799019282475       -0.37990723969367       -0.07182851116467
N           -0.93797106681785       -1.29228466076363       -0.03233098768276
C           -1.46814173445488       -2.63790518560315       -0.05547131612708
H            3.73044967345800        1.22442566213936        1.06404782521941
H            4.02165264165846        1.03618533994529       -0.68042063360002
H            2.70574051727339        2.09849567366081       -0.09840893234291
H            3.57764184046532       -1.66718778837962        0.04233004595086
H           -1.72300083991367        3.12082448691179        0.04413745165735
H           -2.77854043304188        2.15153421471098       -0.98135928938305
H           -2.93737978447431        2.03069442290922        0.77503386643994
H           -1.16175772360863       -3.18780247015609        0.83683741369627
H           -1.13460207003878       -3.17025326207036       -0.94949698316911
H           -2.55414447220811       -2.55523583422124       -0.07219502736642
H            1.35200550825295       -2.94391840274889       -0.00925337420019
25
 energy: -43.837767132373 gnorm: 0.013465833018 xtb: 6.6.1 (8d0f1dd)
C            3.25025238153307        1.17040572876823        0.08061135048680
N            2.31066112404269        0.10111627991491        0.03102432209254
C            2.60713092435089       -1.24371933554608        0.03105335540104
N            1.42349668826558       -1.94335331928576        0.00193812249651
C            0.40226601607866       -1.05788496215049       -0.00917212332801
C            0.92489633406759        0.22726086220104        0.00885774816257
C            0.11766318185538        1.39240981469722       -0.00430105602777
O            0.51097805942735        2.56634420260200       -0.00486843084713
N           -1.26850060994184        1.07355442275280       -0.01851272063103
C           -2.23353415410051        2.17304327967172       -0.03936980923146
C           -1.81390230713244       -0.18118842453922       -0.04557032743988
O           -3.01245458555035       -0.37522970820554       -0.07059518181915
N           -0.93806296789287       -1.29285707951401       -0.03435917255934
C           -1.46410228636800       -2.64182013567635       -0.05539980208132
H            3.72371732934212        1.21796991193833        1.06589586778131
H            4.02121314299386        1.02456260724756       -0.67865479458578
H            2.70478527932120        2.09324986634076       -0.10460320910169
H            3.58255999210700       -1.66265099888271        0.04353849870785
H           -1.75616047319345        3.14982869211674        0.04030440459865
H           -2.78170110435752        2.15857159470257       -0.97927758012716
H           -2.94279490711504        2.03914131608761        0.77516458811621
H           -1.15900853592538       -3.19628704480343        0.83642375924556
H           -1.13126651785066       -3.18097459909599       -0.94680435861541
H           -2.54970223976961       -2.56683082618977       -0.07264719758454
H            1.36020821391815       -2.94645231217066       -0.01072186525551
25
 energy: -43.837836163442 gnorm: 0.008253201893 xtb: 6.6.1 (8d0f1dd)
C            3.24842710790285        1.17187007729162        0.08170434206617
N            2.30834190276173        0.10254143983229        0.03174697111569
C            2.60586999569535       -1.24162120037896        0.03144657900690
N            1.42388697778970       -1.94278062034258        0.00424935637806
C            0.40268572915224       -1.06150387302686       -0.00651157028552
C            0.92267988074026        0.22499472534281        0.01011621283994
C            0.11808396957743        1.38791675219002       -0.00726673607025
O            0.50564480625476        2.56132783984324       -0.01233034556953
N           -1.26860610221893        1.06887002410485       -0.01926813082274
C           -2.22593350144943        2.17217033957355       -0.03710216012705
C           -1.81383103136148       -0.18539878933265       -0.04619331319149
O           -3.01212371173563       -0.38336328858746       -0.07026924821462
N           -0.93781686469483       -1.29600633202824       -0.03272269728354
C           -1.46929621663604       -2.64132875501152       -0.05547019226640
H            3.72836255547253        1.21962851050330        1.06366144423063
H            4.01716064107075        1.03463693789413       -0.68126749612241
H            2.70391811849133        2.09666484200309       -0.09596168941940
H            3.58144406078810       -1.65436349930647        0.04085293234333
H           -1.75060696911064        3.14944348502547        0.03662413897694
H           -2.76898271341919        2.15907910931601       -0.97560152059193
H           -2.93565105413848        2.03272150398462        0.77385354848292
H           -1.16778632529974       -3.19676070639188        0.83717622119375
H           -1.14089429630989       -3.17725410233238       -0.95061842998616
H           -2.55442935578195       -2.55650425006736       -0.07228498558267
H            1.36809037456506       -2.94677033711719       -0.00860884324682
25
 energy: -43.837923849527 gnorm: 0.004856319167 xtb: 6.6.1 (8d0f1dd)
C            3.25138495064843        1.16823608199070        0.08072775078745
N            2.30828394800400        0.10119653352940        0.03124159582143
C            2.60188743928694       -1.24284502136141        0.03229038273021
N            1.41923621867417       -1.94069834523427        0.00256358063492
C            0.40087192073872       -1.05843380096549       -0.00788481817566
C            0.92265555551451        0.22737839744518        0.00969584721542
C            0.11757959953383        1.39073808100644       -0.00533651418414
O            0.50236147887288        2.56378316108755       -0.00736366802266
N           -1.27045064988363        1.07094298118599       -0.01894105358722
C           -2.22971477738542        2.17085904185136       -0.03693778781164
C           -1.81575239535327       -0.18298519821857       -0.04709016599477
O           -3.01444313173124       -0.38145462764124       -0.07174186825049
N           -0.93880027793583       -1.29283163669151       -0.03374951818885
C           -1.46457573569033       -2.64010357985004       -0.05521340331037
H            3.72754418804778        1.21996621569890        1.06430061458396
H            4.02318162255373        1.02730095446690       -0.67851170877485
H            2.71014098617083        2.09404980180198       -0.10326462976831
H            3.57661909192197       -1.65847629617685        0.04288540580413
H           -1.74986315661437        3.14516177850231        0.03714349784045
H           -2.77345021868445        2.15840143723720       -0.97439903976967
H           -2.93880787503480        2.03142751755852        0.77357211619667
H           -1.15824120157375       -3.19107842390245        0.83822597440011
H           -1.13100277511544       -3.17481330330202       -0.94906673009760
H           -2.55036348621663       -2.56246823939870       -0.07235802077152
H            1.36235665935721       -2.94504367763843       -0.01083345145319
25
 energy: -43.837950160396 gnorm: 0.003502079882 xtb: 6.6.1 (8d0f1dd)
C            3.24917013340310        1.16981468813536        0.08130645926111
N            2.31033174095241        0.09985703270062        0.03078387025748
C            2.60476920262150       -1.24441841012695        0.03122670828081
N            1.42135401859819       -1.94181143964472        0.00200616013821
C            0.40256765855263       -1.05952568463965       -0.00820793907919
C            0.92464391146343        0.22652288076434        0.00965732596891
C            0.12095633297997        1.39149367263782       -0.00479210394882
O            0.50742265495297        2.56419143940135       -0.00721692318430
N           -1.26876888260120        1.07268691180268       -0.01850595008496
C           -2.23121273935585        2.17110153106056       -0.03913987039768
C           -1.81375564786062       -0.18127050781580       -0.04482127516292
O           -3.01267557299024       -0.37812756887549       -0.06967664908473
N           -0.93781096533305       -1.29293808220997       -0.03318903116810
C           -1.46578448459778       -2.64065347533795       -0.05540480735707
H            3.72455788896541        1.22052597382617        1.06544333804148
H            4.01989437370811        1.03134031598778       -0.67947400300824
H            2.70265794144877        2.09355744057213       -0.10091456043129
H            3.58065193773916       -1.66062326465571        0.04176997169200
H           -1.74950056589599        3.14452257784567        0.03724042752761
H           -2.77771613358152        2.15784597838644       -0.97680647758158
H           -2.93980455394050        2.03630746130967        0.77317853006758
H           -1.16170085264937       -3.19498303749672        0.83651741814584
H           -1.13444248844065       -3.17822586880617       -0.94824630712758
H           -2.55156615331274       -2.56266112829937       -0.07248800340917
H            1.36439922327972       -2.94631960354064       -0.01029192050155
25
 energy: -43.837966851902 gnorm: 0.001903556457 xtb: 6.6.1 (8d0f1dd)
C            3.25043735891550        1.16977152546229        0.08084393103264
N            2.30986404600055        0.10109580934524        0.03107537350761
C            2.60452842538827       -1.24325803399977        0.03241703156499
N            1.42134626004710       -1.94112620270711        0.00339366201061
C            0.40226805252099       -1.05962110244644       -0.00785407506755
C            0.92369252092597        0.22699110498844        0.00951651135221
C            0.11990956928256        1.39106658486429       -0.00620970513146
O            0.50476397914827        2.56428365937840       -0.00916144859695
N           -1.27001931914263        1.07146742823934       -0.01948890687800
C           -2.23078193843818        2.17125379802028       -0.03768707254826
C           -1.81454035274976       -0.18257506487872       -0.04689744773774
O           -3.01320019397174       -0.38066507671205       -0.07188239221862
N           -0.93810660191683       -1.29364987595106       -0.03375730150015
C           -1.46646021791590       -2.64094589301813       -0.05551166372788
H            3.72773106004016        1.21904567705302        1.06413228419792
H            4.02044870978420        1.02878803529623       -0.68020923304956
H            2.70728329519471        2.09545271628505       -0.10100421155293
H            3.58065832369193       -1.65811726493587        0.04295398404898
H           -1.75103296638883        3.14586314370538        0.04029416147970
H           -2.77562341955959        2.15926123266254       -0.97607907986965
H           -2.93944600805354        2.03382256824586        0.77420712819787
H           -1.16298040134330       -3.19492810162005        0.83699206015012
H           -1.13541131158334       -3.17811957546081       -0.94877311558435
H           -2.55211666966580       -2.56124576373067       -0.07273447864628
H            1.36542577789507       -2.94570149510421       -0.00862160757944
25
 energy: -43.837940405264 gnorm: 0.003485305509 xtb: 6.6.1 (8d0f1dd)
C            3.24922482413780        1.16955692518289        0.08203856684290
N            2.30868589700251        0.10064529169641        0.03123091215460
C            2.60270980704227       -1.24365186354748        0.03090014419118
N            1.41973532282455       -1.94131945215303        0.00104079619168
C            0.40115563186063       -1.05997052378719       -0.00761344729286
C            0.92253697159322        0.22652441027903        0.01038170559950
C            0.11985924982318        1.39016958526817       -0.00448255015206
O            0.50377409583744        2.56331011894066       -0.00728563873046
N           -1.27033531392363        1.07051450756528       -0.01776277223916
C           -2.22829536746080        2.17176325470469       -0.03869352036195
C           -1.81540969341564       -0.18309653132804       -0.04449959248749
O           -3.01400235172549       -0.38162579511392       -0.06877764830884
N           -0.93882485216961       -1.29377856996538       -0.03245072844162
C           -1.46544895007930       -2.64088265388708       -0.05472774309402
H            3.72549701807200        1.22020173858627        1.06567128434965
H            4.02070899262284        1.03055570577137       -0.67789882265032
H            2.70569902024806        2.09461059696885       -0.10037918281320
H            3.57844167129379       -1.65807626011652        0.03975761315131
H           -1.74903327684396        3.14703961761589        0.03352059828766
H           -2.77146309875683        2.15664096244113       -0.97709516229869
H           -2.93720859662538        2.03531795921979        0.77294370267494
H           -1.15920213975221       -3.19328524347073        0.83790376665671
H           -1.13305747170887       -3.17504270470430       -0.94934932002951
H           -2.55115679583016       -2.56195390538079       -0.07113180044250
H            1.36404738403945       -2.94595733780449       -0.01328677290359
25
 energy: -43.837969669059 gnorm: 0.001430331009 xtb: 6.6.1 (8d0f1dd)
C            3.24946920141167        1.16955880396242        0.08112935522127
N            2.30949438653153        0.10023074086633        0.03096166775904
C            2.60336563747708       -1.24401777230499        0.03189206613027
N            1.42029021315281       -1.94143895378778        0.00237010738285
C            0.40171401909504       -1.05984540663212       -0.00788581262635
C            0.92338514653997        0.22657897786786        0.00979867901529
C            0.12069326026708        1.39068351310038       -0.00522931718470
O            0.50510237380328        2.56367016495584       -0.00762484972569
N           -1.26977809080169        1.07124368988267       -0.01858605008376
C           -2.22950515748676        2.17123644327804       -0.03797946408089
C           -1.81468058635580       -0.18234358830119       -0.04576790104601
O           -3.01335687616153       -0.38038690502397       -0.07025409060067
N           -0.93835805694260       -1.29339305983989       -0.03332208380647
C           -1.46571391026438       -2.64058169441052       -0.05539611131959
H            3.72552552286184        1.22082928992597        1.06485535008886
H            4.02070749091792        1.03074806903102       -0.67911922675636
H            2.70474240815453        2.09392533119138       -0.10154373101602
H            3.57914475877168       -1.65902085366881        0.04192332418920
H           -1.74978256257582        3.14599850518718        0.03642493032211
H           -2.77428342819245        2.15772683246057       -0.97577784529403
H           -2.93810300658384        2.03409524278945        0.77382164613273
H           -1.16081670628567       -3.19329699196805        0.83738028729637
H           -1.13345520516048       -3.17627547606474       -0.94909171747541
H           -2.55140788501405       -2.56162778399738       -0.07259729017949
H            1.36424503094645       -2.94608728551819       -0.01042753448870
25
 energy: -43.837933017469 gnorm: 0.003810898334 xtb: 6.6.1 (8d0f1dd)
C            3.25160061702304        1.16949500030188        0.08208027453788
N            2.31052965567524        0.10132962963659        0.03105898117889
C            2.60490665825039       -1.24274284905583        0.03082663981234
N            1.42195935247277       -1.94044021677494        0.00184307502101
C            0.40249191641361       -1.05916333038693       -0.00792715071215
C            0.92396342532287        0.22776778032843        0.00988032190009
C            0.12007018776770        1.39191926158281       -0.00549910755760
O            0.50416650100425        2.56529383777821       -0.00932627908354
N           -1.27071942801967        1.07197265344793       -0.01922444637610
C           -2.23246405790545        2.17111187906466       -0.03941080221472
C           -1.81458238896022       -0.18215701211497       -0.04553893683598
O           -3.01324062140308       -0.38031627637333       -0.07090069410907
N           -0.93793151878349       -1.29349807818046       -0.03289186825942
C           -1.46648482180449       -2.64135797628160       -0.05446129891814
H            3.72959608191813        1.21589552618394        1.06522223687973
H            4.02070123340249        1.02805635257576       -0.67982355034377
H            2.70954811612565        2.09627236579409       -0.09773978592839
H            3.58138982170153       -1.65778916860193        0.04041927347154
H           -1.75116960535371        3.14484154197209        0.03989644300883
H           -2.77718206142518        2.15980540039279       -0.97830215411360
H           -2.94244158273102        2.03565449592120        0.77170458744729
H           -1.16275704920682       -3.19674269603559        0.83698940519587
H           -1.13716122958376       -3.17952363033476       -0.94767739216378
H           -2.55221562796244       -2.56242723690843       -0.07036155619766
H            1.36606440416751       -2.94504742095012       -0.01088182778572
25
 energy: -43.830625204477 gnorm: 0.064129036197 xtb: 6.6.1 (8d0f1dd)
C            3.25823034872589        1.16336318992170        0.07456185851078
N            2.31982752892924        0.08850489105614        0.02898281417019
C            2.59896181445028       -1.23605094862090        0.03015239173499
N            1.43101681588041       -1.94892487438376        0.00383013074390
C            0.40607659503852       -1.06367089116751       -0.00693482638574
C            0.93764969117478        0.21767659742256       -0.00054981075643
C            0.12373185249913        1.38696251624275       -0.00872059143037
O            0.52202152374540        2.56048208540693       -0.01552571810299
N           -1.27458014446951        1.10306562522025        0.00747461193101
C           -2.24308006058751        2.20436281929442       -0.01478884102053
C           -1.80388581101653       -0.17272851935847       -0.03980822886409
O           -3.01146725653636       -0.39068261076886       -0.06057175431710
N           -0.93329184156785       -1.29253337686090       -0.02579775182171
C           -1.45756431160868       -2.64970463501146       -0.04905407900639
H            3.73104343841413        1.21656359156338        1.05997235949215
H            4.02829397179757        1.01788641920583       -0.68312671064122
H            2.71149511210896        2.08523539551949       -0.11316743809842
H            3.57972720486675       -1.66402756655836        0.04296060946342
H           -1.88912839668373        3.24184994513686        0.08966907811673
H           -2.69776957210718        2.23757032459702       -0.98676325095156
H           -2.99048171713677        1.98333050079789        0.72121760567173
H           -1.15564381634130       -3.19873221518694        0.84426333282577
H           -1.12653588358937       -3.18744478837221       -0.94309040278414
H           -2.54502856552585       -2.57320231677660       -0.07076185479500
H            1.36023168834569       -2.95532198169013       -0.00534855424352
25
 energy: -43.832756997980 gnorm: 0.032607388505 xtb: 6.6.1 (8d0f1dd)
C            3.26024221042830        1.16982477894539        0.07493816885019
N            2.31876458303386        0.09790029216961        0.02694593823392
C            2.60368627115329       -1.24385987967976        0.02986869565162
N            1.42123692263438       -1.94220239572881        0.00524785757463
C            0.40306779256622       -1.05387485325508       -0.00610278034644
C            0.93156194760521        0.22901797762842        0.00393130429334
C            0.12122713811041        1.39239541896299       -0.00527066191602
O            0.51042487502349        2.56812352829972       -0.01968520908728
N           -1.27441460816443        1.08580697584545        0.00194270576778
C           -2.24833277128418        2.17321022683448       -0.03393015773812
C           -1.81374258689169       -0.17314664009499       -0.03316169729912
O           -3.01451241896259       -0.38018338640667       -0.06286780125987
N           -0.93853143608166       -1.28333985031038       -0.02513606651752
C           -1.46329938187505       -2.63331344772986       -0.04957258553173
H            3.73742584502295        1.22297863658422        1.05874401002441
H            4.03138303710734        1.02815415691691       -0.68456020458910
H            2.71445377425407        2.09353272345980       -0.10851293580464
H            3.57877334585049       -1.67549590530634        0.04114318185352
H           -1.79442969671009        3.16190793288588        0.12518801519207
H           -2.72304846277660        2.20913148841172       -1.01288586024386
H           -2.99877445156388        1.98110944916129        0.72498476759813
H           -1.15499203324029       -3.18200620244496        0.84310450070397
H           -1.12462891615908       -3.16693288938667       -0.94203480502763
H           -2.54980553152728       -2.55920705788427       -0.06944842610056
H            1.34611476125295       -2.94570190124898       -0.00379497484019
25
 energy: -43.834425350841 gnorm: 0.011206727103 xtb: 6.6.1 (8d0f1dd)
C            3.25933323077638        1.16492542442249        0.07501144312011
N            2.31771893669753        0.09588427740870        0.02512953543450
C            2.60774800113430       -1.24919120942132        0.03070264870063
N            1.42284200732902       -1.94557909501026        0.00349617142590
C            0.40521403716376       -1.05734696851994       -0.00894678582783
C            0.92980696103184        0.22769123661856        0.00213174004926
C            0.12580593422596        1.39460501709836       -0.00563408839014
O            0.51983793000812        2.56727883084291       -0.01381995234380
N           -1.27215373656603        1.09284535846574        0.00365657157909
C           -2.24809512632241        2.18970788806751       -0.02909372282419
C           -1.81043389141140       -0.16866326641458       -0.03416590263405
O           -3.00872169015931       -0.37560657278362       -0.05973840225080
N           -0.93695314521380       -1.28467607577106       -0.02813284802322
C           -1.45833698337662       -2.63865185308491       -0.05008035014514
H            3.73266162310396        1.21822263138042        1.06075078925509
H            4.03196207173282        1.01886608695368       -0.68249946104866
H            2.71349796646156        2.08745122012521       -0.11345425940483
H            3.58297181398557       -1.67450680853968        0.04375825645180
H           -1.84410884760375        3.19540207917970        0.11285377989959
H           -2.72349015806123        2.21780539611088       -1.00635692835982
H           -3.00184779228492        1.99078957441823        0.72698756006783
H           -1.15189740592616       -3.19174849822199        0.84209948029684
H           -1.12173642825349       -3.18029508017070       -0.93928619561524
H           -2.54446115276832       -2.57192452052678       -0.07022680012447
H            1.35268605310276       -2.94945589599845       -0.00606729984697
25
 energy: -43.834354987099 gnorm: 0.009018173981 xtb: 6.6.1 (8d0f1dd)
C            3.25635777339784        1.16852177021754        0.07519846810361
N            2.31587296633394        0.09822792801036        0.02536980506291
C            2.60917773354868       -1.24763443533567        0.03112226909908
N            1.42449951056046       -1.94623609509599        0.00740922325235
C            0.40609347177522       -1.06185521631182       -0.00534459394398
C            0.92759425596703        0.22460745079245        0.00348808911895
C            0.12496743473154        1.39012373340644       -0.00795918626431
O            0.51582953935951        2.56231724698468       -0.02009116506298
N           -1.27236136365324        1.08677870254890        0.00290845324174
C           -2.23865953956784        2.19237605092761       -0.02517860013562
C           -1.81227996586818       -0.17479961680644       -0.03698313054700
O           -3.00963267893867       -0.38638057430283       -0.06325692323089
N           -0.93649357429443       -1.28960072719530       -0.02647356810667
C           -1.46374205137082       -2.64003535714509       -0.04965974262579
H            3.73520523540954        1.22119509396885        1.05832140314081
H            4.02607059914963        1.02783875958404       -0.68631798442280
H            2.70984750258441        2.09173567435610       -0.10763050246178
H            3.58510532078045       -1.66579536006753        0.03996743535785
H           -1.83932705093920        3.20093931392627        0.11348948150985
H           -2.70546108661493        2.22622537822946       -1.00311776816826
H           -2.99617727566468        1.98424683375641        0.72416771104529
H           -1.16188506053203       -3.19499269544852        0.84373242583130
H           -1.13154531166820       -3.17985120469220       -0.94218349504267
H           -2.54943323567763       -2.56333028716633       -0.06992661222344
H            1.36022705999770       -2.95079319051228       -0.00197651308608
25
 energy: -43.834537914288 gnorm: 0.003650606759 xtb: 6.6.1 (8d0f1dd)
C            3.26003484689717        1.16487050134410        0.07567538222350
N            2.31613927863024        0.09795371486038        0.02476679479172
C            2.60684361340737       -1.24929790056563        0.03140884252309
N            1.42037594179608       -1.94451676634607        0.00436033100848
C            0.40487839104727       -1.05838162468758       -0.00713922206349
C            0.92756480649865        0.22743192193763        0.00273384157159
C            0.12485568692497        1.39335375959579       -0.00708443694127
O            0.51481338984028        2.56562237858912       -0.01700661890320
N           -1.27335701381201        1.08892373204317        0.00348059950703
C           -2.24394081077527        2.19053697006030       -0.02681385009224
C           -1.81386335237635       -0.17169629726898       -0.03514080596923
O           -3.01122348540007       -0.38277971498117       -0.06054242682714
N           -0.93720551350839       -1.28592462147443       -0.02697177772442
C           -1.45940228389156       -2.63788951963736       -0.04975617476216
H            3.73515159975376        1.21825462454885        1.06053861293741
H            4.03238924257701        1.01977696569289       -0.68246776138419
H            2.71707613050939        2.08919626408962       -0.11190065024556
H            3.58144204564094       -1.66978634634654        0.04213973551526
H           -1.84139949409555        3.19789204631959        0.10944451560693
H           -2.71592048662252        2.21967844433980       -1.00305370688075