25
 energy: -43.832478838930 gnorm: 0.105069015009 xtb: 6.6.1 (8d0f1dd)
C            3.23527573994247        1.17023017364304        0.08483248750110
N            2.29666112951602        0.08501002526134        0.03945858210750
C            2.59116179240699       -1.22668530136447        0.03128101736683
N            1.44614715092491       -1.95799852784566        0.00139202336070
C            0.39807486355341       -1.07542655567280       -0.00800550799395
C            0.92294667146290        0.20965329525007        0.01634565189114
C            0.09437108694308        1.39442284424543       -0.00505854950649
O            0.49575723183168        2.55490886273014       -0.00326176869629
N           -1.25868977259855        1.06271966846510       -0.03149719004079
C           -2.22340641147804        2.15941952027235       -0.05066484864956
C           -1.82122894049233       -0.19639664443396       -0.04767683990338
O           -3.00753848545240       -0.37579235417772       -0.07076963643485
N           -0.93477789106411       -1.30125129301080       -0.03744624186023
C           -1.47512018773876       -2.64151581166209       -0.06019875822753
H            3.71951335932023        1.21437350296186        1.06262041387973
H            4.00091303471089        1.04001305076428       -0.67853780017987
H            2.69580898665657        2.10473646025851       -0.08337827018870
H            3.57785102445400       -1.64153549811857        0.04821086797830
H           -1.67210476276429        3.09870525458291       -0.02728153460452
H           -2.82777530992863        2.09984944992812       -0.95341999030733
H           -2.87977890848420        2.08329481656854        0.81412588504294
H           -1.17174044610077       -3.18864813609184        0.83234390394775
H           -1.14817061495098       -3.16743407022296       -0.95692677042274
H           -2.55878217542216       -2.55152938615143       -0.07401846929252
H            1.47329803028814       -3.02643241813312       -0.01293179243350
25
 energy: -43.837412116308 gnorm: 0.035524452392 xtb: 6.6.1 (8d0f1dd)
C            3.24277381789621        1.17769287437292        0.08700296690081
N            2.30774331501375        0.09686690477720        0.03744229649942
C            2.60554879139749       -1.23827794262667        0.03102103475393
N            1.43374973072093       -1.95221116951411        0.00152309973543
C            0.40140664478411       -1.07077082525961       -0.00840101653520
C            0.92471503626787        0.21447689592112        0.01466925236361
C            0.10291079169219        1.38341961183707       -0.00584570162628
O            0.49696279910212        2.55511396622773       -0.00463441163905
N           -1.26487277836504        1.04999986185531       -0.03179782316958
C           -2.22214673328863        2.14915278202276       -0.05056574400537
C           -1.82398826632493       -0.19988503997800       -0.04798150224282
O           -3.02081899216695       -0.38376511390592       -0.07113031140872
N           -0.93802291504123       -1.30107079251732       -0.03758574826088
C           -1.47669682632466       -2.64058167732830       -0.06022281642861
H            3.72847275451207        1.22134057691249        1.06608777371800
H            4.00618384789998        1.04895224118463       -0.68175048545586
H            2.69389122050211        2.10398688686064       -0.08031791492251
H            3.58538429724096       -1.65885118515865        0.04839442313904
H           -1.65711786521633        3.07928999117340       -0.02674326901244
H           -2.82775497224303        2.09774548209526       -0.95469011398613
H           -2.87942811797434        2.08165932552033        0.81559885427290
H           -1.17057372246499       -3.19074054734951        0.83148429050097
H           -1.14684019719778       -3.17016969211093       -0.95594806961565
H           -2.56160726905330       -2.55020519481916       -0.07394373962769
H            1.42879180416750       -2.97647729214638       -0.01212845961358
25
 energy: -43.837984004764 gnorm: 0.016704452055 xtb: 6.6.1 (8d0f1dd)
C            3.23442740420902        1.17450565744870        0.08547891205988
N            2.30223764506382        0.09915573773145        0.03572975795563
C            2.61156382643356       -1.24351043864141        0.03251264869799
N            1.43875639959554       -1.96443434673959        0.00192161743329
C            0.40739582531050       -1.08178203166999       -0.00758845742755
C            0.91801755407795        0.21085285583742        0.01523622457220
C            0.11004385191123        1.37864296183898       -0.00339070734710
O            0.49969994189340        2.55437137295309       -0.00126022246047
N           -1.26775265487301        1.05337992506154       -0.03066348854081
C           -2.22297567900256        2.15683071981186       -0.05050126771663
C           -1.81512321087310       -0.19503705406155       -0.04725817972639
O           -3.01490800820468       -0.38023276857995       -0.07118901767733
N           -0.93619989800833       -1.30305614488096       -0.03694736689027
C           -1.47699686167753       -2.64010613739910       -0.06036394594614
H            3.71635277129183        1.21384672687315        1.06623885568961
H            3.99972465187177        1.03543144889280       -0.68004690459087
H            2.69137362184936        2.10189559638498       -0.08708446198777
H            3.59154044887903       -1.64729726237214        0.04887693370730
H           -1.67524525858848        3.09831683311844       -0.02702088701457
H           -2.83007924222572        2.10288118868029       -0.95373464493829
H           -2.88299555102049        2.08685519119793        0.81349504009634
H           -1.17193031069603       -3.19172195440771        0.83176160343713
H           -1.14802951010727       -3.17002743097256       -0.95719039379377
H           -2.56147172035781       -2.54809455267815       -0.07416380920057
H            1.45124015878410       -2.97497516538123       -0.01331097405710
25
 energy: -43.838210580034 gnorm: 0.008494578061 xtb: 6.6.1 (8d0f1dd)
C            3.23762325100861        1.17422690502314        0.08752435816665
N            2.29982861780308        0.10099096760761        0.03586296218039
C            2.60536259151888       -1.24310054104801        0.03160085959315
N            1.43294600097196       -1.96459757126240        0.00170880523929
C            0.40457637999354       -1.08005795973700       -0.00817951591880
C            0.91495717295146        0.21383164223813        0.01477718961621
C            0.10870232874739        1.38017364331388       -0.00667707540838
O            0.49075928058286        2.55714812595970       -0.00663968952011
N           -1.27087080604314        1.05254721366037       -0.03273512982979
C           -2.22205107620821        2.15465601908327       -0.05072459121859
C           -1.81661402447934       -0.19453564514874       -0.04809715626177
O           -3.01580135188622       -0.38148561623723       -0.07090901267056
N           -0.93875006570108       -1.30146865854866       -0.03750083631999
C           -1.47630069916613       -2.63958773079452       -0.05977085839205
H            3.72738032704366        1.21417943638310        1.06454413563306
H            4.00266281036210        1.04480121990903       -0.68031002523177
H            2.69853376043416        2.10538246536691       -0.07683891250646
H            3.58374755791600       -1.64721281570053        0.04706500286619
H           -1.66196078376098        3.08857735419350       -0.02754929451203
H           -2.82856374678203        2.10016378593952       -0.95439475828924
H           -2.87858948136967        2.08365592363982        0.81598038221518
H           -1.16953542171109       -3.18915605418753        0.83286000460435
H           -1.14599824820362       -3.16911810288171       -0.95615533934243
H           -2.56086579513839       -2.55219290520564       -0.07355498750848
H            1.44748761665226       -2.98113017351973       -0.01234965285027
25
 energy: -43.838220401807 gnorm: 0.005601061072 xtb: 6.6.1 (8d0f1dd)
C            3.23860582148298        1.17452038544349        0.08455900456840
N            2.30286481666912        0.09943621213090        0.03632061375824
C            2.60624099769061       -1.24365886025682        0.03415401511888
N            1.43274790400375       -1.96233189967523        0.00241141829570
C            0.40532527927300       -1.07840238481694       -0.00764765482815
C            0.91771732736118        0.21416169677618        0.01623917152247
C            0.11223434677597        1.38056881219293       -0.00250185639741
O            0.49429305383290        2.55608328071553        0.00039483078746
N           -1.26963520526137        1.05300601200388       -0.03025384381840
C           -2.22293183699802        2.15247878568354       -0.05010480458802
C           -1.81585521742446       -0.19410822781333       -0.04731963820331
O           -3.01453371761847       -0.38224995130395       -0.07142212019390
N           -0.93790624538763       -1.30016024899928       -0.03738724738238
C           -1.47697709123144       -2.63814131698701       -0.06126808707492
H            3.72297649289638        1.22427893366164        1.06411360296129
H            4.00634470755780        1.04395982998456       -0.68063968527234
H            2.69376428048532        2.10156789616890       -0.08926032802893
H            3.58513660639978       -1.65096518182819        0.05009148014175
H           -1.66391971565477        3.08637443813887       -0.02556441785448
H           -2.82747082880083        2.09775617894271       -0.95497732540649
H           -2.88236832625225        2.08132756152378        0.81432243552778
H           -1.17243712879221       -3.19027612334487        0.83037470037846
H           -1.14841827082093       -3.16797603122415       -0.95792170004137
H           -2.56139135721293       -2.54787598581995       -0.07516192592179
H            1.44425950256259       -2.98268288325092       -0.01201377371480
25
 energy: -43.838267389921 gnorm: 0.003550080660 xtb: 6.6.1 (8d0f1dd)
C            3.23797115047475        1.17378827138789        0.08769564848457
N            2.30321946306354        0.09926236819859        0.03562568583619
C            2.60735635979179       -1.24297049734695        0.03137016726345
N            1.43373438532781       -1.96077012927334        0.00028043571412
C            0.40547635994477       -1.07836181404541       -0.00875499636812
C            0.91774267084184        0.21409721294871        0.01454943692028
C            0.11292631384025        1.38035737185859       -0.00576706875648
O            0.49505858856764        2.55552975376324       -0.00465553461104
N           -1.27045176009238        1.05329260384651       -0.03207689158010
C           -2.22322854421135        2.15412034342528       -0.05093199349665
C           -1.81649395956147       -0.19434407769653       -0.04750799586516
O           -3.01530470565145       -0.38287180996107       -0.07044898685976
N           -0.93799872344258       -1.30059006712050       -0.03729129388367
C           -1.47606693865649       -2.63935805220225       -0.05931609213802
H            3.72239490384968        1.21574548290151        1.06759109457523
H            4.00351316872343        1.04341559433654       -0.67957117439416
H            2.69326240531749        2.10229982707456       -0.08070014549252
H            3.58718277563598       -1.65009615798494        0.04655923202082
H           -1.66662952263926        3.08955966548064       -0.02807278563305
H           -2.83045443653953        2.10067555512137       -0.95401487107011
H           -2.88142067501242        2.08522872235087        0.81453377731905
H           -1.17052392134808       -3.19044786238368        0.83269812900975
H           -1.14726306137262       -3.17030655323973       -0.95528476767786
H           -2.56069880722065       -2.55013663286536       -0.07281367242111
H            1.44536270590541       -2.98042819052824       -0.01415847256189
25
 energy: -43.838264099762 gnorm: 0.003056141973 xtb: 6.6.1 (8d0f1dd)
C            3.23746511305780        1.17413169402773        0.08535182294792
N            2.30174691462511        0.10006896747769        0.03614558728184
C            2.60659102942348       -1.24246018441288        0.03379263259639
N            1.43382118088504       -1.96149621932485        0.00370603406723
C            0.40486995085240       -1.07971758634986       -0.00708981555496
C            0.91591200292463        0.21388615735878        0.01594889060242
C            0.11205035453221        1.37994181060035       -0.00484272797722
O            0.49208328196283        2.55616227874157       -0.00403447476903
N           -1.27159402003139        1.05233532292201       -0.03175772975881
C           -2.22205615942021        2.15454456986188       -0.05003826808212
C           -1.81712087097251       -0.19489808145859       -0.04812923767268
O           -3.01616914840049       -0.38289871329238       -0.07213318392460
N           -0.93884118895360       -1.30162605088053       -0.03732115781976
C           -1.47663907424388       -2.64009677506447       -0.06126025978585
H            3.72596034221385        1.21523026395591        1.06302042626797
H            4.00110667844169        1.04150000768385       -0.68319688404160
H            2.69667127573914        2.10488018762041       -0.08171824777750
H            3.58631176193041       -1.64780335422171        0.04945389408583
H           -1.66430469309457        3.08971077115277       -0.02583193892526
H           -2.82826511764203        2.10190513405156       -0.95393199054167
H           -2.87997559119533        2.08446993668287        0.81559683444783
H           -1.17107606819566       -3.19102266363516        0.83089930664251
H           -1.14617442171580       -3.16911469501560       -0.95785437085920
H           -2.56134902118265       -2.55143079499892       -0.07580611823113
H            1.44764168399562       -2.97951105543614       -0.00943215888480
25
 energy: -43.838281791331 gnorm: 0.001917811148 xtb: 6.6.1 (8d0f1dd)
C            3.23752784216996        1.17425208559476        0.08673853475159
N            2.30211681060185        0.09951335065628        0.03577503955554
C            2.60629619615884       -1.24327611188071        0.03236405365850
N            1.43359597540823       -1.96221116511577        0.00088746855404
C            0.40509154454446       -1.07992543781877       -0.00835106950360
C            0.91625037615579        0.21380519493052        0.01516323391405
C            0.11299182360185        1.38020492243116       -0.00468929985431
O            0.49264885831485        2.55650940119726       -0.00322726524411
N           -1.27099704579520        1.05249583499057       -0.03155200793731
C           -2.22218706852061        2.15359211154960       -0.05077758755354
C           -1.81643431960561       -0.19439733837016       -0.04751458514657
O           -3.01543133531282       -0.38219715405178       -0.07068553767115
N           -0.93855490635417       -1.30122370766769       -0.03734920947108
C           -1.47701306029211       -2.63924396985441       -0.05987836943934
H            3.72338641317606        1.21815965828003        1.06559651887346
H            4.00410593837669        1.04339656706133       -0.67921807263726
H            2.69586597303509        2.10391143660957       -0.08275462003484
H            3.58561624797712       -1.64902186230712        0.04770712722050
H           -1.66451106996694        3.08878875830293       -0.02722296634640
H           -2.82794361449488        2.09909163499832       -0.95493248382620
H           -2.88039813635437        2.08308020454225        0.81468891931832
H           -1.17083322035167       -3.18950820212258        0.83243983280699
H           -1.14791739962404       -3.16890382882351       -0.95653289420177
H           -2.56159778726305       -2.54960727755900       -0.07317405605294
H            1.44699115995076       -2.98059417752680       -0.01396383939883
25
 energy: -43.838269976837 gnorm: 0.002922503036 xtb: 6.6.1 (8d0f1dd)
C            3.23817673347053        1.17343350089201        0.08640221753154
N            2.30337038878363        0.09859235760523        0.03573694515416
C            2.60657763602525       -1.24364079516539        0.03261962125419
N            1.43338675257779       -1.96122506078802        0.00241989838669
C            0.40537664604080       -1.07869246610839       -0.00793292606736
C            0.91743128498154        0.21432635849958        0.01503513279082
C            0.11397649042423        1.38089207571260       -0.00561782776441
O            0.49470022294705        2.55632962556901       -0.00457386276759
N           -1.27085489607957        1.05358811103445       -0.03197937529537
C           -2.22363382271321        2.15409177228692       -0.05014203618828
C           -1.81626082802578       -0.19380460538185       -0.04789006426368
O           -3.01494086518947       -0.38242362959157       -0.07128424353947
N           -0.93790416988020       -1.30033127057534       -0.03738962255248
C           -1.47539352597425       -2.63925842880471       -0.06055985636956
H            3.72383119345752        1.21699643371151        1.06563963393876
H            4.00340204377255        1.04407912772668       -0.68145195193622
H            2.69254234246172        2.10121162742984       -0.08194022730257
H            3.58615810310370       -1.65088038872513        0.04788938432497
H           -1.66654081644540        3.08929104951735       -0.02704209198284
H           -2.83145185897687        2.10117045088414       -0.95299705149058
H           -2.88183751030287        2.08503718061281        0.81546086906028
H           -1.17061327289568       -3.19075760267908        0.83139972172433
H           -1.14536292252816       -3.16963962306316       -0.95636136135883
H           -2.55993876813687       -2.55056062921926       -0.07530522252406
H            1.44446961463811       -2.98113424333395       -0.01059883842872
25
 energy: -43.838285034502 gnorm: 0.001354170677 xtb: 6.6.1 (8d0f1dd)
C            3.23797804989713        1.17391642551518        0.08639834962424
N            2.30292480724070        0.09924239064944        0.03591629411892
C            2.60668570393144       -1.24289574608722        0.03264268910502
N            1.43388269356065       -1.96109165673743        0.00185869806847
C            0.40526129380155       -1.07913538804113       -0.00792612746109
C            0.91687963574680        0.21422316063996        0.01541770238088
C            0.11346539767284        1.38047835393549       -0.00483459539352
O            0.49358056908118        2.55620906315525       -0.00361338233388
N           -1.27120375368470        1.05287656219626       -0.03168147012684
C           -2.22289779185106        2.15401393477399       -0.05056916556844
C           -1.81661328838651       -0.19439549063900       -0.04770343560291
O           -3.01537134815454       -0.38296005197203       -0.07128556268200
N           -0.93819472650009       -1.30093093762368       -0.03725698535536
C           -1.47629991491843       -2.63953904734812       -0.06026456157919
H            3.72412363886091        1.21662814111958        1.06535269613708
H            4.00297614598872        1.04308188790603       -0.68132864880100
H            2.69430755376217        2.10282296508563       -0.08196441647955
H            3.58647490725175       -1.64930661014105        0.04797683172626
H           -1.66522913489898        3.08899375552830       -0.02690185695616
H           -2.82946986272983        2.10111697194636       -0.95424399033250
H           -2.88148991688290        2.08481172968812        0.81469180290986
H           -1.17106557517621       -3.19092370119767        0.83163889561419
H           -1.14710250806575       -3.16974004741639       -0.95650555125514
H           -2.56088857997075       -2.55035143613500       -0.07418193658783
H            1.44595219995999       -2.98045430075458       -0.01209540883578
25
 energy: -43.826817029746 gnorm: 0.090868578665 xtb: 6.6.1 (8d0f1dd)
C            3.23322139050401        1.17395380864662        0.08530577109830
N            2.29344548439760        0.09374180261761        0.03896937139906
C            2.60125350765104       -1.23947507977756        0.03356810083547
N            1.45410186125875       -1.98181829696066        0.00188253222403
C            0.40456332930032       -1.09234760992131       -0.00813032562932
C            0.91181387393250        0.20392014182831        0.01549625622715
C            0.09391616311423        1.38378398982283       -0.00569972441854
O            0.49357705927397        2.56169600489098       -0.00299042382307
N           -1.26653449501733        1.06272160040880       -0.03217118953215
C           -2.22742435542410        2.16381273880904       -0.05131911617007
C           -1.82446756290660       -0.19242887325618       -0.04843946858273
O           -3.01497513821952       -0.37288027844713       -0.07154438163565
N           -0.94277817981193       -1.29796429165958       -0.03801255487565
C           -1.48041278042580       -2.63659545097139       -0.06009888913945
H            3.72596786542036        1.21354064043796        1.05990020287926
H            3.99393718810661        1.04571468125111       -0.68353652004089
H            2.69246261338547        2.11084619029710       -0.07506239991184
H            3.58628623985713       -1.63540340895002        0.05699566091274
H           -1.67251007668313        3.10429850770760       -0.02880465676177
H           -2.83122733693646        2.10543082715651       -0.95365861343353
H           -2.88307377721612        2.08915204894755        0.81374222955161
H           -1.17309382451782       -3.18157914169106        0.83223084203013
H           -1.15108999934204       -3.16002732396231       -0.95695534970198
H           -2.56211024179296       -2.54649933058266       -0.07343490146137
H            1.57384713203228       -3.09740739520949       -0.01165469741664
25
 energy: -43.833695114294 gnorm: 0.032586661736 xtb: 6.6.1 (8d0f1dd)
C            3.24059842543567        1.17862018137316        0.08717915628267
N            2.30613153705038        0.09900775729960        0.03726439268065
C            2.61219922787953       -1.24291231157559        0.03291085716930
N            1.44267198084076       -1.96547434716782        0.00255164398932
C            0.40689205980070       -1.08646707178507       -0.00847173714230
C            0.91947312912539        0.20526480072871        0.01416976182660
C            0.10352846455263        1.37193554377497       -0.00607707015321
O            0.49618648028090        2.54782988607493       -0.00417517765533
N           -1.26907625167082        1.04993046771030       -0.03245058549314
C           -2.22374966828167        2.15220245536086       -0.05125804803672
C           -1.82348568935451       -0.19910565813950       -0.04866834880451
O           -3.02102145144532       -0.38432708062801       -0.07194396096685
N           -0.94078526560409       -1.30079897492363       -0.03810849928891
C           -1.48148403525513       -2.63849163018702       -0.06025659246900
H            3.73328236931711        1.21880646783136        1.06320228208088
H            3.99930659773169        1.05443076488244       -0.68703391054872
H            2.69050512457672        2.10653641772782       -0.07226462691307
H            3.59515998473199       -1.64908370102261        0.05678106983074
H           -1.65708376136561        3.08240018801254       -0.02801036829586
H           -2.82965999049388        2.10223249484662       -0.95499518719019
H           -2.88092179533608        2.08660697002394        0.81500718132101
H           -1.17287807899725       -3.18724052164364        0.83119582505105
H           -1.15055008683603       -3.16663226452994       -0.95610231149035
H           -2.56589504196381       -2.54782070490883       -0.07330471255276
H            1.49935167522119       -3.00926362770295       -0.01056327860819
25
 energy: -43.834281837912 gnorm: 0.016098076461 xtb: 6.6.1 (8d0f1dd)
C            3.23086988847132        1.17494535290574        0.08605675642415
N            2.30099589242805        0.09510749460652        0.03637083091717
C            2.61670554550545       -1.24824932625331        0.03437421276237
N            1.45264240428815       -1.98378891634325        0.00250236038317
C            0.41317263982476       -1.10146685505888       -0.00817292493151
C            0.91526855225438        0.19820918889085        0.01438485211814
C            0.10861962049815        1.36998830345622       -0.00456169015394
O            0.49722282644333        2.54623741523725       -0.00170439601787
N           -1.27168344031077        1.05447531668761       -0.03171060084542
C           -2.22550834716334        2.16016050822119       -0.05110281581682
C           -1.81683318138305       -0.19460415789191       -0.04801722517763
O           -3.01670041741063       -0.37949259192971       -0.07159104817673
N           -0.93717928723237       -1.30334991113374       -0.03765101858605
C           -1.48332660793230       -2.63669258230979       -0.06030669949579
H            3.72191246601991        1.21316483428664        1.06263516228123
H            3.99162955303667        1.04308056986901       -0.68522360827551
H            2.68672870165858        2.10455590818588       -0.07775026947396
H            3.60151130828978       -1.64210966711014        0.05841536554217
H           -1.67520186417171        3.10056065732303       -0.02847406621062
H           -2.83377934264399        2.10817167386408       -0.95374870824587
H           -2.88574519606832        2.09262322139709        0.81314732038648
H           -1.17537443339902       -3.18531335339932        0.83209834885207
H           -1.15303343225984       -3.16367309681831       -0.95772401334274
H           -2.56732468604413       -2.54137070521223       -0.07336544960872
H            1.53310677724138       -3.00298278003787       -0.01230292068468
25
 energy: -43.834551128747 gnorm: 0.007709158012 xtb: 6.6.1 (8d0f1dd)
C            3.23452158000981        1.17558032434831        0.08742612827367
N            2.29854647014527        0.09797208957559        0.03620561377635
C            2.60955722679398       -1.24757299544805        0.03285382744057
N            1.44594039684790       -1.98638049833335        0.00274407376385
C            0.40982028464733       -1.09854434277560       -0.00839110504467
C            0.91208490520747        0.20271978172770        0.01421724124822
C            0.10676369505168        1.37443512886925       -0.00640338570830
O            0.48878191539664        2.55285363902372       -0.00513588158599
N           -1.27477371584650        1.05451141098349       -0.03302354489064
C           -2.22468677459799        2.15885595134901       -0.05133194015893
C           -1.81957149274754       -0.19323452448876       -0.04872718584665
O           -3.01927802912646       -0.37931944820294       -0.07191727992624
N           -0.93993821709759       -1.30121927341553       -0.03786620666810
C           -1.48036339070175       -2.63712763499119       -0.05984595025366
H            3.73192122349119        1.21286550078405        1.06114671105368
H            3.99559832899121        1.04975192320366       -0.68519175750846
H            2.69554696704333        2.10926774568278       -0.06996867931589
H            3.59247116274576       -1.64243488022209        0.05545564986195
H           -1.66347505263954        3.09279442462960       -0.02866577464192
H           -2.83142220561113        2.10545785667638       -0.95496986301611
H           -2.88202636418323        2.08935263797724        0.81508189037614
H           -1.16974867465212       -3.18424073295112        0.83245504798632
H           -1.14742577108696       -3.16370460965088       -0.95639416331076
H           -2.56440815737235       -2.54997702913702       -0.07318134483209
H            1.52425962923203       -3.01447594378160       -0.00999436644924
25
 energy: -43.834557633759 gnorm: 0.006176705588 xtb: 6.6.1 (8d0f1dd)
C            3.23494898884301        1.17748848360252        0.08554142752853
N            2.30174584040531        0.09822350805762        0.03687563790807
C            2.61257879284121       -1.24659496202548        0.03548067899016
N            1.44750671740732       -1.98432597929804        0.00255205176261
C            0.41148977447409       -1.09722557853197       -0.00821164811447
C            0.91473423658661        0.20264494167566        0.01511104615534
C            0.11089555105988        1.37338407736115       -0.00420770926187
O            0.49409731746818        2.55074662346918       -0.00110652305672
N           -1.27278821402463        1.05330829043252       -0.03151440991679
C           -2.22424385936640        2.15568330400744       -0.05075195275268
C           -1.81774888028178       -0.19381339473794       -0.04805027270909
O           -3.01701877881889       -0.38162495802765       -0.07170596687152
N           -0.93844561994255       -1.30094268165629       -0.03792884915987
C           -1.48349435981045       -2.63544732013495       -0.06091117408690
H            3.72744449953359        1.22230955410063        1.06173074374517
H            3.99799016315556        1.05127200248472       -0.68542698353284
H            2.68849457439169        2.10600305034922       -0.07934649026191
H            3.59588411818229       -1.64277246099647        0.05938746710534
H           -1.66425221181595        3.08990187404256       -0.02755728012958
H           -2.83030548458190        2.10211913231703       -0.95469997150737