25
 energy: -43.833753754032 gnorm: 0.111972064300 xtb: 6.6.1 (8d0f1dd)
C            3.24433528336346        1.16565915163858        0.08374539797478
N            2.30352195478249        0.07898271570364        0.03956394146202
C            2.58887798542778       -1.22156289663558        0.02898781564920
N            1.43838757675383       -1.93919631397756        0.00127175467664
C            0.39561385096457       -1.06039559545733       -0.00526941450468
C            0.93602744563991        0.21539698528515        0.02250692895939
C            0.09731905429757        1.39864495969665        0.00257588334705
O            0.50237429278516        2.54961276003392        0.00555840261400
N           -1.26793811073153        1.05488895664052       -0.04455842362791
C           -2.23913276239779        2.15791760847365       -0.07550433619126
C           -1.81858313911909       -0.20523934005311       -0.03966796123279
O           -3.00780835970828       -0.38719691172581       -0.06105352378777
N           -0.92533437240569       -1.30491947490851       -0.03004463466298
C           -1.46503633476770       -2.64870671643703       -0.05598449029622
H            3.72031677719327        1.21341953038815        1.06464673088638
H            4.01543566320758        1.02937947416433       -0.67590057339454
H            2.70777982613234        2.09448172857103       -0.09408461404159
H            3.57288434408265       -1.64477220993539        0.03894289867782
H           -1.67033739291155        3.08484954124856        0.00607453683771
H           -2.87518481647662        2.18313812468597       -0.96756092863089
H           -2.90503127073095        2.05875386108693        0.77730973371085
H           -1.16436962014536       -3.19908710032171        0.83584738709457
H           -1.13858414238971       -3.17709721440040       -0.95278608163570
H           -2.55100489441162       -2.56050043072065       -0.07113846573907
H            1.37698709165248       -2.94873342257157       -0.01479077886062
25
 energy: -43.838021178351 gnorm: 0.040661878250 xtb: 6.6.1 (8d0f1dd)
C            3.24844886995138        1.17537272714706        0.08606193848924
N            2.30827202265154        0.09710416971242        0.03734897726335
C            2.60068234098687       -1.23486392230535        0.02941653725961
N            1.42586815389056       -1.93998787265557        0.00107842239042
C            0.39697893764171       -1.05568281918184       -0.00713226966498
C            0.92783849789250        0.22547384650492        0.01686109359174
C            0.09942927425425        1.39260242614042       -0.00698979375770
O            0.49246880571852        2.56258792600219        0.00311160853928
N           -1.27503624258747        1.04795012644715       -0.04933870275212
C           -2.23224992183053        2.15071998353811       -0.06036490893157
C           -1.82628293388200       -0.20362701608774       -0.04884253235247
O           -3.02362983258504       -0.39182251655677       -0.06148278161513
N           -0.93510035564870       -1.30144775424808       -0.03260448670272
C           -1.46796768732523       -2.64459819388140       -0.05545091462078
H            3.72808431392120        1.22164795645010        1.06774821304093
H            4.01698985698483        1.03743173676086       -0.67700611479852
H            2.70496975192405        2.10077733449463       -0.09116803667760
H            3.57810518969771       -1.66235049443923        0.04038497655181
H           -1.65673075223568        3.07285379892774        0.00608578076562
H           -2.83703833955145        2.15094560306505       -0.97034505469626
H           -2.90555552726102        2.05810283957958        0.79122294656670
H           -1.16326488213684       -3.19597270500109        0.83633801678811
H           -1.13691151787016       -3.17486343655157       -0.95101164793376
H           -2.55351077735695       -2.55653163254209       -0.07101983711099
H            1.35665868484312       -2.94410434084708       -0.01421424434782
25
 energy: -43.838826237594 gnorm: 0.018869188965 xtb: 6.6.1 (8d0f1dd)
C            3.24911579468951        1.17049396900872        0.08445946968432
N            2.30762269142625        0.10444242852887        0.03729529813751
C            2.61044225609595       -1.24198504363896        0.03053487721259
N            1.42653157620284       -1.94413547193956        0.00302691312862
C            0.40356989833843       -1.06091572515563       -0.00107936767664
C            0.92063234294668        0.22581260775730        0.02332366209957
C            0.10624393250854        1.38414638032307        0.00090232204277
O            0.49805353734930        2.56028616017111        0.00953627211034
N           -1.28001471216869        1.05254988070979       -0.05429711704055
C           -2.23966743042462        2.15816276896329       -0.06964058618472
C           -1.82001771937924       -0.19857201009962       -0.04365010216472
O           -3.01922207595942       -0.39320849410003       -0.06103549093077
N           -0.93552601918323       -1.30177775236141       -0.02662989623773
C           -1.46477233395789       -2.64537036581350       -0.05569568537459
H            3.72602701602075        1.21229514321865        1.06792301869287
H            4.01741144971163        1.02399402677638       -0.67769094908371
H            2.70766173512597        2.09578746178846       -0.09619973407666
H            3.58616020719155       -1.65624690658626        0.03622246527043
H           -1.67734760368409        3.08697770932190        0.00126945151440
H           -2.86434813122751        2.17823586423706       -0.96600571527905
H           -2.91044792045997        2.06198958159429        0.78161973703018
H           -1.16053415102439       -3.20317603935595        0.83349863330724
H           -1.13480243783642       -3.17548563498183       -0.95312399597925
H           -2.54983871801723       -2.56001010689132       -0.07065591164072
H            1.36858274580249       -2.94657266100242       -0.01522038327732
25
 energy: -43.839074441001 gnorm: 0.009433085131 xtb: 6.6.1 (8d0f1dd)
C            3.24413641009598        1.17205652204697        0.08590651516663
N            2.30389354824200        0.10354338647588        0.03449660058089
C            2.60514329271292       -1.23986141685799        0.02979785572303
N            1.42459370747786       -1.94283659724171       -0.00054796713803
C            0.40215040155147       -1.06315464319250       -0.00709380388777
C            0.91875290644076        0.22391776503733        0.01879354311379
C            0.10873791751032        1.38258083942108       -0.00283537201638
O            0.49653322731650        2.55678810130089        0.00180505662554
N           -1.27756259760693        1.05035314769319       -0.05261872380614
C           -2.23285817980290        2.15488048724387       -0.06799142843696
C           -1.81726720248993       -0.19968509086945       -0.04351093163689
O           -3.01519608049007       -0.39314088290904       -0.05910554471528
N           -0.93600050370638       -1.30317688972416       -0.03143969778795
C           -1.46890904275723       -2.64487072709912       -0.05553119155640
H            3.72143107721295        1.21773816221666        1.06851430108612
H            4.01504255250641        1.03696567159227       -0.67527881107395
H            2.70334724214332        2.09866392077382       -0.09043406347064
H            3.58067407859725       -1.65019056014313        0.04106959250588
H           -1.65879022952796        3.07680816768348        0.00679531809971
H           -2.85556326175568        2.17199257195365       -0.96710042919332
H           -2.90164735913153        2.05785077653418        0.78459869653280
H           -1.16659465778736       -3.19647072770864        0.83775792170545
H           -1.14079364348257       -3.17922547620528       -0.95085504657105
H           -2.55409413577941       -2.55720331150032       -0.07076329806008
H            1.37235646259738       -2.94660542604951       -0.01574190650459
25
 energy: -43.839047640222 gnorm: 0.008437991988 xtb: 6.6.1 (8d0f1dd)
C            3.24984548100563        1.16729232401942        0.08361472010195
N            2.30443774734382        0.10116547997251        0.03629846817409
C            2.59983824642254       -1.24003527177773        0.03146576922494
N            1.41994065674388       -1.93918202941006        0.00291817799760
C            0.39991525818836       -1.05920496638432       -0.00441756808030
C            0.91963858664794        0.22717265376295        0.02201336322682
C            0.10781868023116        1.38741927559325        0.00157655803755
O            0.49081426465493        2.56068806916449        0.00815035813678
N           -1.27962454397505        1.05265995916772       -0.04700182780203
C           -2.23740476028014        2.15292672476583       -0.06615956699376
C           -1.81904556533524       -0.19797404715832       -0.04330520256200
O           -3.01627006692743       -0.39181698310485       -0.06180569092984
N           -0.93666859333717       -1.29959267253839       -0.03045119404555
C           -1.46515200872028       -2.64300847684440       -0.05720345397068
H            3.73150942532047        1.21661902462012        1.06407810632700
H            4.01892699969413        1.02879448301146       -0.67896696297001
H            2.71403841059254        2.09701801859727       -0.09445094008959
H            3.57511558433722       -1.65411968584212        0.03900982184250
H           -1.66614600341788        3.07721187377700        0.00516821784376
H           -2.85225836064126        2.15772522328669       -0.97126652779694
H           -2.91035413005772        2.05789289487285        0.78429829621723
H           -1.15990705114492       -3.19630533253799        0.83389429895322
H           -1.13322411210598       -3.17163210177929       -0.95406855908746
H           -2.55087600530607       -2.56009505391742       -0.07264623778429
H            1.36660779015373       -2.94390161284426       -0.01205523868659
25
 energy: -43.839181989761 gnorm: 0.003523432659 xtb: 6.6.1 (8d0f1dd)
C            3.24713669413772        1.16931849558383        0.08628799597992
N            2.30624575766320        0.10052799257633        0.03625562224533
C            2.60388765824898       -1.24155041857891        0.03041403377732
N            1.42301436039613       -1.94097782722457        0.00104595714175
C            0.40177358724968       -1.06148806632836       -0.00522440419574
C            0.92067068457806        0.22550810851890        0.01961689649394
C            0.10939924178820        1.38574487216073       -0.00364587500220
O            0.49322184263454        2.55949243992912        0.00454568165927
N           -1.27977804710349        1.05221452199792       -0.05211208107090
C           -2.23622232030888        2.15562703060821       -0.06597762735294
C           -1.81912389633935       -0.19896676605553       -0.04638821940886
O           -3.01710383297165       -0.39321867674659       -0.06203789432935
N           -0.93607914965040       -1.30122436854575       -0.03044036675908
C           -1.46591410081766       -2.64465537159799       -0.05474126680535
H            3.72491950167119        1.21754075629529        1.06896392930773
H            4.01748854375895        1.03178419964577       -0.67531344671326
H            2.70627748398103        2.09647734321274       -0.09287089434422
H            3.58057749114760       -1.65514831919859        0.03701430241959
H           -1.66684644450727        3.08098496536546        0.00418559136671
H           -2.85549563542744        2.16830065430121       -0.96710998198142
H           -2.90698822404764        2.06134293789058        0.78623875364720
H           -1.16176873832907       -3.19927566835535        0.83608366580064
H           -1.13641790078875       -3.17583042265952       -0.95106429192317
H           -2.55141915087558       -2.55918771946123       -0.06945364708723
H            1.37006052399908       -2.94562292286129       -0.01558524758128
25
 energy: -43.839166493379 gnorm: 0.003867907949 xtb: 6.6.1 (8d0f1dd)
C            3.24626712399248        1.17095174694697        0.08355859249830
N            2.30620037167039        0.10185597313979        0.03591797296844
C            2.60492630898384       -1.24077999115435        0.03187861418495
N            1.42401362622577       -1.94110023093961        0.00238997478185
C            0.40219972126140       -1.06250778417592       -0.00369824068332
C            0.92007713234403        0.22522463237494        0.02203149382385
C            0.11056525370714        1.38458626425140        0.00050735572380
O            0.49434285366920        2.55873040676730        0.00706815334651
N           -1.27944257003775        1.05092450577025       -0.05042293272035
C           -2.23488506071752        2.15446908386713       -0.06818258076665
C           -1.81877401745991       -0.19965216354569       -0.04246419112376
O           -3.01695409266833       -0.39373677163267       -0.05874707130204
N           -0.93627433353669       -1.30207712971261       -0.02920804388181
C           -1.46807000762078       -2.64455338906923       -0.05702768973031
H            3.72613168463252        1.21691873558177        1.06518941616861
H            4.01483056345891        1.03304202344426       -0.67982946497155
H            2.70565397322783        2.09861481867312       -0.09350432973130
H            3.58201152238524       -1.65226505471827        0.04059220477555
H           -1.66406765775733        3.07854047655803        0.00535369672127
H           -2.85429492622875        2.17048510188708       -0.96941217051329
H           -2.90655435290557        2.05825921577260        0.78259674813250
H           -1.16640755797187       -3.19937578479629        0.83440297703979
H           -1.13873275465367       -3.17609380939094       -0.95346220799596
H           -2.55342453067604       -2.55701578046071       -0.07348316387436
H            1.37217765676265       -2.94572732496590       -0.01335792758635
25
 energy: -43.839195777337 gnorm: 0.001737072373 xtb: 6.6.1 (8d0f1dd)
C            3.24721326456538        1.16964645194033        0.08544564043116
N            2.30581194774892        0.10149746685289        0.03528088589818
C            2.60327271567459       -1.24090793959200        0.03048035702511
N            1.42252199921462       -1.94051082954195        0.00052891538487
C            0.40141747637450       -1.06158183853010       -0.00565435907592
C            0.91974824099916        0.22600772008272        0.02006830161744
C            0.11044895937254        1.38557698037796       -0.00167011774946
O            0.49360503888000        2.55955755187899        0.00483934975209
N           -1.27987162048429        1.05161239420133       -0.05141664726470
C           -2.23583928027502        2.15439089175136       -0.06747831277970
C           -1.81904486120656       -0.19893871193911       -0.04400446349421
O           -3.01703845477155       -0.39292313966151       -0.06023020603106
N           -0.93660276135865       -1.30118720339783       -0.03049422094358
C           -1.46659321158711       -2.64434632449289       -0.05568986437630
H            3.72533632124863        1.21555174144771        1.06790705864053
H            4.01760103246069        1.03159301489887       -0.67602590034032
H            2.70835721150477        2.09798841164107       -0.09242513585578
H            3.57994381933002       -1.65296136130975        0.03911271155092
H           -1.66513964941973        3.07873632173379        0.00484961634855
H           -2.85647607761769        2.16824819849353       -0.96799547778544
H           -2.90610482345085        2.05829980378998        0.78451052573895
H           -1.16227877630066       -3.19697801377620        0.83620336884421
H           -1.13686674968595       -3.17626380272356       -0.95170666293109
H           -2.55212481832169       -2.55914904782546       -0.07063711895149
H            1.37021898719313       -2.94524096582776       -0.01511105836858
25
 energy: -43.839172302061 gnorm: 0.003546850879 xtb: 6.6.1 (8d0f1dd)
C            3.24635074654589        1.16950504340004        0.08511574138456
N            2.30624127062678        0.09972360607012        0.03690308889982
C            2.60315790900315       -1.24194309444413        0.03135144890897
N            1.42289408137077       -1.94121476770639        0.00287262492769
C            0.40163695539520       -1.06225398011190       -0.00383449446910
C            0.92034691235004        0.22518936254396        0.02120195571184
C            0.11075242988956        1.38562112203992       -0.00177276820867
O            0.49336041481102        2.55916509265181        0.00600816440735
N           -1.27990917954426        1.05200788334831       -0.05081506489741
C           -2.23545366377495        2.15572804853876       -0.06550573305135
C           -1.81870187097126       -0.19906809228416       -0.04622973166644
O           -3.01643214345987       -0.39322547424834       -0.06378904377016
N           -0.93602163914418       -1.30143277748134       -0.02985855779211
C           -1.46596558341355       -2.64482676561020       -0.05565348531140
H            3.72551040267902        1.22063272366231        1.06695011731502
H            4.01600727851343        1.03257803606880       -0.67726977427750
H            2.70410097849053        2.09548556490528       -0.09469319308584
H            3.58000293445425       -1.65497222641901        0.03664096952288
H           -1.66567620117622        3.08100014760105        0.00472709935586
H           -2.85359940547394        2.16731010070142       -0.96763063977750
H           -2.90743571815276        2.06313972381494        0.78608043158624
H           -1.16259777462416       -3.20073717284954        0.83463627019430
H           -1.13602289805816       -3.17458535264556       -0.95258826430932
H           -2.55140642513534       -2.55898232518827       -0.07086090437065
H            1.37037611888616       -2.94612665588549       -0.01329907194266
25
 energy: -43.839197407046 gnorm: 0.001415806745 xtb: 6.6.1 (8d0f1dd)
C            3.24699846975407        1.16966667719839        0.08530601524197
N            2.30639186549299        0.10052616294306        0.03626013204966
C            2.60356718350289       -1.24137734355686        0.03101266309672
N            1.42320477858071       -1.94082117163793        0.00164748161784
C            0.40178226732605       -1.06205386497593       -0.00457053842826
C            0.92023741523656        0.22560655524330        0.02073776910760
C            0.11073725985389        1.38560414654062       -0.00185137804388
O            0.49316291709541        2.55942382942078        0.00552926607736
N           -1.28007223148148        1.05169580985517       -0.05108664484021
C           -2.23581562302003        2.15500351230481       -0.06656867731067
C           -1.81882624390549       -0.19918785955774       -0.04498878789049
O           -3.01667817677267       -0.39345970693784       -0.06122447008570
N           -0.93609722389587       -1.30140315224975       -0.02993093116455
C           -1.46662802672605       -2.64453110583819       -0.05558159569274
H            3.72609610867006        1.21788575031246        1.06726894031836
H            4.01658459674907        1.03234599022721       -0.67712154454021
H            2.70623441894946        2.09680565196089       -0.09307504650323
H            3.58049829195342       -1.65394546339051        0.03790477529105
H           -1.66595111215646        3.08004096731572        0.00475770745019
H           -2.85455966349424        2.16786366055799       -0.96831621659136
H           -2.90748826322238        2.06073789819301        0.78487752449305
H           -1.16352055628397       -3.19949182343780        0.83533256523480
H           -1.13712882268612       -3.17536892146109       -0.95213471676076
H           -2.55205592887011       -2.55819419095562       -0.07092687868298
H            1.37084222943748       -2.94565423760172       -0.01457022815916
25
 energy: -43.833360736882 gnorm: 0.084451095192 xtb: 6.6.1 (8d0f1dd)
C            3.25134694634995        1.16485020902225        0.08310394983244
N            2.30832366157828        0.08255547468120        0.03927854054626
C            2.59738126949165       -1.22893358285556        0.02781801612307
N            1.43856425296485       -1.94420018821280        0.00156496887503
C            0.40079258473744       -1.06192752163675       -0.00253509493625
C            0.93536886925141        0.21723498661017        0.02780030118806
C            0.09971214498754        1.39171524482414        0.00808535012469
O            0.50456338979371        2.55283822437177        0.01543083201402
N           -1.28364140196821        1.05482217349681       -0.06095659395155
C           -2.25967242473245        2.16350018681424       -0.09932192422430
C           -1.81809450194754       -0.20972378616321       -0.03178696771680
O           -3.01267331577000       -0.39582953410352       -0.05150405824811
N           -0.92442247224586       -1.30683006617683       -0.02315569435413
C           -1.46023370076202       -2.65087936966101       -0.05165061549755
H            3.72811262214035        1.21201883138481        1.06435069971275
H            4.02282325904347        1.02425347157514       -0.67802600181108
H            2.71651872415571        2.09133927289634       -0.09673891395384
H            3.57908520189843       -1.65260971552164        0.03532812978139
H           -1.66995902877275        3.07837879859253        0.03788795129770
H           -2.92279477665092        2.27318361583229       -0.98247055375548
H           -2.93408365418295        2.03919688500503        0.74110939292768
H           -1.15812099783292       -3.20227054143499        0.83931627462862
H           -1.13156865606344       -3.17896613857736       -0.94865249417106
H           -2.54653930739971       -2.56443301218027       -0.06769136399456
H            1.37633349665895       -2.95476831674092       -0.01634247024774
25
 energy: -43.835968256753 gnorm: 0.036400687660 xtb: 6.6.1 (8d0f1dd)
C            3.25274737854108        1.17305381985416        0.08528033491851
N            2.30860896075393        0.09860739907654        0.03685107280086
C            2.60230203615926       -1.23721681824700        0.02866926037957
N            1.42486645266460       -1.94058733090745        0.00136818633508
C            0.39812124568264       -1.05602939900780       -0.00608569717831
C            0.92490265806956        0.22745355983810        0.01830681018007
C            0.09750867629188        1.38914914060708       -0.00898469899307
O            0.48702579815689        2.56208973428761        0.01199356635428
N           -1.28825104432237        1.04923810027521       -0.06929936987958
C           -2.24445943333489        2.15647546660733       -0.06936553515054
C           -1.82744652588380       -0.20651362273601       -0.05058690318017
O           -3.02555315898788       -0.39960986441786       -0.05184087190824
N           -0.93561288650872       -1.30165482732976       -0.02828697827717
C           -1.46426259394495       -2.64610133375237       -0.05064858627662
H            3.73360438790728        1.21951298624890        1.06669213433268
H            4.02188813291229        1.03157290739257       -0.67757588458916
H            2.71297297990712        2.09937011744747       -0.09381234904010
H            3.57908551121218       -1.66490673384295        0.03780759019798
H           -1.65820177438781        3.07048770733438        0.03846767615381
H           -2.84742097752607        2.21065109612970       -0.98723163670195
H           -2.93321978254626        2.03923449509619        0.76642215904744
H           -1.15833573832683       -3.19755301020809        0.84084428857845
H           -1.13063862797291       -3.17584635755045       -0.94596363948024
H           -2.55002599109116       -2.56104825487958       -0.06746301126924
H            1.35691650129789       -2.94531337547408       -0.01531625716507
25
 energy: -43.837403845066 gnorm: 0.013064112560 xtb: 6.6.1 (8d0f1dd)
C            3.25586822137115        1.16783920113939        0.08421018440991
N            2.31028670005223        0.10077705566220        0.03863146089756
C            2.61001787710347       -1.24363800521003        0.02954434737205
N            1.42711358396421       -1.94444117884503        0.00358727749321
C            0.40362661360050       -1.06038678426898        0.00147848190795
C            0.92185346100166        0.22643905273713        0.02653890638846
C            0.10079821884033        1.38440937967939       -0.00068112392920
O            0.49147211127948        2.55852618441909        0.01732799553212
N           -1.29207622978065        1.05410447226568       -0.07717451797006
C           -2.25376588352357        2.16278934670280       -0.08312301048202
C           -1.82430607630001       -0.20199126641630       -0.04383822736819
O           -3.02197218170904       -0.40188088917770       -0.05098404304720
N           -0.93470439660923       -1.30096418146415       -0.02045979819633
C           -1.46046011289964       -2.64637516633624       -0.05081712804717
H            3.73624259221143        1.21283909774729        1.06619026562016
H            4.02382460350596        1.02236634106330       -0.67903677356221
H            2.71636462050733        2.09441671622737       -0.09642557041521
H            3.58644036521991       -1.66412305211547        0.03261996657827
H           -1.67690972325354        3.07820862556932        0.03137503060510
H           -2.88180364129573        2.24511933830952       -0.97730406662270
H           -2.93853159814625        2.04047748729062        0.75301573440311
H           -1.15445267179470       -3.20443984061313        0.83733382811110
H           -1.12781296973597       -3.17425733146611       -0.94859920075154
H           -2.54581397498322       -2.56323362259333       -0.06668298201456
H            1.36582267609684       -2.94806537846477       -0.01648537672334
25
 energy: -43.837388496422 gnorm: 0.009471480021 xtb: 6.6.1 (8d0f1dd)
C            3.24898870680636        1.17034075918921        0.08452647861462
N            2.30718033155923        0.10129759749849        0.03381870307766
C            2.60846446572750       -1.24272968434678        0.02801187351562
N            1.42749266979446       -1.94562888459582       -0.00185429171355
C            0.40457162299977       -1.06521655288223       -0.00556462393972
C            0.91956157773287        0.22322129728293        0.02273988183325
C            0.10588490752543        1.38158525710635        0.00097146019370
O            0.49633910408995        2.55460393467715        0.01299197081869
N           -1.28908877129845        1.05273542833473       -0.07310030338750
C           -2.24818366933923        2.16201624573614       -0.08687954575367
C           -1.82035412351314       -0.20239479485645       -0.03859580170083
O           -3.01747822264104       -0.40188511759164       -0.04758927895380
N           -0.93448172038719       -1.30384411796277       -0.02491062119900
C           -1.46495119638968       -2.64735118916040       -0.05118783449442
H            3.72450013186049        1.21829796855366        1.06828415252185
H            4.02127416225323        1.03343844838268       -0.67566770630332
H            2.70906939881040        2.09678652743217       -0.09510980140850
H            3.58499499060307       -1.65581426852284        0.03881087806530
H           -1.65916848206222        3.06958804149110        0.03888725256876
H           -2.88345178695046        2.24990515020126       -0.98015593944296
H           -2.92968846213352        2.03903623582591        0.75113071712958
H           -1.16215535463664       -3.19893132390149        0.84187816026679
H           -1.13533171379777       -3.18249484798404       -0.94591941965386
H           -2.55033945147408       -2.56149004271859       -0.06743280794994
H            1.37347306958357       -2.95055646534689       -0.01784189251549
25
 energy: -43.837547744619 gnorm: 0.005266861346 xtb: 6.6.1 (8d0f1dd)
C            3.25439694077047        1.16596298121643        0.08328490527269
N            2.30730852548988        0.10126131340439        0.03560604608168
C            2.60520532920901       -1.24289212937900        0.02953764592966
N            1.42366994677253       -1.94301348832359        0.00194761640457
C            0.40330155826288       -1.06196485719322       -0.00283461183305
C            0.91923846073440        0.22645906270052        0.02531793188567
C            0.10524234108438        1.38496590684667        0.00286792819842
O            0.49251787252422        2.55849602311386        0.01560064574865
N           -1.29110165088527        1.05472591825610       -0.06955925084553
C           -2.25297314559906        2.16088679563071       -0.08500787089640
C           -1.82152404894923       -0.20058531255480       -0.03932925074334
O           -3.01850172072594       -0.40092875561127       -0.05093531130981
N           -0.93506007510474       -1.30103107398781       -0.02409048869969
C           -1.46153412247371       -2.64583028424662       -0.05252684178801
H            3.73501790344783        1.21328687701057        1.06470989755015
H            4.02360713078472        1.02441751681343       -0.67930877776806
H            2.71975032914863        2.09554881574968       -0.09566278568373
H            3.58095715048423       -1.65755381167798        0.03664059263404
H           -1.66854288078510        3.07282637372370        0.03724668429654
H           -2.88476560693558        2.23830424135458       -0.98311588743641