25
 energy: -43.128772088576 gnorm: 0.133969041336 xtb: 6.6.1 (8d0f1dd)
C            3.21722907846681        1.19323187783614        0.09284790912301
N            2.29947380640358        0.11217119286247        0.03811070505964
C            2.60101323737581       -1.24199745560120        0.02680597693682
N            1.41164502406165       -1.95714261966923       -0.00248506621800
C            0.38691781272576       -1.10174339106055        0.00308829386825
C            0.89638340214812        0.20917224867331        0.02397640783345
C            0.09305334820207        1.33247581640181        0.00679335163531
O            0.42592298872526        2.52546269494322        0.03418395037531
N           -1.35130977725827        0.99309560435690       -0.04312383171722
C           -2.14754218068236        2.25150426406081       -0.09255338890437
C           -1.92624130738911       -0.24069913987607       -0.04026593077857
O           -3.16718724065905       -0.34171427295598       -0.08199511618642
N           -0.97931880612076       -1.33550242772873       -0.02423510947312
C           -1.43859930591576       -2.69257918725789       -0.05443447234694
H            3.71680514945897        1.24771977729673        1.06739650870145
H            3.96690213086625        1.09926040405244       -0.69255143665178
H            2.64105177139176        2.10470398311927       -0.06017474666306
H            3.58326922642806       -1.67328661469147        0.03267192672243
H           -1.51936158852612        3.05991733460779       -0.05363557015746
H           -2.83159866635708        2.22066613514432       -0.95309300393889
H           -2.83293882527060        2.24808112305159        0.80804591537102
H           -1.12043906158781       -3.23084806228177        0.83003459793433
H           -1.09809819705157       -3.20451936714685       -0.94853402674879
H           -2.53871221788548       -2.62016407410454       -0.07227226484451
H            1.33927815924869       -2.96090557852878       -0.02399618255591
25
 energy: -43.140951909185 gnorm: 0.042600689716 xtb: 6.6.1 (8d0f1dd)
C            3.21345458643421        1.18895991649317        0.09211387631947
N            2.29291784710487        0.10200652088321        0.03649708532662
C            2.59024666082659       -1.24883663706879        0.02701158578184
N            1.40208368200098       -1.94944947605614       -0.00152274461336
C            0.37809199944459       -1.08261925689833       -0.00061419407560
C            0.89599093618249        0.21316420897000        0.02329617163190
C            0.09648098468458        1.35129170549510        0.00825006304684
O            0.44560679815045        2.53500898155905        0.03283052340255
N           -1.32985177034432        1.01787841020482       -0.04416022784526
C           -2.18467661723142        2.21456645030544       -0.07692005569184
C           -1.88776528193478       -0.21983787480391       -0.05095515703755
O           -3.09790393086331       -0.37639485108683       -0.07768472600612
N           -0.97380762591752       -1.31579488944011       -0.02730422001832
C           -1.45426419938866       -2.67587730200477       -0.05437156576540
H            3.71669653107943        1.24126500737481        1.06406355902773
H            3.96828372648800        1.09708751715477       -0.69136402205266
H            2.64275229698529        2.10584665304039       -0.05611885834541
H            3.56612283873992       -1.67938329530940        0.03291010367786
H           -1.52764314905591        3.05676311836913       -0.05943210419204
H           -2.82924297290947        2.19211285870288       -0.95834571989229
H           -2.84044742125659        2.22911776469375        0.81212980091542
H           -1.13218112963505       -3.22379115076129        0.83210341256074
H           -1.10780274820474       -3.19733692355585       -0.94874309068508
H           -2.54661317438068       -2.62577428877999       -0.07154957964451
H            1.33106909379986       -2.95361290197738       -0.02151451944954
25
 energy: -43.142113173759 gnorm: 0.011991129610 xtb: 6.6.1 (8d0f1dd)
C            3.20780573474106        1.19024785582248        0.09229713263966
N            2.28726085113288        0.09833263349092        0.03681116686776
C            2.58708711926564       -1.25087902441917        0.02818571081852
N            1.39955881577842       -1.94893792345857       -0.00152416263454
C            0.37019862443077       -1.07948268004536       -0.00002294674419
C            0.89167970898101        0.20896166180840        0.02407922921984
C            0.08543594397480        1.35092738676251        0.00909018390307
O            0.43871267703860        2.53301699678596        0.02971467703121
N           -1.32606509716700        1.02192323445055       -0.03983848374108
C           -2.18474600345110        2.20220243404982       -0.07253416132465
C           -1.88672029586322       -0.21662379832807       -0.04380441568348
O           -3.08774517208876       -0.39402632920123       -0.07899156671815
N           -0.97841721783163       -1.31389133435465       -0.02462998904593
C           -1.45842569549245       -2.67590875250513       -0.05564156258874
H            3.71271782350162        1.24265662988610        1.06347650094212
H            3.96413508824694        1.09847057993819       -0.69116583661913
H            2.63763643881932        2.10685825426872       -0.05654877820660
H            3.56446485547564       -1.67485115828472        0.03249816949314
H           -1.51352641118691        3.05637744089101       -0.06589981418754
H           -2.81779097251352        2.20815258779367       -0.95814970603233
H           -2.82563885097339        2.23497197329162        0.80766627478877
H           -1.12670763491324       -3.22468508768274        0.83076505490405
H           -1.10328137872885       -3.19515792179345       -0.95138912406001
H           -2.54560856570755       -2.62865979893425       -0.07094608996920
H            1.33557757532974       -2.95363559472883       -0.02289206667657
25
 energy: -43.142225974736 gnorm: 0.006422672157 xtb: 6.6.1 (8d0f1dd)
C            3.21204911554541        1.18953588032287        0.09240958243215
N            2.28996046635544        0.09820734986560        0.03629575332012
C            2.58875208952059       -1.25229211111869        0.02857589388549
N            1.39997712243651       -1.94950603268961       -0.00114256512512
C            0.37078774302553       -1.07804003317506       -0.00198513072207
C            0.89473517625680        0.20873165896798        0.02248910215405
C            0.08416858666924        1.35125251733995        0.00782677734261
O            0.44179261563114        2.53331724650904        0.03047050166788
N           -1.32341840224462        1.02470463911852       -0.04176589334769
C           -2.18988405359126        2.19813368567509       -0.06996801758406
C           -1.88779329211756       -0.21343994873107       -0.04980066801614
O           -3.08985478349681       -0.39036363269370       -0.07893888069485
N           -0.97823306173452       -1.31250250484148       -0.02693840117350
C           -1.45948367710471       -2.67426953854945       -0.05467343824385
H            3.71647960038057        1.24010067034273        1.06388380210268
H            3.96809234770717        1.09607237269638       -0.69122318454705
H            2.64255912755652        2.10609109385802       -0.05661180599555
H            3.56659041676311       -1.67572055484824        0.03247338972427
H           -1.52532680364303        3.06113396907813       -0.06277845369694
H           -2.82015679326466        2.20380162232735       -0.95798802473871
H           -2.83290909111385        2.22726380629962        0.80850390305905
H           -1.12874677248724       -3.22105611807080        0.83331666065073
H           -1.10382689818620       -3.19590964596964       -0.94862870307202
H           -2.54580412882000       -2.62469571307925       -0.07138061811955
H            1.33709131075523       -2.95419041313057       -0.02181618488594
25
 energy: -43.142259047714 gnorm: 0.003214842254 xtb: 6.6.1 (8d0f1dd)
C            3.21100659160336        1.19076744574952        0.09248058528265
N            2.28978121469035        0.09889681677268        0.03652747703076
C            2.58861699488771       -1.25246609667050        0.02907459355351
N            1.39939890563286       -1.95016031138291       -0.00095822578461
C            0.37089712007394       -1.07798443938539       -0.00121759942382
C            0.89551530374782        0.20832603436077        0.02314896802840
C            0.08265457158646        1.35051900624686        0.00828428398450
O            0.44327495180627        2.53247764902167        0.03017146177588
N           -1.32217663738163        1.02448402542023       -0.04073057758702
C           -2.18738212747285        2.19825003055428       -0.07112341579689
C           -1.88876753608321       -0.21347545499091       -0.04718045863999
O           -3.09137356811850       -0.38839067622031       -0.07777505900029
N           -0.97811633938677       -1.31349456818549       -0.02572945434921
C           -1.45911074213407       -2.67532237570738       -0.05529521691635
H            3.71512197936588        1.24122805301848        1.06393512055338
H            3.96635052674565        1.09757209446548       -0.69163907846505
H            2.64000098781432        2.10631161570015       -0.05619174111125
H            3.56664303249382       -1.67549584618864        0.03190367040001
H           -1.52374885755647        3.06206749203272       -0.06496961855174
H           -2.81869746470672        2.20289947115830       -0.95899645675702
H           -2.83090206413358        2.22933655142572        0.80890760750935
H           -1.12834326874344       -3.22346270484193        0.83147120206791
H           -1.10440894077003       -3.19551685266915       -0.95003552482921
H           -2.54577696649034       -2.62627783399069       -0.07129203848996
H            1.33714029332797       -2.95472886018985       -0.02216510810795
25
 energy: -43.142248590191 gnorm: 0.003188962127 xtb: 6.6.1 (8d0f1dd)
C            3.20996313610614        1.19200260782492        0.09255137261745
N            2.28959807369666        0.09959416594542        0.03675675869986
C            2.58848076502340       -1.25264027423556        0.02958102820218
N            1.39881310937502       -1.95081821489946       -0.00077303158775
C            0.37100981311818       -1.07792208808158       -0.00045384457346
C            0.89630416303906        0.20792041076424        0.02380458930191
C            0.08111028248481        1.34977721124737        0.00873636506453
O            0.44475689762657        2.53162803778622        0.02987164264812
N           -1.32092886266417        1.02425972032789       -0.03970332054248
C           -2.18486492187548        2.19837035171236       -0.07227997682051
C           -1.88974838329473       -0.21351817706518       -0.04456965587219
O           -3.09289954713061       -0.38641377036984       -0.07662052247651
N           -0.97799328192975       -1.31449362895572       -0.02452288811017
C           -1.45873037787071       -2.67637937372613       -0.05591475631666
H            3.71375954431924        1.24235604806594        1.06398661998787
H            3.96460788194012        1.09906981150732       -0.69205222137337
H            2.63744068351713        2.10653383359763       -0.05577438812615
H            3.56669528529789       -1.67526788845378        0.03133368021376
H           -1.52216233121960        3.06300086275541       -0.06715123158974
H           -2.81724421325469        2.20201366818160       -0.95999566281937
H           -2.82888620922461        2.23141327311751        0.80931732297295
H           -1.12793985406195       -3.22586653024541        0.82963151750743
H           -1.10498750945408       -3.19513036546609       -0.95143741145328
H           -2.54574646960574       -2.62786002633375       -0.07120312796476
H            1.33719028684069       -2.95526939949761       -0.02251346121372
25
 energy: -43.142267375540 gnorm: 0.001206336708 xtb: 6.6.1 (8d0f1dd)
C            3.21095244772004        1.19084399262324        0.09240028409360
N            2.28926324527540        0.09952036890006        0.03634267790809
C            2.58833645347007       -1.25229750473222        0.02954778534837
N            1.39877902784890       -1.95022231012191       -0.00101345788050
C            0.37102872627890       -1.07747426348347       -0.00148112784882
C            0.89577419447309        0.20849794003245        0.02288151583383
C            0.08039933612424        1.35000087444007        0.00801730092258
O            0.44252252600666        2.53187410185078        0.03032310438717
N           -1.32220146534263        1.02401607141118       -0.04137801935381
C           -2.18620214170508        2.19882311467785       -0.07124933258885
C           -1.88923739345185       -0.21426758769665       -0.04792675263562
O           -3.09174803294952       -0.38867902972903       -0.07927942830836
N           -0.97770814227093       -1.31400327164917       -0.02593982874064
C           -1.45838339645986       -2.67568748785939       -0.05496919792194
H            3.71487304194584        1.24105866818299        1.06384949601779
H            3.96638282087564        1.09698777709088       -0.69140019380074
H            2.64028196132280        2.10652077742722       -0.05654924655433
H            3.56637713904616       -1.67512204343333        0.03188599749592
H           -1.52247740421499        3.06164385928375       -0.06379575248707
H           -2.81912400731797        2.20499894351389       -0.95824114715330
H           -2.83014647047050        2.22973967476837        0.80918830834196
H           -1.12806126501332       -3.22300341128248        0.83223996509712
H           -1.10373920030922       -3.19617423503845       -0.94939095448391
H           -2.54537580660894       -2.62655736431007       -0.07114929319926
H            1.33703176652589       -2.95467738936281       -0.02230730611329
25
 energy: -43.142268092211 gnorm: 0.000639928637 xtb: 6.6.1 (8d0f1dd)
C            3.21123558985416        1.19042349870587        0.09250650704354
N            2.28929131694471        0.09928325335604        0.03631581359570
C            2.58869054437353       -1.25241573848372        0.02958360672651
N            1.39885462181219       -1.95022213613805       -0.00103821446005
C            0.37123866636219       -1.07728063317837       -0.00134465765382
C            0.89603039559201        0.20852730353200        0.02306774672216
C            0.08028933656520        1.35000902192321        0.00818573503765
O            0.44292301431311        2.53168581972198        0.03027129589731
N           -1.32224493460199        1.02429874681003       -0.04076146657179
C           -2.18710282245457        2.19895473459460       -0.07153530748718
C           -1.88871308176573       -0.21426298496208       -0.04681120536237
O           -3.09100555345362       -0.38891421777683       -0.07761555345495
N           -0.97753501168860       -1.31354500899734       -0.02561352292907
C           -1.45867904629921       -2.67498341239096       -0.05528811618749
H            3.71549167338871        1.24082628768649        1.06385889666632
H            3.96669631507534        1.09709570282753       -0.69139336932081
H            2.64068276650913        2.10630143402803       -0.05616413725169
H            3.56667660692887       -1.67529087050138        0.03150261988044
H           -1.52350899591013        3.06125472570072       -0.06454092737414
H           -2.81940981918740        2.20328426519296       -0.95872821998588
H           -2.83121333302362        2.22942891197515        0.80817454428061
H           -1.12838455833526       -3.22295163363076        0.83163084892814
H           -1.10433204363755       -3.19516266439198       -0.95011730100087
H           -2.54564569972315       -2.62530010636391       -0.07134627539371
H            1.33727201316048       -2.95468403373550       -0.02219394396859
25
 energy: -43.076492178079 gnorm: 0.289231348262 xtb: 6.6.1 (8d0f1dd)
C            3.19423111265855        1.21723987615376        0.10206038604830
N            2.27603207392710        0.13590430809702        0.03997492398207
C            2.61965718916543       -1.27081701711057        0.02273227297105
N            1.38446375617017       -1.97897157565173       -0.00760097013538
C            0.36737287048176       -1.14072348745104        0.01279993767612
C            0.86101340345130        0.19367606961534        0.03427153733033
C            0.08201707785110        1.26149923699418        0.02264154202554
O            0.39208367698499        2.47741851607781        0.08048166427064
N           -1.45355876631437        0.99005666669810       -0.04981816175454
C           -2.06987018722465        2.34785804326113       -0.12299374968464
C           -2.01090884010625       -0.22350999911904       -0.04046725022768
O           -3.20627695653301       -0.21074554331658       -0.10738094343744
N           -1.02919956114926       -1.37323607697991       -0.00994133520286
C           -1.40782110537234       -2.73884169654743       -0.04722944576032
H            3.72698246362341        1.27962419548489        1.06376938663641
H            3.92748337283453        1.16555609311044       -0.71059780287776
H            2.58677800475710        2.11182739938414       -0.02322725410445
H            3.59724232030915       -1.70947655151620        0.01926610266160
H           -1.36933337065418        3.03024507640767       -0.09315049899677
H           -2.83663268546274        2.34720455488550       -0.95176014635988
H           -2.78388359417058        2.41725308838397        0.80276710859873
H           -1.07205877071501       -3.26835258192524        0.82873999708681
H           -1.05186521530062       -3.23570894053792       -0.93960563394756
H           -2.52191733380871       -2.68368225595303       -0.06914307112591
H            1.30160088755215       -2.98333894451994       -0.04046420354636
25
 energy: -43.121730856008 gnorm: 0.101724343419 xtb: 6.6.1 (8d0f1dd)
C            3.18448942088380        1.20505952013670        0.09928845230526
N            2.27351751820102        0.10566827955585        0.04013234782905
C            2.59118995091356       -1.26773730322531        0.02334508118448
N            1.38161673925409       -1.96729775165170       -0.00635048547566
C            0.35603640118860       -1.11432062816588        0.00740588988154
C            0.86939624151864        0.19071929012197        0.03559283522753
C            0.08541904774161        1.30513443288955        0.02825932699849
O            0.42927865618483        2.49332668404898        0.08026699438543
N           -1.39855510073093        1.01805675601111       -0.05154765418021
C           -2.13021930605556        2.30005396894589       -0.10312798117097
C           -1.95970824019785       -0.20587898848305       -0.05532582687287
O           -3.17173506761477       -0.28806799071299       -0.10107134735276
N           -1.01218762620343       -1.33984529151271       -0.01371160489256
C           -1.43112209396795       -2.71542855750506       -0.04789411981676
H            3.71821883283849        1.26527396863432        1.05708235202566
H            3.92277599837394        1.15659769394001       -0.70715518776785
H            2.58742355438990        2.11095058493982       -0.02004877900381
H            3.56691603400630       -1.70174404839292        0.01929303097120
H           -1.38200623935568        3.04466085854870       -0.09950849186709
H           -2.82484236976903        2.31949800563700       -0.95977423340074
H           -2.77850377656787        2.40474982419835        0.80605920427574
H           -1.08703597460459       -3.25992563115587        0.83176611460366
H           -1.06451329784173       -3.22642976690520       -0.94111816554079
H           -2.52880100940674       -2.70180697202436       -0.06808619446870
H            1.30658352977636       -2.97330848394787       -0.03764716575120
25
 energy: -43.129331502774 gnorm: 0.025806286229 xtb: 6.6.1 (8d0f1dd)
C            3.17654649347616        1.20083334452223        0.09855166681610
N            2.26874135981676        0.09019864360086        0.04168992642525
C            2.57197884721424       -1.26275338457667        0.02441249248752
N            1.37864244035995       -1.96131055780365       -0.00625019006213
C            0.34287907777559       -1.09965393792833        0.00555769931423
C            0.86840743027744        0.18686881757660        0.03424509746627
C            0.07241248268688        1.32280176961463        0.02757262182955
O            0.43043674334541        2.50023076301843        0.07525929793336
N           -1.35925143113988        1.02781003134810       -0.04257869109329
C           -2.14345841962951        2.26658423595462       -0.09284347734925
C           -1.92963366380687       -0.19940112212252       -0.04590474671776
O           -3.13779651505242       -0.33338892824839       -0.10015039166955
N           -1.01071589539978       -1.32371046568787       -0.01276134553581
C           -1.44785476610576       -2.70232320448033       -0.05064245735704
H            3.71042415532249        1.25816373729468        1.05536255406291
H            3.91627436149243        1.15178389049875       -0.70612325437040
H            2.58360280184605        2.10911404945928       -0.01902882699407
H            3.55112323836162       -1.69283624831495        0.01972432445423
H           -1.38929282759212        3.04605167770702       -0.11082908252160
H           -2.80565769995061        2.31438002919493       -0.95380437294523
H           -2.76183814041235        2.38157033198176        0.79354291500274
H           -1.09134015695656       -3.24898029547594        0.83042452371394
H           -1.06866226745954       -3.21360574939056       -0.94446398252560
H           -2.53378878708283       -2.69289373123876       -0.06752426352664
H            1.31145296156823       -2.96757524257862       -0.03731364471169
25
 energy: -43.129720251883 gnorm: 0.012538742055 xtb: 6.6.1 (8d0f1dd)
C            3.17908120769183        1.20157839786403        0.09784507006029
N            2.27131137059714        0.09017460240534        0.04205610454651
C            2.57288414675842       -1.26492733563705        0.02443939623963
N            1.37848911603103       -1.96319040960751       -0.00546730185322
C            0.34240211580890       -1.09710992023704        0.00377655978061
C            0.87078718816321        0.18708180336906        0.03407238682007
C            0.06681776463809        1.32455245946305        0.02893281481467
O            0.43544494109932        2.50261425756037        0.07592529760092
N           -1.35482109194168        1.03140114823889       -0.04546940704710
C           -2.14852029511721        2.26335731219754       -0.08730218086750
C           -1.93043828812877       -0.19736885528500       -0.05700425677406
O           -3.13578068423327       -0.33402182716888       -0.10352166829989
N           -1.01342470917897       -1.32135439947306       -0.01682030435568
C           -1.44885275483666       -2.70171967652663       -0.04894496487443
H            3.71294121407088        1.25659280972235        1.05467298749939
H            3.91804533277016        1.15081855987463       -0.70739621738941
H            2.58510480456124        2.10846995939564       -0.01909982575653
H            3.55232360384256       -1.69664584787149        0.01895670267919
H           -1.39754317321719        3.05173129314213       -0.10800278750950
H           -2.80168995095867        2.30890135863335       -0.95956941235906
H           -2.76888221871342        2.38079327133384        0.80414773290752
H           -1.09113556823268       -3.24433801893017        0.83393462690193
H           -1.06690040351305       -3.21446081948086       -0.94010526967047
H           -2.53472721975324       -2.69612848686519       -0.06756437525264
H            1.31071537474705       -2.96884318219201       -0.03636731571517
25
 energy: -43.129836797597 gnorm: 0.005254853603 xtb: 6.6.1 (8d0f1dd)
C            3.17908588405651        1.20317021245707        0.09850419072508
N            2.27210940764597        0.09128605314791        0.04305363179776
C            2.57421012901796       -1.26573186911512        0.02517860377418
N            1.37883992913853       -1.96489928840672       -0.00596055138543
C            0.34328347975931       -1.09629562693771        0.00491505420841
C            0.87264227204713        0.18639419940556        0.03427630898289
C            0.06127064770983        1.32284089756809        0.02850999753699
O            0.43843474772826        2.50078041791568        0.07410069746469
N           -1.35334405237153        1.03200155125136       -0.04295404634931
C           -2.14585319463355        2.26206764096603       -0.09090402898507
C           -1.93350671213462       -0.19789989256769       -0.05013678066593
O           -3.13681160515613       -0.33441528002771       -0.09807380748948
N           -1.01468660929396       -1.32104294272321       -0.01496477989534
C           -1.44832561740293       -2.70228385095360       -0.05052485217010
H            3.71224500105696        1.25738548573310        1.05558566333219
H            3.91780519223121        1.15162718092067       -0.70673468004073
H            2.58348947893376        2.10851708775709       -0.01847324693571
H            3.55369521295545       -1.69722825939919        0.01952705341107
H           -1.39704279962755        3.05493386337584       -0.11367588439395
H           -2.80458804720997        2.31048269052927       -0.95879394230689
H           -2.76713057051229        2.38210569220651        0.80185669364264
H           -1.09025570031107       -3.24699539486887        0.83036032337507
H           -1.06826915918379       -3.21185831154896       -0.94350723216171
H           -2.53460848267730       -2.69698586131013       -0.06750794650169
H            1.31094299118881       -2.96999794144996       -0.03753204684356
25
 energy: -43.129861070174 gnorm: 0.002663814630 xtb: 6.6.1 (8d0f1dd)
C            3.17931523567839        1.20311764840957        0.09795510565666
N            2.27151262225759        0.09232116460221        0.04280430359886
C            2.57444770082776       -1.26528923960621        0.02496350607838
N            1.37853178375371       -1.96497201975668       -0.00572233262701
C            0.34408490665296       -1.09579464791634        0.00463062758284
C            0.87328245671848        0.18656013072562        0.03388305125327
C            0.05829944381220        1.32126288759902        0.02834100815861
O            0.43748624856828        2.49865609462762        0.07604138487006
N           -1.35407232870804        1.03181651051277       -0.04451416902791
C           -2.14414178168466        2.26280267810227       -0.09001869738292
C           -1.93467611566369       -0.19887245464399       -0.05365712058983
O           -3.13782529134514       -0.33408307056444       -0.10203127438762
N           -1.01420560218481       -1.32112653105207       -0.01589270472257
C           -1.44732040224477       -2.70239078951407       -0.04944409643994
H            3.71265968958003        1.25728137906117        1.05489944518057
H            3.91782631554262        1.15099080164637       -0.70733865836437
H            2.58403286356168        2.10864682055307       -0.01917667510263
H            3.55368002435395       -1.69623271559913        0.01906442137977
H           -1.39628362236754        3.05479647601383       -0.10914157200396
H           -2.80374200242439        2.31269231082300       -0.95755781802833
H           -2.76730697917251        2.38027026636115        0.80089507922326
H           -1.09110464648605       -3.24548545177330        0.83275369386041
H           -1.06752633830059       -3.21361595358219       -0.94138569588994
H           -2.53396253707823       -2.69548485301432       -0.06740128319512
H            1.31064017930778       -2.96990898808961       -0.03682513695448
25
 energy: -43.129866860448 gnorm: 0.001168283115 xtb: 6.6.1 (8d0f1dd)
C            3.17949001070547        1.20270133913309        0.09824374041107
N            2.27118228057921        0.09247441415563        0.04279622299533
C            2.57443554509467       -1.26525927892824        0.02500682174699
N            1.37808989411832       -1.96480491591116       -0.00594794207502
C            0.34436875819723       -1.09551569274454        0.00468689001384
C            0.87370135329194        0.18688176916228        0.03383063710140
C            0.05780834185210        1.32101677526943        0.02780777637306
O            0.43740913531023        2.49819104729646        0.07536379756326
N           -1.35439534610266        1.03198839049300       -0.04428686514394
C           -2.14462749007008        2.26340820856518       -0.09022628122853
C           -1.93428971507108       -0.19908244901299       -0.05222801039758
O           -3.13780882841209       -0.33339079052737       -0.10036843744485
N           -1.01369763710705       -1.32110867025634       -0.01557733523244
C           -1.44706103450443       -2.70221613517938       -0.04983620409247
H            3.71283529288609        1.25702801315180        1.05522349021211
H            3.91808461719450        1.15098716964845       -0.70700466705141
H            2.58446289545506        2.10855932992999       -0.01873924304136
H            3.55348374312688       -1.69622209556076        0.01924166984902
H           -1.39686752248019        3.05404535489365       -0.11016892278426
H           -2.80391091778016        2.31069890230195       -0.95825640511598