25
 energy: 0.000000000000 xtb: 6.6.1 (8d0f1dd)
C            3.23720163006194        1.16630919979326        0.08434469647475
N            2.29877817382611        0.07527477071623        0.03981603040599
C            2.58028210190900       -1.21425402444508        0.03006176031096
N            1.43813958087363       -1.93419271955128        0.00098261760884
C            0.39035688448383       -1.05887472636071       -0.00790371836672
C            0.93510056364412        0.21347819449412        0.01709077491437
C            0.09450143893243        1.40504303904423       -0.00410947031874
O            0.49712751527797        2.54126714362870       -0.00342325688240
N           -1.25076640035757        1.06271879480407       -0.03085478223738
C           -2.21907211982101        2.15522099834493       -0.05001256985998
C           -1.81739487048744       -0.20012725993278       -0.04692818574614
O           -2.99983886758376       -0.37846417018721       -0.07008878229737
N           -0.92618586207120       -1.30210215599479       -0.03682761578324
C           -1.46982264913417       -2.64643102187190       -0.06029820460571
H            3.71247264356769        1.21471455160235        1.06488849150277
H            4.00791497605742        1.03430808813993       -0.67357694370751
H            2.69910007168542        2.09770118228144       -0.09130154882931
H            3.56654120610678       -1.63682992603973        0.04233140067262
H           -1.67107961066214        3.09322851271934       -0.02552706933167
H           -2.82428953597071        2.09428624779827       -0.95318082946668
H           -2.87644029173232        2.07745725625962        0.81450067533302
H           -1.17061996399332       -3.19584890659852        0.83242232437030
H           -1.14560257411436       -3.17511610292205       -0.95688275822323
H           -2.55549792440841       -2.55659984320617       -0.07459039797972
H            1.38130855184625       -2.94313852034425       -0.01389874181052
25
 energy: -5.396932815898 xtb: 6.6.1 (8d0f1dd)
C            3.24358941907844        1.17746571977810        0.08678230769182
N            2.30786480918002        0.09543337172135        0.03774803119656
C            2.59945773943209       -1.23268480147551        0.03000340311023
N            1.42738701737131       -1.94036003538415        0.00077569696201
C            0.39625802077537       -1.05628180421388       -0.00823142605448
C            0.93003654744664        0.22242746187933        0.01531945650456
C            0.10150598284717        1.39587875821733       -0.00517090577322
O            0.49814763198902        2.56172145576034       -0.00452346673060
N           -1.26050804183939        1.05068763544894       -0.03112291090818
C           -2.22036170268768        2.14736556524468       -0.05001226934410
C           -1.82376878588292       -0.20059911903821       -0.04726297845841
O           -3.02044856688920       -0.38252740713961       -0.07043273932403
N           -0.93430959209813       -1.30101461006848       -0.03699305057770
C           -1.47147369711477       -2.64330486800951       -0.06016795786343
H            3.72189698566262        1.22331393973520        1.06880463007291
H            4.01155456646785        1.04281439129862       -0.67633728684821
H            2.69666705701032        2.10204454626242       -0.08861250864672
H            3.57769184837597       -1.65894739027954        0.04257551140468
H           -1.65835055681718        3.07827859906338       -0.02549408327325
H           -2.82611870568845        2.09463511641937       -0.95421297847565
H           -2.87783781602831        2.07812275006377        0.81588154000377
H           -1.16770645502634       -3.19445864426942        0.83189028039477
H           -1.14266140294565       -3.17388843426488       -0.95592153293759
H           -2.55679730898729       -2.55300755659551       -0.07454653878054
H            1.36049967430473       -2.94408603798208       -0.01370432719791
25
 energy: -6.575742481334 xtb: 6.6.1 (8d0f1dd)
C            3.25051828994084        1.18488752567587        0.08955737922244
N            2.31493736874401        0.10687969371822        0.03411473695665
C            2.60929720666029       -1.24712036074344        0.02999622240901
N            1.41419364456589       -1.93915982932009        0.00096924040575
C            0.39924955560144       -1.05169338166685       -0.00895445622898
C            0.92652996670767        0.23049243629212        0.01251301865589
C            0.10708445263178        1.38374973774792       -0.00749905117232
O            0.48532759382526        2.56527384753605       -0.00750400865319
N           -1.27149106119537        1.03902749580014       -0.03193938955221
C           -2.22045750564058        2.14058688242851       -0.05000250028458
C           -1.82750595097766       -0.20231044283266       -0.04773679392177
O           -3.02853923568343       -0.39001640383313       -0.07055218583008
N           -0.94076462295158       -1.29764460599136       -0.03719218306095
C           -1.47099352892834       -2.63915314928416       -0.05983817285640
H            3.73681583047203        1.23435687120967        1.06980234266090
H            4.01744395701411        1.06024260625236       -0.67839672829814
H            2.69734000006395        2.10703908509611       -0.08036566188825
H            3.58044533959165       -1.68128228141076        0.04304094972229
H           -1.63801004055587        3.05973826671305       -0.02575203328297
H           -2.82777523767208        2.09710589964144       -0.95429492212348
H           -2.87816933218008        2.08118813278823        0.81704881254641
H           -1.16411566684475       -3.19169861880395        0.83158376418677
H           -1.13893918565300       -3.17160415760728       -0.95459845574721
H           -2.55640488669660       -2.54918328595845       -0.07439119126528
H            1.33619771709670       -2.94067336127552       -0.01257483645299
25
 energy: -6.624327580529 xtb: 6.6.1 (8d0f1dd)
C            3.25408510146750        1.18761894234047        0.09161051944687
N            2.31880007637804        0.10792620344220        0.03078865103579
C            2.60938931599264       -1.25439218985578        0.02969019457841
N            1.40708721748728       -1.93700261409438        0.00151449365640
C            0.39916530181999       -1.04902909392510       -0.00980120515401
C            0.92675538689495        0.23395686722020        0.00987489299951
C            0.10798967029811        1.37991455730060       -0.01065388333928
O            0.47072720834072        2.56548113664823       -0.01188110177042
N           -1.27843290307926        1.03384435671766       -0.03337078682933
C           -2.21955076116316        2.13892146501470       -0.05016125350002
C           -1.83023323785155       -0.20537445426416       -0.04833774559449
O           -3.03072447393743       -0.39860959279013       -0.07053357609007
N           -0.94237268004882       -1.29589737190888       -0.03738463346735
C           -1.46825998929125       -2.63787915964301       -0.05925906940776
H            3.74853851139059        1.23765437562642        1.06855293926496
H            4.01971481134759        1.07797350254101       -0.68079192302642
H            2.69795618832630        2.11070738972747       -0.06808944857404
H            3.57659786942674       -1.69688172719605        0.04330000703222
H           -1.62178591796569        3.04841924505461       -0.02670431445288
H           -2.82854012101271        2.10172465676358       -0.95364033419191
H           -2.87641380897146        2.08648583936709        0.81804707794204
H           -1.16029414885721       -3.18941495735426        0.83250542555127
H           -1.13488847457656       -3.17023597461131       -0.95369128445047
H           -2.55391607377102       -2.54860325545606       -0.07401461899534
H            1.32082059929187       -2.93827954449310       -0.01053512651639
25
 energy: -6.354587183927 xtb: 6.6.1 (8d0f1dd)
C            3.25801109428499        1.19093027176518        0.09656985798283
N            2.32514410975271        0.10589317142429        0.02349092049054
C            2.60559741208130       -1.26492866973474        0.02802509647907
N            1.39647838899499       -1.93335171607525        0.00282300616425
C            0.39722716126737       -1.04414994938076       -0.01203324714213
C            0.92888737417333        0.23887458005287        0.00351676830082
C            0.10775056405805        1.37711182058315       -0.01945055623195
O            0.44415745603297        2.56673876013903       -0.02416557208760
N           -1.28937015784105        1.02642402829593       -0.03778018727063
C           -2.21642672422721        2.13922521076356       -0.05095679994099
C           -1.83631733436081       -0.21184875262285       -0.05007802397579
O           -3.03478425844801       -0.41503097087861       -0.07024696295941
N           -0.94362393091027       -1.29369961554152       -0.03794126875888
C           -1.46032738443735       -2.63821847683947       -0.05735980066737
H            3.77119509441503        1.23189042555076        1.06538252597744
H            4.01684810458597        1.11641738359947       -0.68899171682671
H            2.69444261064272        2.11626647120494       -0.03326537365800
H            3.56541504266882       -1.72448613984604        0.04344603065771
H           -1.59258870460445        3.03181703293853       -0.03039353158246
H           -2.83004548330289        2.11436821861803       -0.95165738577069
H           -2.86981179183952        2.10091888574543        0.82067367378863
H           -1.14985682508564       -3.18561798925342        0.83591836879944
H           -1.12384613821992       -3.16952307098741       -0.95109328761508
H           -2.54652998605653       -2.55271578359693       -0.07264737901269
H            1.29458897431157       -2.93427652375214       -0.00475125899310
25
 energy: -4.443540797250 xtb: 6.6.1 (8d0f1dd)
C            3.26172300407764        1.19651988100719        0.11140185219276
N            2.33703921801483        0.09896934801655        0.00475540549763
C            2.59409614262043       -1.28498987677385        0.02121098327303
N            1.37465574580109       -1.92640086478975        0.00555846595445
C            0.39063661123992       -1.03288488202625       -0.01866067476672
C            0.93364603093248        0.24845725830297       -0.01419522265048
C            0.10653888626735        1.37398495734120       -0.04554690907631
O            0.39252523843660        2.57026855878439       -0.06089143737773
N           -1.31079341592464        1.01240424890541       -0.05159544080074
C           -2.20730865339356        2.14459157778545       -0.05406303211363
C           -1.85133498161895       -0.22511152011087       -0.05529035963391
O           -3.04530965827075       -0.44838864459604       -0.06888617292978
N           -0.94625271116830       -1.28982508829830       -0.03977467207991
C           -1.43837075552209       -2.64279495115682       -0.05106814005357
H            3.82646078822287        1.19492330866682        1.05721115373217
H            3.99386361712672        1.21354739612210       -0.71506454306280
H            2.67620346712036        2.12624306990550        0.07169955511150
H            3.53695819003276       -1.78287082455881        0.04283631224478
H           -1.53091453816135        3.00230297044109       -0.04343879974552
H           -2.83463895278658        2.14789073128303       -0.94592243929847
H           -2.84838258430576        2.13980250572486        0.82839163086871
H           -1.11931593017339       -3.17749171855020        0.84673082892080
H           -1.09174398637246       -3.17179902028948       -0.94203985040504
H           -2.52597508004284       -2.57245615139810       -0.06780573248099
H            1.23820897578374       -2.92586366756605        0.01148113482705
25
 energy: 5.004925769411 xtb: 6.6.1 (8d0f1dd)
C            3.26442087205893        1.20489734795878        0.14211487358050
N            2.35715316990626        0.08396393052519       -0.03221079054135
C            2.57058013122718       -1.31923920803034        0.00674718384973
N            1.33622989107199       -1.91429421004520        0.01044178925318
C            0.37688381204184       -1.01197659736739       -0.03255343761010
C            0.94265397121340        0.26484015764897       -0.05037663084525
C            0.10554028061924        1.37101627586709       -0.09918575340300
O            0.30640872768959        2.57608495654859       -0.13668216042153
N           -1.34792949300470        0.99000640796493       -0.08035544548031
C           -2.19006386914067        2.15813415335570       -0.06051419953129
C           -1.87957326171128       -0.24752435647757       -0.06596691043884
O           -3.06481085440359       -0.50658203707494       -0.06561307808490
N           -0.95087297499480       -1.28290403599634       -0.04390959717353
C           -1.39467354872086       -2.65349956201460       -0.03790703937282
H            3.93221717637319        1.10823116188411        1.03942907201433
H            3.93677559874869        1.40047506651631       -0.76577954869223
H            2.63692945836499        2.14046196218561        0.28593194426428
H            3.48180822991037       -1.88715981778413        0.04127901336902
H           -1.42546301356061        2.95505099789473       -0.07130392238939
H           -2.84509392083072        2.21222504560502       -0.93354127367291
H           -2.80381891985604        2.21449437594367        0.84437828682616
H           -1.05765107661264       -3.16204107447900        0.86911411336346
H           -1.02704556303457       -3.17855616411665       -0.92271685316229
H           -2.48498618140365       -2.61674508746235       -0.05741326155639
H            1.13659602598453       -2.91033108687814        0.04362752200270
25
 energy: 1.463680301919 xtb: 6.6.1 (8d0f1dd)
C            3.25778335452675        1.19952462063544        0.14353107423608
N            2.35265762370416        0.07989353408578       -0.03148791650670
C            2.56706718616815       -1.30936921087507        0.00867279083778
N            1.34498130717916       -1.91583031066220        0.01029027160180
C            0.37517934586739       -1.01317263789381       -0.03458381310489
C            0.94401465150386        0.26085326385890       -0.05368173955376
C            0.10886618687280        1.37905051492078       -0.10316555360708
O            0.33389445146070        2.57348050628533       -0.14278633701767
N           -1.33975198903125        1.00048732298074       -0.08139471480343
C           -2.19396798851649        2.16266093816484       -0.05756312601255
C           -1.87755007416037       -0.24169899134313       -0.06609389765908
O           -3.06172029953835       -0.49646462100784       -0.06371962707656
N           -0.94838032341632       -1.28348880572962       -0.04562346961906
C           -1.39305096824371       -2.65573794378358       -0.03858087156153
H            3.91503144441323        1.10156748327684        1.03695998853917
H            3.92771598127258        1.37661304822099       -0.74766518177555
H            2.64232169088975        2.12684337922238        0.27206651387164
H            3.48012393172386       -1.87009998298215        0.04099618163859
H           -1.46119910130817        2.97439012501819       -0.06947294945636
H           -2.84868846313781        2.20964999197655       -0.92829628725956
H           -2.80196863342760        2.20751514280137        0.84820778900335
H           -1.05534025773754       -3.16283314886124        0.86858385486024
H           -1.02508876772466       -3.18027628040114       -0.92320202064500
H           -2.48300425547146       -2.62409184786818       -0.05742567895537
H            1.15228863406741       -2.91043748786820        0.04246861617276
25
 energy: 1.677221038739 xtb: 6.6.1 (8d0f1dd)
C            3.24060920689230        1.18812805420192        0.17300125389174
N            2.35003471795673        0.06579807529390       -0.05632275170662
C            2.54627417735639       -1.30134454171663        0.00519025712097
N            1.34026806823398       -1.91236373729615        0.01307559652893
C            0.36157666573664       -1.00218738794510       -0.05266132663841
C            0.94805222639944        0.26192223730789       -0.09246360924434
C            0.11743422112394        1.39508551915160       -0.15765587173489
O            0.35890026314813        2.57740714819130       -0.23021649724335
N           -1.34014354478445        1.01173539511359       -0.10667002766561
C           -2.19303857205408        2.18193542802174       -0.05141647861778
C           -1.89072420147757       -0.23645232932405       -0.07464076818808
O           -3.06954310136026       -0.49793941680169       -0.05367621167470
N           -0.95015622923541       -1.28042184942624       -0.05598882413957
C           -1.36040849360774       -2.66820865728113       -0.03144068478373
H            3.93670878505854        1.01357151234847        1.01634843696242
H            3.85419228587731        1.43151430093857       -0.72209390990543
H            2.63209383587855        2.08684885079765        0.39071436655244
H            3.44473033926422       -1.88067483064181        0.03785292076323
H           -1.48621984331404        2.99917179650231       -0.08659673503782
H           -2.87304071784779        2.24286444798248       -0.89904985950627
H           -2.76106737139626        2.23400964025910        0.87712550735776
H           -1.00275556061030       -3.15119702232656        0.88238872778386
H           -0.97126532312577       -3.19013651889674       -0.90912333301435
H           -2.45021155907444       -2.68117752820223       -0.04997733350090
H            1.12991439289794       -2.89885998408016        0.06133105178774
25
 energy: 2.978590187121 xtb: 6.6.1 (8d0f1dd)
C            3.21541120483927        1.16778539942713        0.22039755162250
N            2.33854501617218        0.05858164995439       -0.09472658604530
C            2.52675797732850       -1.28299437668013        0.00551446333916
N            1.33179956083112       -1.91097621059423        0.01724415405252
C            0.34443549304727       -0.98928336428719       -0.08207574484083
C            0.94329960922485        0.26254310712037       -0.15401839690433
C            0.12613820708204        1.41073148875095       -0.24212710877054
O            0.41339717800429        2.58824877195926       -0.38237979452755
N           -1.33530572324813        1.02688170372654       -0.14450158017644
C           -2.19189771835587        2.20496948333008       -0.03926901962965
C           -1.90654791264657       -0.22033674604317       -0.08738455502674
O           -3.08376496390616       -0.47972120616921       -0.03588995019178
N           -0.96130612497724       -1.27759423100137       -0.07507932527824
C           -1.32067486238186       -2.68302770947057       -0.02184107635435
H            3.96139889001363        0.87416992098347        0.97912404060820
H            3.73469298468783        1.50651110060773       -0.67365251912766
H            2.61896681127386        2.00860001019530        0.58082132186243
H            3.41106835749855       -1.86995588457707        0.03168059714569
H           -1.52079023063715        3.04222825293972       -0.11829762216686
H           -2.91753089401561        2.27725879856784       -0.84728742901026
H           -2.69503855929597        2.25884473475960        0.92722095964372
H           -0.92955507457965       -3.12964197073347        0.90104882492100
H           -0.89494308897468       -3.20398801493947       -0.88649229501742
H           -2.40687385679799       -2.76683047054836       -0.03924182531204
H            1.11053238774942       -2.88397563510609        0.08824681133196
25
 energy: 5.263596006610 xtb: 6.6.1 (8d0f1dd)
C            3.19075235870982        1.14440420586475        0.26803495575294
N            2.31988813015829        0.06451562596993       -0.13854381942898
C            2.51878590262112       -1.26247531388187        0.01539688499897
N            1.32323729650003       -1.91512770101042        0.02027312861373
C            0.33218302446710       -0.98264153205146       -0.11331434126573
C            0.92808527010106        0.26003178337281       -0.21983095441449
C            0.12515648475618        1.41612018148326       -0.32673502067285
O            0.48040292990403        2.59103043265399       -0.53213542744804
N           -1.32476887910838        1.04187987835310       -0.18229081576933
C           -2.18728182499251        2.22316861328172       -0.02861669424070
C           -1.91548971217956       -0.19658178513836       -0.10165402700758
O           -3.09678113585508       -0.44051643393776       -0.01857555757798
N           -0.97848013694881       -1.27802641388151       -0.09731304119145
C           -1.29228018057053       -2.69273450353262       -0.01143289411537
H            3.98726706773714        0.72810906805184        0.91901762633571
H            3.59832126251352        1.61016957989778       -0.62840439714589
H            2.60456594818138        1.90706214609716        0.80567038452068
H            3.39951101644322       -1.84013822451698        0.02526845070388
H           -1.54846008334747        3.08831864752105       -0.16165769488877
H           -2.96429308704837        2.29123911161642       -0.79024097793817
H           -2.62238071179199        2.27179379353394        0.97437831058304
H           -0.87151309413327       -3.10385039854712        0.91957074138961
H           -0.83124233943033       -3.21638293099536       -0.86075922613042
H           -2.36888457011803       -2.84392270368649       -0.02673617966021
H            1.10591373136727       -2.87641652434576        0.11766448214459
25
 energy: 7.218286130875 xtb: 6.6.1 (8d0f1dd)
C            3.17307145000574        1.12209914179381        0.29985931768218
N            2.28427817417310        0.10854235343231       -0.17731978222272
C            2.54129926045540       -1.24209356047073        0.04914808229783
N            1.31240809464218       -1.92931384368843        0.01140749293700
C            0.33740346773411       -0.99385144112958       -0.14272003047281
C            0.88673791348826        0.25250970223964       -0.27948591794226
C            0.08922327500014        1.39205104418229       -0.39191818568046
O            0.54116528602270        2.57736254912210       -0.59689127931982
N           -1.30202517239577        1.05135863344047       -0.21171448047822
C           -2.17430512687123        2.22461460325534       -0.02178114522371
C           -1.90019056940574       -0.16110791659536       -0.11698208702766
O           -3.10042594894922       -0.35706284126645       -0.00741256995126
N           -1.00508426159688       -1.28615640445078       -0.12404551419269
C           -1.29804718523231       -2.68721267914694       -0.00275157902336
H            3.97616680823282        0.65244145449304        0.82317116856701
H            3.48093979779327        1.70401812228959       -0.55709381540827
H            2.61753160922486        1.76583888139097        0.97404696920839
H            3.44996666321807       -1.77003342675985        0.01369220659095
H           -1.54678247058797        3.12656345215910       -0.20546859951616
H           -3.00296301255177        2.25582025286025       -0.73355963527519
H           -2.55692817643880        2.25304896602648        1.00089639392503
H           -0.86271694916791       -3.07661945833591        0.93026601025122
H           -0.81603943769904       -3.22201606396449       -0.83590756662413
H           -2.35366049204733       -2.88027378156103       -0.01223041298611
H            1.14119167088907       -2.89149913714383        0.14182885603241
25
 energy: 14.035618946609 xtb: 6.6.1 (8d0f1dd)
C            3.14686579491687        1.11360633245008        0.34285644566102
N            2.27867476476198        0.09736646878141       -0.22029085172177
C            2.51857613016106       -1.24076673142498        0.04831189243824
N            1.29896685236653       -1.92348281586904        0.00970191861751
C            0.32449907119353       -0.98664386953227       -0.17122323918631
C            0.88692088419021        0.25255402611357       -0.33911935195505
C            0.08717726764095        1.40121247571326       -0.48177906690023
O            0.53673651531569        2.57294373026178       -0.68901255887386
N           -1.30534025270137        1.06335685173712       -0.25689292320282
C           -2.16450256901701        2.24608316023924       -0.02354584232188
C           -1.90983287639579       -0.15473779243941       -0.13160025861346
O           -3.10376529789769       -0.35233054867330        0.00194954902870
N           -1.00917237334410       -1.28020466276586       -0.14436545352793
C           -1.26267978110553       -2.69607395639135        0.01281484829017
H            4.04636256633798        0.51839974948161        0.76255715681904
H            3.36444036266408        1.84250186919827       -0.52043953857675
H            2.60435937296208        1.70343668715271        1.19512175915833
H            3.41907579197634       -1.78820453430310       -0.00409611008704
H           -1.54687762933538        3.13870635647284       -0.23758300830530
H           -3.03635089280698        2.28523001923670       -0.69305128675026
H           -2.48870897230020        2.28907525907036        1.03043979026055
H           -0.80742440352971       -3.04914611817177        0.95802361293450
H           -0.75862064588048       -3.23547736926637       -0.80716002371587
H           -2.31820495204742       -2.94415388515177        0.00450348290177
H            1.11103993981006       -2.88422209974768        0.18091295377587
25
 energy: 7.433573669513 xtb: 6.6.1 (8d0f1dd)
C            3.12923889414331        1.12056870003226        0.35647595174411
N            2.28322494094192        0.07691777180546       -0.21403298594955
C            2.50115749585565       -1.25379856949889        0.03568852504549
N            1.29899431666160       -1.91183751605222       -0.00692666713818
C            0.32305869315230       -0.99668377642087       -0.18534189546219
C            0.89974107195945        0.24742855029521       -0.34951226183615
C            0.08395748367616        1.40342746999106       -0.52277432420480
O            0.45347104976139        2.56243401236096       -0.68109739943233
N           -1.31140607374585        1.06970337073002       -0.27805467022055
C           -2.14999201490534        2.25356075220408       -0.02568941545054
C           -1.90330160865742       -0.16645411673345       -0.13225731576056
O           -3.08603760450146       -0.36180050553753        0.00507701708640
N           -0.99737992798380       -1.27037093240148       -0.16059974425804
C           -1.26000993439757       -2.69236096231013        0.01841023566099
H            4.03686015049790        0.55949486388060        0.78215237653085
H            3.39922142707109        1.83537404226400       -0.45411347859621
H            2.60413601817887        1.71459893292502        1.16682533566717
H            3.41284854032851       -1.80353950449678       -0.04537542509637
H           -1.51544491286062        3.11067593895257       -0.22790350036364
H           -3.03952152215795        2.28599388045605       -0.67258582218821
H           -2.45750342332177        2.30105285166296        1.03853761113289
H           -0.81093044011444       -3.03047021685577        0.97249562136299
H           -0.76824683050630       -3.24065484355271       -0.79755720016356
H           -2.32676239877445       -2.93814414494930        0.01389765606259
H            1.11284127763449       -2.88608744657905        0.19129567197462
25
 energy: 5.975514035150 xtb: 6.6.1 (8d0f1dd)
C            3.10397049020046        1.09669322731311        0.40757528055296
N            2.26763609246303        0.08997316261915       -0.24119218274458
C            2.49881467383348       -1.25193654158409        0.05646408550183
N            1.28735620838946       -1.91235159763285       -0.02668824782577
C            0.32263723377452       -1.00806337665583       -0.23296002186162
C            0.88321389461389        0.23939863589670       -0.41435391122379
C            0.06038779325613        1.38570033724194       -0.60009794954445
O            0.43584630832686        2.54771427884690       -0.79616462917094
N           -1.30189650317633        1.07906865756535       -0.31273133431744
C           -2.12512412895936        2.26209657200844       -0.00789901874927
C           -1.89110639296933       -0.15413931969371       -0.14760120643090
O           -3.07982745502161       -0.31484814495679        0.03308511686885
N           -1.00907763174949       -1.26831564386193       -0.20424351353093
C           -1.25396050699987       -2.68724836898363        0.02790799074448
H            3.97999789708097        0.57330716045744        0.73649857127098
H            3.33605760528070        1.89030661359846       -0.30927404499514
H            2.61503819101622        1.57782532350698        1.26920101093860
H            3.43016338088020       -1.77122780339841       -0.10583613053745
H           -1.49581783367180        3.12413473133997       -0.25699680876171
H           -3.06698098648619        2.27383993894479       -0.58834104392633
H           -2.37030371783917        2.29940427680565        1.07423273006395
H           -0.79615614185605       -2.98586676207333        0.99120281320948
H           -0.74791111332993       -3.24954565542814       -0.76956328339361
H           -2.30652205502246       -2.96151103117136        0.03298036376350
H            1.13577936590136       -2.88538006853277        0.21182926024650
25