25
 energy: 0.000000000000 xtb: 6.6.1 (8d0f1dd)
C            3.23720163006194        1.16630919979326        0.08434469647475
N            2.29877817382611        0.07527477071623        0.03981603040599
C            2.58028210190900       -1.21425402444508        0.03006176031096
N            1.43813958087363       -1.93419271955128        0.00098261760884
C            0.39035688448383       -1.05887472636071       -0.00790371836672
C            0.93510056364412        0.21347819449412        0.01709077491437
C            0.09450143893243        1.40504303904423       -0.00410947031874
O            0.49712751527797        2.54126714362870       -0.00342325688240
N           -1.25076640035757        1.06271879480407       -0.03085478223738
C           -2.21907211982101        2.15522099834493       -0.05001256985998
C           -1.81739487048744       -0.20012725993278       -0.04692818574614
O           -2.99983886758376       -0.37846417018721       -0.07008878229737
N           -0.92618586207120       -1.30210215599479       -0.03682761578324
C           -1.46982264913417       -2.64643102187190       -0.06029820460571
H            3.71247264356769        1.21471455160235        1.06488849150277
H            4.00791497605742        1.03430808813993       -0.67357694370751
H            2.69910007168542        2.09770118228144       -0.09130154882931
H            3.56654120610678       -1.63682992603973        0.04233140067262
H           -1.67107961066214        3.09322851271934       -0.02552706933167
H           -2.82428953597071        2.09428624779827       -0.95318082946668
H           -2.87644029173232        2.07745725625962        0.81450067533302
H           -1.17061996399332       -3.19584890659852        0.83242232437030
H           -1.14560257411436       -3.17511610292205       -0.95688275822323
H           -2.55549792440841       -2.55659984320617       -0.07459039797972
H            1.38130855184625       -2.94313852034425       -0.01389874181052
25
 energy: -5.371358896278 xtb: 6.6.1 (8d0f1dd)
C            3.24091592239937        1.17788707649896        0.08700320951547
N            2.30661399959286        0.09474903648084        0.03806755964678
C            2.59940996831223       -1.23302212690340        0.02965722309502
N            1.42785703808852       -1.94164474739864        0.00056560340250
C            0.39573064032872       -1.05827811222694       -0.00784760636775
C            0.92880026641076        0.22064219009468        0.01600334391922
C            0.10034316574767        1.39404049473202       -0.00435483285972
O            0.49696593813132        2.55975966354246       -0.00344271484199
N           -1.26153999949461        1.05033127071700       -0.03121000801335
C           -2.21871082234756        2.15115577218590       -0.05134481614315
C           -1.82451558167812       -0.20089997303136       -0.04688293569846
O           -3.02149965794653       -0.37912436026822       -0.07062696731769
N           -0.93511685907948       -1.30299272067454       -0.03650330398250
C           -1.46943680115474       -2.64688719891676       -0.05991387420942
H            3.72018023446338        1.22369482865958        1.06852899439420
H            4.00803547063021        1.04488095252569       -0.67717690930625
H            2.69235782232909        2.10175662168000       -0.08703461690987
H            3.57815714445193       -1.65819190790660        0.04170227072401
H           -1.65351346015893        3.07943592931665       -0.02661110780449
H           -2.82736477918298        2.10400817517280       -0.95391815239034
H           -2.87535787634392        2.08844753212472        0.81474062518076
H           -1.16427973968345       -3.19818216754272        0.83174984302765
H           -1.13920390623795       -3.17724556846789       -0.95543549213315
H           -2.55486156230439       -2.55983609916843       -0.07434891177726
H            1.36224810266280       -2.94545595905377       -0.01433252700297
25
 energy: -6.516363053818 xtb: 6.6.1 (8d0f1dd)
C            3.24169629673326        1.18591352178280        0.09003785286433
N            2.31026698231198        0.10508413275943        0.03522391914197
C            2.60822085020363       -1.24736572643943        0.02893498602565
N            1.41516536755802       -1.94254963764117        0.00029071777883
C            0.39724426598752       -1.05720885492162       -0.00777716241500
C            0.92229387949550        0.22550958704887        0.01473353607846
C            0.10405862994870        1.37918845390348       -0.00505703597628
O            0.48396287564843        2.55992301282695       -0.00374702605694
N           -1.27430046565032        1.03891395342718       -0.03239555359335
C           -2.21461408444836        2.15171902074487       -0.05309071759103
C           -1.82968616380844       -0.20315885158013       -0.04715832531936
O           -3.03126092335996       -0.38351774093542       -0.07114720790275
N           -0.94326317173238       -1.30278066877514       -0.03575574412421
C           -1.46562621478442       -2.64859657209011       -0.05902075204878
H            3.73036894757043        1.23453518924981        1.06894781288441
H            4.00612837121586        1.06560374116750       -0.68093378361869
H            2.68383822016228        2.10602448128561       -0.07591986627407
H            3.58094210715571       -1.67738365172940        0.04019590219164
H           -1.62232590217584        3.06424427794791       -0.03030434358751
H           -2.82784201035947        2.12067722787780       -0.95401652636675
H           -2.87027928957591        2.10892141520731        0.81526971477837
H           -1.15429430041466       -3.20115335545980        0.83133672582246
H           -1.12901151776851       -3.18002275193660       -0.95315543553482
H           -2.55146061365679       -2.56912094476916       -0.07375744083494
H            1.34199253167990       -2.94437065677955       -0.01470035017434
25
 energy: -6.518610763482 xtb: 6.6.1 (8d0f1dd)
C            3.23758388482111        1.18998260784559        0.09249293005537
N            2.31017425976230        0.10530917781738        0.03286569473611
C            2.60726956009820       -1.25514561928973        0.02776394146799
N            1.40764200532633       -1.94272560192195        0.00003632096422
C            0.39529623813740       -1.05825563511285       -0.00761843637355
C            0.91878940495155        0.22573888720016        0.01414995897078
C            0.10377367886429        1.37226527354310       -0.00574894687710
O            0.47061851140612        2.55679996794779       -0.00413189986847
N           -1.28333539042862        1.03386803136467       -0.03391865887211
C           -2.20806819189772        2.15760378423168       -0.05510326941205
C           -1.83450134279707       -0.20669694706314       -0.04747047331049
O           -3.03584520826269       -0.39083779766399       -0.07164044544810
N           -0.94746767981130       -1.30382406657500       -0.03472443112506
C           -1.45959234642567       -2.65291883214266       -0.05773923573636
H            3.73597429758265        1.23840747430789        1.06724899641924
H            3.99850505494945        1.08793073078223       -0.68553018327552
H            2.67227514968309        2.10896205476182       -0.06027319474921
H            3.57732318657763       -1.68999102696389        0.03762854520200
H           -1.59171427824523        3.05540886697463       -0.03670486178185
H           -2.82491543027899        2.13864589763559       -0.95392682206013
H           -2.86119175339126        2.13323847255756        0.81614778417040
H           -1.14299182458125       -3.20394215530600        0.83220790859908
H           -1.11745972831356       -3.18292348478791       -0.95113542858751
H           -2.54610847521787       -2.58325553565519       -0.07276796626827
H            1.33018108542733       -2.94461592231577       -0.01507393069211
25
 energy: -5.631336916785 xtb: 6.6.1 (8d0f1dd)
C            3.21971396840736        1.19924454879781        0.09989024015754
N            2.30727155005952        0.10006393610705        0.02685404756177
C            2.59959900039434       -1.27153893058932        0.02334380486279
N            1.39167657200510       -1.94485334686562       -0.00124783426624
C            0.38736391942444       -1.06285885153987       -0.00713076011585
C            0.91094046669183        0.22241294363064        0.01317099516106
C            0.10130931722833        1.35885853081753       -0.00748266630523
O            0.44130781722219        2.54796453997507       -0.00487331221144
N           -1.30349815593564        1.02415290582181       -0.03841397421716
C           -2.18684276415292        2.17825728922745       -0.06200575508905
C           -1.84844299023384       -0.21615945935192       -0.04816552893542
O           -3.04776522923014       -0.40987905175750       -0.07294458269529
N           -0.95713178639020       -1.30812918365427       -0.03135095110685
C           -1.44079130566616       -2.66785868728804       -0.05331137286350
H            3.74626762718497        1.23775129232208        1.06175585218406
H            3.96605993141723        1.15220938815799       -0.70173855520475
H            2.63059978762194        2.11402259726800       -0.00811189870709
H            3.56405869710577       -1.71847803254356        0.02828775569086
H           -1.51043739408053        3.03811188311811       -0.05986557082412
H           -2.81414807106451        2.18934375227120       -0.95386732507903
H           -2.82989051610400        2.20668481841933        0.81875019948056
H           -1.10857682196202       -3.21193148992225        0.83626507241255
H           -1.08244664931998       -3.19185348907541       -0.94497392831990
H           -2.52916347059659       -2.62923012711081       -0.06911140951053
H            1.30518116790967       -2.94727917406351       -0.01668864591250
25
 energy: -1.611287852974 xtb: 6.6.1 (8d0f1dd)
C            3.18041354551860        1.21426450643102        0.11489450359868
N            2.29934413895430        0.08651464572871        0.01656621704966
C            2.58300182945698       -1.29626401657807        0.01355351894106
N            1.36752959763295       -1.95126887815366       -0.00501623611147
C            0.37118162371300       -1.07263563499222       -0.00645390815010
C            0.89806567223409        0.21242958539292        0.01184339318537
C            0.09787966064461        1.33901489991463       -0.00998578210334
O            0.40577033012948        2.53099745557042       -0.00488933348017
N           -1.33350222114743        1.01187623493513       -0.04647098966506
C           -2.14677070783038        2.21848393769643       -0.07685783100106
C           -1.87308992543622       -0.23010078297085       -0.04904197368400
O           -3.06836445497745       -0.43863303219272       -0.07498926697887
N           -0.97342079348781       -1.31654143980062       -0.02462722872900
C           -1.40567875501048       -2.69645321349919       -0.04395046221498
H            3.76103405741301        1.22291109167949        1.05054376810875
H            3.89186790987332        1.27068774960930       -0.73408583325027
H            2.54461139231558        2.11806903043302        0.09800307975725
H            3.53896843554935       -1.76240207568864        0.00806289148043
H           -1.37800060744003        3.01546473728179       -0.10947382842527
H           -2.79355272728648        2.27675002497999       -0.95408711514118
H           -2.76546558412954        2.34184785971733        0.82250937554522
H           -1.04389940196954       -3.22556296733383        0.84551226007583
H           -1.01710841074828       -3.20819815742066       -0.93246083322256
H           -2.49660789791915       -2.71776157717346       -0.06091612042887
H            1.26800796188362       -2.95446138139424       -0.02114836900881
25
 energy: 3.047338525640 xtb: 6.6.1 (8d0f1dd)
C            3.14003696502028        1.22469524005210        0.12976923642180
N            2.29011880758671        0.07048479157343        0.00796924663574
C            2.56599324530112       -1.31310596652346        0.00354805410178
N            1.35118775689196       -1.95926740149775       -0.01045506579997
C            0.35569157562945       -1.08251957482960       -0.00666393997196
C            0.88882515304412        0.19962031549408        0.01039304758789
C            0.09881113435074        1.32706441522018       -0.01072885987087
O            0.40054927265414        2.51402990642848       -0.00109479066150
N           -1.35244158270873        1.01023193378629       -0.05302506950906
C           -2.11362366562704        2.25513773663713       -0.09245894708338
C           -1.89223514761237       -0.23630777484323       -0.04952637042967
O           -3.08324359375792       -0.45568616368693       -0.07618396621514
N           -0.98610022523413       -1.32316746009009       -0.01832571528380
C           -1.37451547475190       -2.72086292639004       -0.03423473726506
H            3.76969915981672        1.19996264454348        1.03776117983046
H            3.81172756729654        1.37032589464196       -0.75845182280339
H            2.46628239333112        2.11379642352587        0.19648685454989
H            3.51614128349714       -1.79331438612766       -0.01358313625692
H           -1.29439514822962        3.00708036592090       -0.15870040076484
H           -2.77666324653070        2.34378526737676       -0.95432700295324
H           -2.70143101512471        2.45273877446446        0.82247685135626
H           -0.98638737125881       -3.23449325846675        0.85551323707667
H           -0.96008628068023       -3.22065669668363       -0.91998587894598
H           -2.46548669792477       -2.79748993737264       -0.05149284937523
H            1.24375980295698       -2.96305356098133       -0.02764525822326
25
 energy: 5.848675268496 xtb: 6.6.1 (8d0f1dd)
C            3.08873243504191        1.22839214184095        0.14602318804573
N            2.27685756873835        0.04398247290107       -0.00050513919939
C            2.54151745041955       -1.31522936883578       -0.00618183510148
N            1.34849996536434       -1.97091979267267       -0.01867452974574
C            0.33660197810579       -1.09473508473167       -0.00882800701629
C            0.88598065760506        0.17808685376301        0.00724250945280
C            0.10482527243769        1.32978242813517       -0.00883590187473
O            0.44539309376746        2.49439596866060        0.01134143285263
N           -1.35594541277215        1.02760507404869       -0.05828609951312
C           -2.08518283526832        2.29409599827630       -0.11120628897974
C           -1.90766012942907       -0.23176716112451       -0.05025546686704
O           -3.09138571482519       -0.45895087362282       -0.07664185089315
N           -0.99375671544334       -1.32884989470927       -0.01175987280026
C           -1.34343463384001       -2.74406979473189       -0.02274793378605
H            3.76630813826054        1.15702988813107        1.01733116986049
H            3.70348990644805        1.45452854732473       -0.77142076167895
H            2.38768268945126        2.09176899330856        0.29749103754485
H            3.48994701171049       -1.80457536065930       -0.04014935002508
H           -1.27757080587271        3.02034785668655       -0.21633326715550
H           -2.76180529462522        2.39184493176662       -0.95285349593556
H           -2.62221614920794        2.54618922219517        0.81649568864951
H           -0.93048359083385       -3.23705744413423        0.86846299545549
H           -0.90638133570293       -3.22839717668635       -0.90649860216629
H           -2.42909014766930       -2.87908332884290       -0.03902057385473
H            1.24129126607557       -2.97538649411510       -0.03715514912120
25
 energy: 9.563624701777 xtb: 6.6.1 (8d0f1dd)
C            3.04024963428339        1.23254418611616        0.16785522339310
N            2.25987476958456        0.03211788770302       -0.00724227421191
C            2.52430611016498       -1.30918640223524       -0.01824568847125
N            1.34514090175043       -1.98197072945251       -0.03202779572081
C            0.31967835978617       -1.10538035018168       -0.01537140678049
C            0.87501763786534        0.16166148559807        0.00144458895266
C            0.10081765141568        1.32470411501141       -0.00481755490128
O            0.47838666075807        2.48542148960838        0.03557971173214
N           -1.35759426688981        1.03431430922253       -0.06131636556624
C           -2.05533383507129        2.32593726966781       -0.12999832824077
C           -1.92328094176735       -0.22738224860503       -0.04989234893885
O           -3.10559781460585       -0.45172362306029       -0.07637101218741
N           -1.00606037356671       -1.33803340586937       -0.00685518572187
C           -1.31749094451433       -2.76728977372522       -0.01072955316631
H            3.75860859157088        1.11807111834713        0.99791338178169
H            3.58986320658465        1.51736944317059       -0.76588580478047
H            2.32501008703029        2.06077023179353        0.39164984505672
H            3.47168570037716       -1.80047402034037       -0.07405222852328
H           -1.23173297490259        3.02491966585755       -0.29831202908504
H           -2.76355420396584        2.42665145629458       -0.94479174550919
H           -2.53313107727660        2.64284534304286        0.81638954433893
H           -0.87611756630732       -3.23733017476026        0.88131260875613
H           -0.85727794465434       -3.23558774424638       -0.89226252181905
H           -2.39312013778979       -2.95854390439142       -0.02354239541140
H            1.24386743807619       -2.98539702239387       -0.05339676882856
25
 energy: 10.837541570171 xtb: 6.6.1 (8d0f1dd)
C            3.00528882864352        1.22649229296593        0.19666597836358
N            2.23645820646756        0.03993559200903       -0.01028039462444
C            2.51889482039662       -1.27795755760872       -0.03253871643723
N            1.35394659046923       -1.99439299825454       -0.05521180559843
C            0.30880437567115       -1.11298579999704       -0.03246688962736
C            0.85774367289607        0.15036092059764       -0.00873351571753
C            0.07773083446253        1.32080431293517        0.01009771025531
O            0.52717285898759        2.48855499608933        0.08781332600978
N           -1.33682137835107        1.04373884684457       -0.05854396660475
C           -2.03275225542674        2.34109686218157       -0.15285661307478
C           -1.92873618055921       -0.20922814236138       -0.04859541410551
O           -3.11842361024607       -0.40471923547918       -0.07529901074142
N           -1.01903903719728       -1.35082936806411       -0.00586061839320
C           -1.30897413457899       -2.78259981826506        0.00403958523794
H            3.74791049916970        1.07057311703696        0.96937459489039
H            3.46274398634636        1.53112522011596       -0.72441747850894
H            2.30781377082879        1.99683448013027        0.47996772324729
H            3.47100946552700       -1.75279283994976       -0.12227392505912
H           -1.23285876670014        3.03616599932201       -0.41818934134251
H           -2.80034112313589        2.40593159557677       -0.92136620761351
H           -2.41947337982063        2.69427626572883        0.80494398802258
H           -0.84425480301391       -3.22503160902050        0.89615735791113
H           -0.83755034683727       -3.23694312031969       -0.87513741912929
H           -2.35992998032660       -3.01483515698053        0.00065403346251
H            1.27585175426365       -2.99454625306154       -0.08090908467535
25
 energy: 18.194868997210 xtb: 6.6.1 (8d0f1dd)
C            2.96386567961945        1.22871773540405        0.23104882041140
N            2.21771497899378        0.03657653106245       -0.01744749952455
C            2.51111005534455       -1.28394058321731       -0.05235026447167
N            1.34022797637705       -2.00894756555125       -0.07539363965444
C            0.29534570587561       -1.12481543364519       -0.04350564789200
C            0.83795374276227        0.13664890580861       -0.01109284991981
C            0.06480543554037        1.30136561465188        0.02526874935538
O            0.54015131147581        2.47475238731295        0.12257142695093
N           -1.33907449635647        1.04502274168104       -0.06333698622263
C           -1.99653451773168        2.37272984795651       -0.18791994290946
C           -1.94195443763618       -0.19912902305151       -0.04826412460631
O           -3.13626697328547       -0.37942574035664       -0.07857141708986
N           -1.03888260889172       -1.36094188767529       -0.00063810651702
C           -1.28365442185262       -2.80501331608764        0.02341151229212
H            3.78653838098552        1.00637531401315        0.93682231629826
H            3.31671771298390        1.65729013207214       -0.74708243244640
H            2.22752022724907        1.95572745028541        0.66647889720574
H            3.46036238091922       -1.75668599760773       -0.17345477728208
H           -1.16868908518776        3.03108389395391       -0.55427741848502
H           -2.82415134624427        2.42642765498256       -0.90629230082252
H           -2.29638789439777        2.81717028638205        0.79425007762188
H           -0.78431418798595       -3.21990470470545        0.91559195288407
H           -0.78639377311999       -3.24781814925472       -0.85058840627666
H           -2.32268496662628       -3.10654120031865        0.02676097005138
H            1.26888978912543       -3.00769629192333       -0.10495501280360
25
 energy: 18.354264093011 xtb: 6.6.1 (8d0f1dd)
C            2.96474115466387        1.22207804262398        0.25741013302527
N            2.20754701569709        0.04411108539413       -0.01993810489843
C            2.51726626300677       -1.29360396282153       -0.07018244061271
N            1.33040735875972       -2.01116654962018       -0.09920700915543
C            0.29696998917435       -1.12645846511209       -0.05671062557595
C            0.82640227608455        0.13864839571270       -0.00879535032109
C            0.04817635310375        1.29180687990645        0.05277065534469
O            0.50526976835492        2.46977464520357        0.14278653297349
N           -1.33255946179627        1.04561483442062       -0.06369072281472
C           -1.98355766842927        2.37527976466912       -0.21603500483546
C           -1.93718301718904       -0.18677496871080       -0.04681480724899
O           -3.13773022583073       -0.34418156357147       -0.07971881259818
N           -1.04678369126059       -1.36084137047037       -0.00189479565563
C           -1.28137253112181       -2.80428722523903        0.04065512021016
H            3.82363349509239        0.98035771002866        0.91463618697351
H            3.26863381313262        1.71118484961708       -0.72507358611056
H            2.24105579780605        1.92834826262936        0.76681903522299
H            3.46764866009305       -1.75309694682085       -0.22125210795994
H           -1.17393898225940        3.02338633154023       -0.63683987040539
H           -2.85375768540241        2.39708183085461       -0.88581361759580
H           -2.23165216591709        2.84684281086263        0.76286192186301
H           -0.77026373187746       -3.20750189920981        0.93198990607672
H           -0.78715292074469       -3.25526434667150       -0.83049030711925
H           -2.31735623402554       -3.13086940847152        0.05639468545907
H            1.26777103882104       -3.01144013457200       -0.13683311809428
25
 energy: 17.555053736839 xtb: 6.6.1 (8d0f1dd)
C            2.95664346575160        1.21685496721352        0.29641788393379
N            2.19193089657478        0.04946417510082       -0.02438143431617
C            2.52021851038456       -1.30686386018865       -0.09262927319329
N            1.31669022820294       -2.00855324270790       -0.14284569729592
C            0.29683650871791       -1.13028363502146       -0.08037752037581
C            0.81481675852697        0.13778138652500       -0.00746438053466
C            0.03318542747648        1.28544986847021        0.09682131396939
O            0.46134357316040        2.45442106583278        0.19817224452895
N           -1.32486474373210        1.05230465144198       -0.06772337192679
C           -1.96938795650184        2.37761408282942       -0.25756966476617
C           -1.93086304282079       -0.17416175207540       -0.04881593998539
O           -3.13552023140271       -0.30428534488205       -0.07825654843595
N           -1.05490687162700       -1.35879685759679       -0.00904257540012
C           -1.27635994978513       -2.80348691175049        0.06902872925424
H            3.84436914316046        0.96853401425035        0.88154999700295
H            3.21792005266912        1.76022158989830       -0.63871850913240
H            2.28396703258474        1.88907088584600        0.86458335759123
H            3.47340487326187       -1.74282961580003       -0.30683004803540
H           -1.19170286746154        3.00015125837952       -0.76922122088724
H           -2.90307317926560        2.34943045278879       -0.84164389557343
H           -2.13019609399112        2.89915671058681        0.71770001952493
H           -0.74977046343964       -3.18768781092700        0.96017700023328
H           -0.79527172780436       -3.27067037133904       -0.80061029796430
H           -2.30683632821236       -3.15090259007495        0.10783163880171
H            1.26964165350817       -3.01290451462776       -0.19911791087031
25
 energy: 16.855849973516 xtb: 6.6.1 (8d0f1dd)
C            2.95224673277745        1.20851820160074        0.33398953838648
N            2.18486619268133        0.05193748094169       -0.02848095824375
C            2.52243360051004       -1.31407425873344       -0.10759337493857
N            1.30849509254448       -2.00156946370267       -0.19198515621779
C            0.29550370341388       -1.13155438246175       -0.10532082990663
C            0.81273527465356        0.13633314544068       -0.00203319366059
C            0.03005609338711        1.28763228629092        0.14509785345701
O            0.43483628104530        2.44434165439640        0.29542215501395
N           -1.31591365205432        1.06156647198502       -0.07937583154271
C           -1.95929188772738        2.37330592008564       -0.30874550134874
C           -1.92600562256477       -0.16705642180091       -0.05923242497764
O           -3.13191432048564       -0.27596255132173       -0.08140059284941
N           -1.06009092212701       -1.35442143229099       -0.01974189896493
C           -1.27760895108708       -2.79737744857752        0.10791988517908
H            3.89768801667700        0.92911558133506        0.82411698391939
H            3.13891887990138        1.82905924640431       -0.56810478919195
H            2.32313301712897        1.83417772394146        1.00651342958619
H            3.47358765582798       -1.72156669310669       -0.40889940632303
H           -1.24409051498141        2.96405816725126       -0.90116329443814
H           -2.93546287212699        2.30356467682856       -0.80080283458545
H           -2.03593768145616        2.92393497560421        0.62888700558160
H           -0.73890122818414       -3.15422142404878        1.00148389543253
H           -0.81944108599180       -3.28886978993022       -0.75932481251048
H           -2.29658157671117       -3.14337755019961        0.17515100912892
H            1.27895444288516       -3.00846551375964       -0.26934295983824
25
 energy: 14.529209534235 xtb: 6.6.1 (8d0f1dd)
C            2.95724592011565        1.19854842110708        0.37020872410753
N            2.19030772234191        0.05328196782137       -0.03098026393376
C            2.52335271133603       -1.31702029361761       -0.10195820998871
N            1.30532833394333       -1.98704051477614       -0.24713488823556
C            0.29229862025174       -1.12512744229962       -0.13264689317485
C            0.82059278901562        0.13903144137375        0.00298379085225
C            0.03666129035688        1.29525732941928        0.18153886507702
O            0.40864406925159        2.43907170462979        0.42393604708180
N           -1.31723139602991        1.06092100156624       -0.09809125162629
C           -1.95823920514642        2.35633429133910       -0.35379252556197
C           -1.92841179779820       -0.17704796792915       -0.07166145835442
O           -3.13120354580496       -0.28110606533313       -0.08573429635215
N           -1.06101096585406       -1.34636444881701       -0.03907881946906
C           -1.28279344700710       -2.78504248992192        0.14234276902404
H            3.92961243513852        0.90989755780424        0.76168877956577
H            3.07179967222182        1.88840120614224       -0.47723468126633
H            2.38313700470493        1.76016934275692        1.12167800193201
H            3.45998207761005       -1.69226497256566       -0.50990710844732
H           -1.29731987810486        2.89246813982517       -1.06798685481930
H           -2.97614432977449        2.25496059375339       -0.73495549505873
H           -1.92484731781633        2.98579822805207        0.56064874912455
H           -0.72977682230891       -3.11385309252171        1.03549776274586
H           -0.85004235566351       -3.30597762765236       -0.72230153346422
H           -2.29826380830022       -3.12036937055997        0.24481804249092
H            1.28853689125664       -2.99389833742436       -0.34484335610200
25