25
 energy: -42.868508764337 gnorm: 0.230004786746 xtb: 6.6.1 (8d0f1dd)
C            3.32998254292617        1.12644445219373        0.03194977337986
N            2.38409055680901        0.19634207811247        0.12228901513477
C            2.59479828730624       -1.22297793924546        0.07739234778410
N            1.40617136691489       -1.93182108459756        0.05083769139118
C            0.39322253923658       -1.01612022077428        0.02644091342980
C            0.89414197082649        0.28786030981656       -0.03699292003791
C            0.08869869098775        1.37019645517154       -0.04898175509476
O            0.48857306570029        2.55703120114039       -0.04306771062909
N           -1.31268242087826        1.01631239531772       -0.02003815246723
C           -2.26432802366365        2.09373209481003       -0.03869339983443
C           -1.84601372362858       -0.20817329610216       -0.02074523265627
O           -3.02639673626775       -0.40088038027421       -0.04582495276855
N           -0.93904281214686       -1.30239405455325        0.00282139763681
C           -1.46538190194217       -2.58059126312671       -0.09250867620327
H            3.84621717679431        1.16950014665820        1.02282726746948
H            3.99850549784502        0.97920375468512       -0.81655705964880
H            2.76640639442513        2.08039796482743       -0.11021099328156
H            3.57159209230421       -1.64793959047018        0.10354265015021
H           -1.67447592989131        2.98530808626141        0.00663557125314
H           -2.80567446477543        2.12031061457989       -0.93916903368026
H           -2.95707775479051        2.01118697902105        0.77871858355943
H           -1.07685125275636       -3.12627172114019        0.72761871547923
H           -1.14830034641041       -3.03026667471347       -0.97985024524456
H           -2.54369150030467       -2.55836022799223       -0.09656224760803
H            1.32915455394652       -2.93573060791830        0.03786594291989
25
 energy: -42.895846412942 gnorm: 0.083285543327 xtb: 6.6.1 (8d0f1dd)
C            3.31034629918499        1.13689521452462        0.03430339268287
N            2.34235660424178        0.14445771154051        0.11416059867316
C            2.59408171655089       -1.23261007245158        0.07796825511618
N            1.40772237009361       -1.92388007087304        0.05168592146639
C            0.39793411060712       -1.02388696424234        0.01655316947667
C            0.90732722430074        0.26665556824385       -0.02132278555095
C            0.09347695540812        1.38564779828205       -0.03289960704038
O            0.46736765026547        2.56708022538829       -0.04636285747557
N           -1.30339712850559        1.03397388997349       -0.02253505190775
C           -2.25827711246481        2.11571066649383       -0.04059389324120
C           -1.83932088155016       -0.20174711584668       -0.02717670379584
O           -3.03177308389112       -0.40665252379938       -0.04622362561870
N           -0.93564282495935       -1.28769689070834       -0.00503879514952
C           -1.45818522068096       -2.60239957788052       -0.09207723649059
H            3.86679421010175        1.18947812206103        0.99068612519399
H            4.00548501371362        0.99453546594774       -0.79998537076408
H            2.78194411096053        2.09286244688987       -0.10297560972448
H            3.57167953743472       -1.65442373805246        0.10793389815433
H           -1.67117029156559        3.02292890068300        0.02179583663992
H           -2.81808790283799        2.11866708211390       -0.96325002292645
H           -2.95256172801068        2.01863498984605        0.78811623281473
H           -1.08986074138197       -3.17327944620956        0.75106607612132
H           -1.14323067796767       -3.06860615001808       -1.01279618734823
H           -2.54399127048043       -2.55358905601817       -0.08396080394222
H            1.33062092999964       -2.92645700420053        0.04266653506958
25
 energy: -42.899881748558 gnorm: 0.013910304963 xtb: 6.6.1 (8d0f1dd)
C            3.29470450829977        1.14925250698397        0.03669016053284
N            2.32055864870795        0.12135768402710        0.10325304794429
C            2.59773654300996       -1.23362515154466        0.07999350435565
N            1.40963651401304       -1.91842786143333        0.05049126479014
C            0.40183827148841       -1.02914763406961        0.00952755432509
C            0.92430225203733        0.25598346355698       -0.00694399209982
C            0.10359959617207        1.39413753859002       -0.02771449438502
O            0.45864854940144        2.57462649453066       -0.04578732112852
N           -1.29189453524131        1.04047141150459       -0.02571715448866
C           -2.25048550741133        2.12415252313773       -0.04133720486412
C           -1.83279259435585       -0.19956395665441       -0.02984478414985
O           -3.02939831658480       -0.40716393647992       -0.04527639269786
N           -0.93545566555547       -1.27866631372951       -0.01212221414069
C           -1.45428853764508       -2.61159579240191       -0.09179805957918
H            3.85799374921252        1.18791925595080        0.97992581952395
H            3.99625612708529        0.99320584907735       -0.79194507087711
H            2.77236773401772        2.09429207911909       -0.10438185007090
H            3.57327550868648       -1.65703795038918        0.11171357745110
H           -1.67154521512186        3.03988830236771        0.02707493437602
H           -2.82048875535979        2.11352575618187       -0.96929163987138
H           -2.94570848772664        2.02224589969735        0.79122632386084
H           -1.09690182157535       -3.18982295404778        0.75975635888996
H           -1.13947005148308       -3.08318660878044       -1.02257641559665
H           -2.54191294710927       -2.54915699569647       -0.07724304916780
H            1.33106230160449       -2.92136413781048        0.04206458750086
25
 energy: -42.900061652234 gnorm: 0.005305651912 xtb: 6.6.1 (8d0f1dd)
C            3.29843818457416        1.15460384155763        0.03754489573176
N            2.32081536752852        0.12139021636277        0.09754984831754
C            2.59939914398431       -1.23460525256894        0.08141515783269
N            1.40809704986283       -1.91891643319170        0.05068545459864
C            0.40024745914696       -1.03019069293377        0.01012460207104
C            0.92708232748263        0.25522424923129       -0.00017178875025
C            0.10401652083674        1.39556107100228       -0.02729088223950
O            0.45636095401163        2.57748478072112       -0.04743654277830
N           -1.29116982235846        1.03987454457708       -0.02654922955316
C           -2.25014069362224        2.12405647546410       -0.04183652490358
C           -1.83393453934589       -0.20017312125354       -0.02946868617714
O           -3.03082296932324       -0.40648675181784       -0.04505203064613
N           -0.93783655231124       -1.27743420786060       -0.01334793592584
C           -1.45440746011727       -2.61363035405646       -0.09186255631159
H            3.85938684192982        1.18836643700671        0.98057874017568
H            3.99614465356947        0.99277870638281       -0.79248907171524
H            2.77470382434781        2.09775112656002       -0.10341997220729
H            3.57275803308577       -1.66160784352902        0.11071250547588
H           -1.67288265922222        3.03995139001248        0.02712610178099
H           -2.82083709746844        2.11290841978276       -0.96904710204522
H           -2.94521086912388        2.02244978794547        0.79081436796880
H           -1.09755599534568       -3.19039352729181        0.75980678820004
H           -1.13768510851729       -3.08388495779613       -1.02212215131444
H           -2.54154097030525       -2.55067114377612       -0.07760787775080
H            1.32821224526708       -2.92210728884305        0.04108138059861
25
 energy: -42.900107663542 gnorm: 0.002060349932 xtb: 6.6.1 (8d0f1dd)
C            3.30122471700416        1.15717690887565        0.03902409462440
N            2.32117984362303        0.12215356024408        0.09169916748483
C            2.60042778954917       -1.23502022032054        0.08228625786136
N            1.40740450184443       -1.91925538754810        0.05052549963770
C            0.39930922793715       -1.03017665242895        0.01122347297222
C            0.92764156661061        0.25514728696552        0.00330849527770
C            0.10347422251779        1.39568122061703       -0.02925109439789
O            0.45605401139398        2.57765539519497       -0.04900550210268
N           -1.29107780988326        1.03927087285084       -0.02745301715782
C           -2.25023447323022        2.12368055353716       -0.04206419320289
C           -1.83472562329360       -0.20069375550487       -0.02935041000926
O           -3.03155874726718       -0.40594077175274       -0.04442484988181
N           -0.93879568354056       -1.27653839926663       -0.01374205718687
C           -1.45415174631446       -2.61409712764341       -0.09139818314709
H            3.85828377366960        1.18763878395609        0.98334648868470
H            3.99641862669927        0.99224472981092       -0.79149100490749
H            2.77498794264456        2.09881429543872       -0.10270428881837
H            3.57234774779530       -1.66433583184390        0.10805196497514
H           -1.67364148551868        3.03934307945261        0.02693624075569
H           -2.82090784905220        2.11286042222110       -0.96834238400514
H           -2.94492616462978        2.02195995644160        0.79068449839948
H           -1.09690088595841       -3.18906246417917        0.75998820136387
H           -1.13645761951302       -3.08281630965617       -1.02081783884005
H           -2.54098956135815       -2.55088164576128       -0.07766483305142
H            1.32725154683710       -2.92250902801303        0.04037276510485
25
 energy: -42.900116088912 gnorm: 0.001466974408 xtb: 6.6.1 (8d0f1dd)
C            3.30178909720006        1.15732337143606        0.03948247856377
N            2.32112667671693        0.12256679039770        0.08843807019773
C            2.60042838730682       -1.23479758816687        0.08317449821465
N            1.40735937550580       -1.91932576739333        0.05069251322616
C            0.39924607318762       -1.02997593489569        0.01204654840805
C            0.92731195895876        0.25524382005051        0.00436507576851
C            0.10299653718315        1.39537945757652       -0.02983201821030
O            0.45653768656352        2.57713497977275       -0.04937079068635
N           -1.29111763843662        1.03912055475974       -0.02743606508494
C           -2.25032323207617        2.12356491094497       -0.04216250213251
C           -1.83481095626224       -0.20093480170538       -0.02926834266494
O           -3.03158501180707       -0.40580955085078       -0.04441097111924
N           -0.93871811685659       -1.27643835874243       -0.01366279363412
C           -1.45411082866247       -2.61404889988667       -0.09128796962675
H            3.85750228545440        1.18704417598296        0.98438817352470
H            3.99671564372033        0.99224852885469       -0.79081143206881
H            2.77492363161993        2.09876663380085       -0.10242760921603
H            3.57218790732992       -1.66440490476702        0.10619887807729
H           -1.67365682983939        3.03910816278427        0.02694774741457
H           -2.82064767569718        2.11292497672565       -0.96830739274439
H           -2.94501548485948        2.02167477423339        0.79048363719582
H           -1.09667614433373       -3.18856312399463        0.75995111122686
H           -1.13645322557023       -3.08220423592356       -1.02051037309326
H           -2.54094373214820       -2.55074054966228       -0.07772391993282
H            1.32757148436878       -2.92255794964390        0.04078093882953
25
 energy: -42.900120860261 gnorm: 0.000943066610 xtb: 6.6.1 (8d0f1dd)
C            3.30165682301995        1.15677861833785        0.04012942794624
N            2.32089094652398        0.12286192327909        0.08387569630860
C            2.60012985106907       -1.23435072951789        0.08551681292343
N            1.40746951144422       -1.91935245835357        0.05080504290250
C            0.39950282777473       -1.02971419547434        0.01283003515417
C            0.92680445093564        0.25539000741175        0.00485109038335
C            0.10234761650862        1.39493082406362       -0.03058867084940
O            0.45732116303208        2.57645495697284       -0.04982603099814
N           -1.29115204300240        1.03917954191785       -0.02723758043306
C           -2.25044592231892        2.12359511034870       -0.04217189860138
C           -1.83465552920985       -0.20114805623883       -0.02934906588165
O           -3.03143279862737       -0.40568292711115       -0.04451436091077
N           -0.93832589630531       -1.27656820898370       -0.01353108134171
C           -1.45415490790624       -2.61395702715524       -0.09114082891095
H            3.85642466868322        1.18616599852241        0.98559099481508
H            3.99740257302422        0.99268508561613       -0.78953765203646
H            2.77489058117570        2.09848968672319       -0.10193030753531
H            3.57219376045005       -1.66370897806688        0.10316338314422
H           -1.67345629525749        3.03904090312722        0.02697991578747
H           -2.82048080487702        2.11302200882695       -0.96836544355383
H           -2.94509915033852        2.02152295419587        0.79045048979390
H           -1.09656763612553       -3.18832973679210        0.76004682432433
H           -1.13691232360976       -3.08190397936651       -1.02040069909418
H           -2.54105958835987       -2.55056180236937       -0.07751916719092
H            1.32834599086343       -2.92254004822637        0.04161056428767
25
 energy: -42.717544799701 gnorm: 0.613662961770 xtb: 6.6.1 (8d0f1dd)
C            3.40644266014109        0.98783881801257       -0.11330976091667
N            2.52936101186193        0.19765427239196        0.01842790960507
C            2.57939819150475       -1.18963491080420        0.22021992875096
N            1.38516419691565       -1.90662397615127        0.16688744492064
C            0.38469608203736       -0.97658334874573        0.11959629844086
C            0.88590441655793        0.36634458312746       -0.10028021468293
C            0.04982913966960        1.34361856025705       -0.14411885145511
O            0.45780047424152        2.53924372127523       -0.13346279392591
N           -1.38152306631286        0.97619114485701        0.01567902433185
C           -2.32987900167216        2.03696478046348       -0.01742871419098
C           -1.86427404321013       -0.21681123016087        0.05577285661456
O           -3.03180565255014       -0.42004842108817        0.04103516149525
N           -0.94322726810963       -1.30755273373112        0.11149364355524
C           -1.44707401446898       -2.51694161588949       -0.14617967306235
H            3.96171038281299        1.01861869651268        0.89423067175878
H            3.95955525337698        0.81103842462927       -1.01225698559244
H            2.88966141832189        2.02083072021472       -0.16790091395399
H            3.55284720188468       -1.61133760923282        0.26378390153973
H           -1.72135429103111        2.88740402695395        0.07177581050364
H           -2.74878161097251        2.19352819901583       -0.89657938949376
H           -3.02475928238266        1.93535528823758        0.67527835767931
H           -0.98206909460267       -3.06053280529108        0.60645443450915
H           -1.16315469305962       -2.86181555142095       -1.02298809345626
H           -2.50425903739203       -2.57643958831979       -0.13571812668458
H            1.29651027420529       -2.90984457037762        0.14704199955284
25
 energy: -42.853238399797 gnorm: 0.212297757843 xtb: 6.6.1 (8d0f1dd)
C            3.39994890020780        1.03002297399259       -0.10378767996431
N            2.42760690396083        0.13468363262234        0.02858902559170
C            2.57284926469889       -1.21427661478116        0.21675057877945
N            1.38871163613012       -1.90128390144367        0.17104863142529
C            0.39214539236497       -0.98446073488306        0.10388888422014
C            0.90472542590105        0.31597013808362       -0.08397465701719
C            0.05907022266765        1.36977851905936       -0.12097164974117
O            0.43951328351294        2.55574131379116       -0.14443701524741
N           -1.35662398126623        1.00276979101588        0.00711830752103
C           -2.31097093947183        2.06165798332039       -0.01964772517679
C           -1.85929095810382       -0.21255503829184        0.04806910446462
O           -3.04767233872781       -0.43274822334185        0.04288005951442
N           -0.93642173159588       -1.27451489665137        0.10860599671532
C           -1.44380832401753       -2.54078275575539       -0.13477608096431
H            3.98971518560446        1.03954611527485        0.86774256630086
H            3.99128074325981        0.83954815713530       -1.00405352357086
H            2.90828841880141        2.03226837513019       -0.17348030475800
H            3.55527315399137       -1.62602423581668        0.26096390773366
H           -1.70514766015906        2.93333286067468        0.09240593774501
H           -2.77072858580862        2.18836711965903       -0.95484668516177
H           -3.04663759199712        1.93335051718813        0.71628391155454
H           -0.98808709715577       -3.12010641864550        0.63465794039445
H           -1.14702171927950       -2.89485409072194       -1.07731732056317
H           -2.51938950599368       -2.57116683264143       -0.11895176139027
H            1.29939155024272       -2.90379887923793        0.15469347743768
25
 energy: -42.883802360619 gnorm: 0.052105250014 xtb: 6.6.1 (8d0f1dd)
C            3.36166618975404        1.05797924877819       -0.09220701140197
N            2.34770880293515        0.11874496204517        0.03144419520468
C            2.57554773800904       -1.22374589625325        0.20495300168471
N            1.39496644763807       -1.89837989648061        0.17790312435759
C            0.40065008208156       -0.99533313015784        0.08012434170664
C            0.93546518322712        0.28311303858369       -0.05694537781342
C            0.08432865069900        1.38539998560630       -0.09671150413715
O            0.42755824305538        2.56880348775055       -0.14950260414942
N           -1.32397110617806        1.02256974076448       -0.00486080651928
C           -2.28731356428480        2.08824352465183       -0.02435952838762
C           -1.84814171380401       -0.20881359894319        0.03674885070740
O           -3.04307542814977       -0.43113340418352        0.04134995145289
N           -0.93454583564847       -1.25899060668177        0.09405450537356
C           -1.43584395019489       -2.56724148354180       -0.12824987301473
H            3.97724010905144        1.03819295472985        0.83065651394433
H            3.98128492879315        0.84832431376700       -0.97716167596577
H            2.90220049269235        2.03626457235093       -0.17898287502031
H            3.55853951275890       -1.63519814089478        0.25097968898999
H           -1.70399114231134        2.98573403142843        0.11290290308669
H           -2.77794195293059        2.17668251561587       -0.98173059050646
H           -3.04043055125511        1.93490635797960        0.72907408402460
H           -1.00122276084163       -3.17700409512954        0.65041698370130
H           -1.13696298438862       -2.92229503162307       -1.10159321463795
H           -2.52089974427861       -2.56573777036148       -0.10142462270156
H            1.30390400133787       -2.90062080506529        0.17057546586415
25
 energy: -42.886367814666 gnorm: 0.015545661658 xtb: 6.6.1 (8d0f1dd)
C            3.36301523305649        1.07250547389903       -0.08554605609877
N            2.33272044699951        0.11925572226114        0.03545064301948
C            2.58350399926462       -1.22964334954834        0.19731396695155
N            1.39226438368658       -1.90184675904892        0.17952260860657
C            0.39622927627473       -1.00496624129746        0.06988932925836
C            0.93716207840817        0.27371464992745       -0.03991311407668
C            0.08726986714015        1.39311051515498       -0.08873063004168
O            0.42087674255150        2.57824987615506       -0.15409092745955
N           -1.31488469940046        1.02936809149195       -0.01078487959404
C           -2.27842002689840        2.10163621592446       -0.02750692833361
C           -1.84862579422672       -0.20716097956862        0.03179599908105
O           -3.04379825865527       -0.42577850599151        0.03841186341048
N           -0.94038189378857       -1.26101361451149        0.08363233545026
C           -1.43447353740383       -2.58558121895544       -0.12625944300686
H            3.98447266424039        1.04794078481832        0.82141153149034
H            3.98283774663644        0.85694677668605       -0.96793592914138
H            2.90657760465650        2.05202181558817       -0.18176058778589
H            3.56108780533617       -1.64704747643787        0.24087786263092
H           -1.70711062259847        3.00751061328615        0.12217371899512
H           -2.77941820926571        2.17227884490287       -0.98877079338492
H           -3.03344704929012        1.94102577653929        0.73235224467973
H           -1.01576993425071       -3.20675694071562        0.65645091547566
H           -1.13369098003320       -2.94334681294830       -1.10586895321744
H           -2.52054384472288       -2.56816022084155       -0.09157093599867
H            1.29926665005028       -2.90379816203410        0.17691008493290
25
 energy: -42.886580288894 gnorm: 0.006612710996 xtb: 6.6.1 (8d0f1dd)
C            3.36845171759540        1.07500420832108       -0.08394428689613
N            2.33317624032740        0.11820779580300        0.03714145958256
C            2.58651487116691       -1.23173211284661        0.19663219061638
N            1.39102192983038       -1.90258118569835        0.17644657100494
C            0.39505781849253       -1.00606824079577        0.06914946248729
C            0.93252237874763        0.27284187686890       -0.03593552401436
C            0.08438839958586        1.39624526570385       -0.09050806972624
O            0.41903259120654        2.58028553002637       -0.15620874437467
N           -1.31370983368321        1.03125924371349       -0.01268258153262
C           -2.27840310779182        2.10430921749412       -0.02911467404966
C           -1.84952582320416       -0.20613456299694        0.03200012346190
O           -3.04414225495731       -0.42427462957143        0.03966895523492
N           -0.94111617174536       -1.26093154804081        0.07989612057618
C           -1.43222130739119       -2.58889431206210       -0.12591929831561
H            3.98805856356458        1.05121170739719        0.82233239686547
H            3.98277091412151        0.85767162984286       -0.96802014621251
H            2.90834597937649        2.05469811550040       -0.18145178425803
H            3.56048309040311       -1.65350425256159        0.24179539931303
H           -1.71026899550624        3.01039175612074        0.12382541900076
H           -2.78172061262810        2.16921978298740       -0.98926318243218
H           -3.03157183156103        1.94323585462996        0.73385764792908
H           -1.01990712310573       -3.21251352942612        0.65769179510036
H           -1.13007940660128       -2.94713852613388       -1.10541366914178
H           -2.51806500478376       -2.56604853872959       -0.08856090241503
H            1.29762662630800       -2.90429567081047        0.17403924803887
25
 energy: -42.886617531505 gnorm: 0.002829291175 xtb: 6.6.1 (8d0f1dd)
C            3.37017967001646        1.07651787083879       -0.08426250652927
N            2.33251411076221        0.11818495070080        0.03769128992851
C            2.58642881555338       -1.23141665386168        0.19668895144958
N            1.39053795833653       -1.90347158281132        0.17514647251536
C            0.39532713888889       -1.00626621086854        0.07003724442220
C            0.93107640153615        0.27257267551454       -0.03372793146442
C            0.08404648957355        1.39695585220651       -0.09098440655940
O            0.42059513422721        2.58008312364390       -0.15692763988535
N           -1.31243744311017        1.03136100801747       -0.01346372129652
C           -2.27843818458676        2.10414368783833       -0.03014464614175
C           -1.84954387584467       -0.20580519039416        0.03205715146496
O           -3.04385415739344       -0.42357535000244        0.04063564017821
N           -0.94093840470500       -1.26067342990807        0.07723281419311
C           -1.43150312626491       -2.58888961020882       -0.12626195201053
H            3.98833643890578        1.05193850509960        0.82305741920433
H            3.98083729824815        0.85711299338542       -0.96940170746672
H            2.90752620797576        2.05549600731600       -0.18106841141699
H            3.55915511918363       -1.65477457593959        0.24278094749391
H           -1.71119760223773        3.00948091934823        0.12457742930203
H           -2.78189362238088        2.16722861480081       -0.98883302981665
H           -3.03032842789394        1.94319499277133        0.73427120192024
H           -1.02163541355231       -3.21242649728352        0.65765942043514
H           -1.12862062255434       -2.94719142735257       -1.10484718376610
H           -2.51722649122925       -2.56417822806788       -0.08807714187352
H            1.29777623631288       -2.90513757004745        0.17361822156255
25
 energy: -42.886625375572 gnorm: 0.001089600005 xtb: 6.6.1 (8d0f1dd)
C            3.37104624556232        1.07709255091395       -0.08453424308191
N            2.33236518494667        0.11838700475032        0.03798641951143
C            2.58620521970341       -1.23078634013896        0.19658572273861
N            1.39051811032919       -1.90373122396208        0.17441166022244
C            0.39555472724933       -1.00603536989899        0.07075798742216
C            0.93080833008168        0.27282934536091       -0.03289691089513
C            0.08392831584663        1.39683306139343       -0.09104776977835
O            0.42141022155734        2.57980190469670       -0.15715266603431
N           -1.31212921428413        1.03109902591310       -0.01374216308815
C           -2.27878893609298        2.10381831995190       -0.03059128558355
C           -1.84973631385484       -0.20577650700283        0.03195491413313
O           -3.04392625973188       -0.42345391620873        0.04132857550680
N           -0.94090260810453       -1.26058384135141        0.07531683504165
C           -1.43157752004249       -2.58848298707007       -0.12644599635672
H            3.98807491813199        1.05166506808856        0.82353474374511
H            3.98043143211893        0.85613861558062       -0.96965241259951
H            2.90741778074841        2.05547833703776       -0.18097752687324
H            3.55882507442527       -1.65466904227404        0.24285937045819
H           -1.71155741576791        3.00883638933307        0.12463142842256
H           -2.78202722709130        2.16641235825356       -0.98832173402145
H           -3.02987784883995        1.94307431678258        0.73444998187915
H           -1.02186245838485       -3.21123917895457        0.65767746803123
H           -1.12858265597341       -2.94696797759198       -1.10431486064716
H           -2.51725641792457       -2.56393495717728       -0.08816155781392
H            1.29835896315883       -2.90534008168978        0.17379794550386
25
 energy: -42.886627027150 gnorm: 0.000605628276 xtb: 6.6.1 (8d0f1dd)
C            3.37132843199542        1.07725902992898       -0.08460361508795
N            2.33219346999581        0.11858975981173        0.03845376310607
C            2.58606724239599       -1.23038965574404        0.19644241490332
N            1.39059618330471       -1.90369050811150        0.17384302417740
C            0.39560663617473       -1.00576626134108        0.07121692291384
C            0.93100709792442        0.27313399060652       -0.03267265712451
C            0.08382562314489        1.39648575211979       -0.09099010374786
O            0.42153262687542        2.57958551080468       -0.15687670157160
N           -1.31220961344756        1.03091126214513       -0.01374158313509
C           -2.27903399111835        2.10376917527285       -0.03071070404316
C           -1.84991055836009       -0.20579696045722        0.03184855533753
O           -3.04404519590560       -0.42359545334272        0.04174322334754
N           -0.94091140328483       -1.26055409366151        0.07364128748444
C           -1.43178606888992       -2.58822788743984       -0.12648373467947
H            3.98791431481437        1.05135698809061        0.82367584105107
H            3.98039553319786        0.85533396335805       -0.96942071579805
H            2.90761466102493        2.05534475795113       -0.18115122504599
H            3.55887931608128       -1.65432564545126        0.24266026864193
H           -1.71145173302553        3.00873976223466        0.12428219939392
H           -2.78215292544157        2.16606297292892       -0.98803730803969