25
 energy: -40.112317674158 gnorm: 11.445678961417 xtb: 6.6.1 (8d0f1dd)
C            2.82603260120767        1.15822705109881        0.60363169824109
N            2.22718896011463        0.14608082739621        0.02737108839375
C            2.96973834532488       -0.73812227506896       -0.82458547436362
N            4.20571874537864       -0.68632879602530       -0.93140649264508
C            0.22257315645739       -1.22926932450414        0.21387140943795
C            0.83428436109879       -0.01529863915861        0.10856073269680
C            0.02579759884124        1.20879937706541        0.00462834434981
O            0.51255968279157        2.31556647915713       -0.06835049500925
N           -1.33396884590800        0.98355911871830       -0.02313350360230
C           -2.22188202839023        2.12864601462174       -0.15522434811037
C           -1.96178522444334       -0.24345773841283        0.09117825482707
O           -3.15568517536156       -0.35673077627774        0.08387194292608
N           -1.11294353544999       -1.35370258547034        0.21870465671079
C           -1.72937793531615       -2.65645102249293        0.36992840389337
H            3.86692344343846        1.33198323959000        0.38094102022675
H            4.60487449570138       -0.68815856056552       -0.98909197877214
H            2.30247142307170        1.81254094030453        1.27639871632381
H            2.30986348467440       -1.43327460265968       -1.34995960080944
H           -1.61422971660765        3.02552339459255       -0.24795599982796
H           -2.85249439097351        2.00274619543992       -1.03537963105181
H           -2.86836241317893        2.19678901276861        0.72001435644224
H           -1.49489114582799       -3.07647663298279        1.34843720612261
H           -1.37947495209299       -3.33461147361770       -0.40778241631388
H           -2.80826976987211       -2.53423563633270        0.28392049491604
H            0.78577034941281       -2.14610504558948        0.33258323289578
25
 energy: -41.931481576318 gnorm: 1.486029755437 xtb: 6.6.1 (8d0f1dd)
C            2.82608462802779        1.15818670431606        0.60359353873785
N            2.22610041112955        0.14635963036182        0.02775365397432
C            2.94787812612954       -0.73864846203602       -0.82227648935423
N            3.90697843080883       -0.68477574738181       -0.88801270675114
C            0.22256879487610       -1.22927594977054        0.21387097507006
C            0.83419799621694       -0.01524266411415        0.10862784237994
C            0.02578458280514        1.20880098522448        0.00462584612819
O            0.51256242907474        2.31557056447516       -0.06835384203032
N           -1.33397203574759        0.98356816801262       -0.02312613827721
C           -2.22187855483195        2.12863906318482       -0.15522455987292
C           -1.96177296250444       -0.24345391911161        0.09117634725727
O           -3.15569437213247       -0.35673464910417        0.08386729104081
N           -1.11294754997806       -1.35370191712425        0.21870469203105
C           -1.72937863024629       -2.65645186394136        0.36993095898544
H            3.86692581691810        1.33196929733387        0.38093272065864
H            4.92712839685865       -0.68919307103545       -1.03501166166557
H            2.30247613553428        1.81254561598069        1.27640348598814
H            2.30933728538603       -1.43355777550954       -1.35014802408083
H           -1.61423013604386        3.02552377113905       -0.24795698140551
H           -2.85249492604002        2.00274657852705       -1.03537826630969
H           -2.86836252824611        2.19679081911310        0.72001445477779
H           -1.49488953602680       -3.07647600074396        1.34843563063467
H           -1.37947534101428       -3.33461142027642       -0.40778208161197
H           -2.80826778809074       -2.53423649902402        0.28392180098049
H            0.78577284122806       -2.14610271690094        0.33258313061283
25
 energy: -42.113045865279 gnorm: 0.162064483596 xtb: 6.6.1 (8d0f1dd)
C            2.81954618146199        1.15847498318022        0.60484416025039
N            2.17496332057654        0.16264144888746        0.05038346557292
C            2.76569929459122       -0.75792233659875       -0.81964377108994
N            4.07334882866966       -0.67826361834243       -0.90102668153276
C            0.22011604695341       -1.22895207998686        0.21464422433411
C            0.81639093413851       -0.00813381546985        0.12028136374200
C            0.02109245605180        1.21141660905791        0.00516723939125
O            0.51219170808748        2.31631299547271       -0.06841669904870
N           -1.33561375204118        0.98433284731339       -0.02325469242685
C           -2.22246167315040        2.12908455327005       -0.15510130804563
C           -1.96202416638965       -0.24335903668340        0.09138067628317
O           -3.15617784739636       -0.35670629977745        0.08413963537235
N           -1.11436626843093       -1.35409103823034        0.21838390137410
C           -1.72968034751221       -2.65665218486975        0.37008675348282
H            3.86407163860917        1.32831998365894        0.37861777098444
H            5.09762238237465       -0.68254433416744       -1.05002572137177
H            2.30469441982094        1.81513986075614        1.27766746955513
H            2.24325535596090       -1.45611309650320       -1.36230265457181
H           -1.61414024085507        3.02551079472506       -0.24781958627469
H           -2.85256252333608        2.00293736291867       -1.03519339159015
H           -2.86823831977456        2.19703502372495        0.72033334750620
H           -1.49489121418254       -3.07633566653571        1.34862179344906
H           -1.37967980164632       -3.33454882771014       -0.40765989187680
H           -2.80838531896087       -2.53410543946772        0.28423459131616
H            0.78566042047102       -2.14524014702799        0.33282962311309
25
 energy: -42.124829344724 gnorm: 0.097308787372 xtb: 6.6.1 (8d0f1dd)
C            2.81777926982001        1.15422905481973        0.60197077323062
N            2.18983279812667        0.15251504237234        0.04044953248633
C            2.84311512027142       -0.75039538329162       -0.81970001641288
N            4.11821057374591       -0.67861404557599       -0.91387576027070
C            0.20609451146863       -1.22572114279307        0.22728548370939
C            0.80726940499472       -0.00690479418494        0.12813750952972
C            0.00574372977557        1.21513136984077        0.01449256410269
O            0.49725060149194        2.31973107105161       -0.06714741215437
N           -1.35102184974833        0.98800276443320       -0.01804475838042
C           -2.23358048844122        2.13326003119607       -0.15485862590871
C           -1.97546974982305       -0.24101736032144        0.09532892546368
O           -3.16884921306085       -0.35661737341267        0.08359049170108
N           -1.12814880355555       -1.35260020826394        0.21994807833805
C           -1.73783085641922       -2.65709939197775        0.37180159760214
H            3.85676602555879        1.32316436873178        0.37255842364480
H            5.14048939279223       -0.69623000872136       -1.05816414357233
H            2.30088443599670        1.80896372580156        1.28018438299561
H            2.25647521980566       -1.46119749387361       -1.38030718728359
H           -1.62049646167970        3.02526892038594       -0.24695529228114
H           -2.86096138099328        2.00786743501735       -1.03538781879201
H           -2.87714999595895        2.20340035681298        0.72000677662595
H           -1.50015028126514       -3.07636530592442        1.34966791277268
H           -1.38461105419772       -3.33228434233277       -0.40581310505732
H           -2.81568954289800       -2.53777768766387        0.28545085531203
H            0.77448010828386       -2.14047106053142        0.34055243049679
25
 energy: -42.130796993888 gnorm: 0.042755542054 xtb: 6.6.1 (8d0f1dd)
C            2.81145067039183        1.15301017649316        0.60426242458121
N            2.20445526022013        0.14256262101099        0.02989330166842
C            2.92808097128558       -0.73891477048216       -0.82431739292647
N            4.15389643177302       -0.69197492923859       -0.92641516544553
C            0.19660104910021       -1.22480517916695        0.22934798446165
C            0.80355925361491       -0.00871956346888        0.12676482251920
C           -0.00202909457899        1.21580461426343        0.01480042864118
O            0.48974484223738        2.32049856106538       -0.06406566604947
N           -1.36043791303265        0.98939758368932       -0.01534077274689
C           -2.24317947310233        2.13541844217338       -0.15247425120353
C           -1.98484282445399       -0.24004802092149        0.09591514155592
O           -3.17849423552532       -0.35615240347486        0.08515468446380
N           -1.13825223628423       -1.35227170330260        0.21998291868317
C           -1.74625294565935       -2.65724026307846        0.37379727091114
H            3.84798127665897        1.32125778638696        0.37042809145462
H            5.16934767630256       -0.71873460790472       -1.07385565991182
H            2.29017406275107        1.80727071174720        1.28189512768899
H            2.26180837188963       -1.44002085052506       -1.36778823103225
H           -1.62941436316026        3.02689662881885       -0.24661354368955
H           -2.87076199412282        2.01024425983268       -1.03317581035597
H           -2.88784481828890        2.20991965456412        0.72182852302261
H           -1.50531905997206       -3.07607844403974        1.35077683726384
H           -1.39254466095616       -3.33107848120611       -0.40483213946437
H           -2.82444267242965       -2.54081891588401        0.28938651192462
H            0.76714793943253       -2.13718436575738        0.34581618188355
25
 energy: -42.131377910752 gnorm: 0.043837911074 xtb: 6.6.1 (8d0f1dd)
C            2.80524166182278        1.15405454060630        0.60457439208304
N            2.20564252900233        0.14085408759944        0.02789300570372
C            2.94565604332724       -0.73930448996405       -0.82677072984327
N            4.16045858213379       -0.68723965061516       -0.92770564354211
C            0.19682700609023       -1.22714836131738        0.22274197666924
C            0.80692594609226       -0.01296901923508        0.11761531061117
C            0.00127514281699        1.21242328645205        0.00998140928948
O            0.49185972999316        2.31761405903816       -0.06664718610407
N           -1.35845300730866        0.98783543968128       -0.01560860560601
C           -2.24334949843170        2.13449052755212       -0.15022412727245
C           -1.98554487814856       -0.23987654516973        0.09654974726775
O           -3.17987560644885       -0.35388759853221        0.08816586802954
N           -1.13906040737446       -1.35181058775242        0.22164140352310
C           -1.75135652485906       -2.65561829036903        0.37595777677139
H            3.84375037822951        1.32257715652524        0.37413697088381
H            5.17284408742524       -0.71920893903488       -1.07075408778129
H            2.28207914118748        1.80669546588880        1.27998170588514
H            2.27692667262030       -1.43382170548072       -1.36731237588232
H           -1.63143044005350        3.02794942661165       -0.24629995479662
H           -2.87433311662581        2.00926506421583       -1.02961216261034
H           -2.88781839173042        2.20945594529304        0.72540239592996
H           -1.50994666690144       -3.07500576709566        1.35278714537784
H           -1.40178148670056       -3.33138593681101       -0.40382183609511
H           -2.83041831497207       -2.53710493941107        0.29433482387587
H            0.76431293290488       -2.14059462708110        0.34416439553061
25
 energy: -42.131851904508 gnorm: 0.043091903869 xtb: 6.6.1 (8d0f1dd)
C            2.79821983277735        1.15465351128287        0.60510855629235
N            2.20443419662800        0.14096804309524        0.02617013593261
C            2.95691609450510       -0.74200849977589       -0.83104261562718
N            4.16584919095007       -0.68102223554293       -0.92126330107541
C            0.19817703031690       -1.23069680787742        0.21280921063187
C            0.81218016963189       -0.01860903678979        0.10391964856233
C            0.00628329338447        1.20745779272393        0.00154528875472
O            0.49462685339972        2.31350392100403       -0.07382071135361
N           -1.35465082633351        0.98531586402102       -0.01727670416815
C           -2.24163092178313        2.13283923587552       -0.14710641410318
C           -1.98535516797829       -0.23989149157770        0.09719037100104
O           -3.18026795811952       -0.35084766431296        0.09227673770937
N           -1.13894448224766       -1.35119231041587        0.22378909757298
C           -1.75754821164443       -2.65309528183821        0.37926401814732
H            3.83933326063371        1.32403128868431        0.37959797466630
H            5.17189237050625       -0.70742662326638       -1.06590919962913
H            2.27360658907734        1.80548868212292        1.27833252811458
H            2.29879718121138       -1.43178710109314       -1.36664540903594
H           -1.63201419644227        3.02845389256890       -0.24581489162993
H           -2.87784146723215        2.00717897972708       -1.02379746654479
H           -2.88371358338286        2.20677594173308        0.73151100601823
H           -1.51588270328951       -3.07339697061450        1.35592468077102
H           -1.41520862189121       -3.33191878399425       -0.40199261945181
H           -2.83732472252299       -2.52947673736014        0.30188201901516
H            0.76049831393644       -2.14705906678533        0.33651967732732
25
 energy: -42.132133059865 gnorm: 0.037801924450 xtb: 6.6.1 (8d0f1dd)
C            2.79481590800582        1.15460004407883        0.60441699390225
N            2.20250486227563        0.14201452029018        0.02518942977012
C            2.96101835215233       -0.74317519815321       -0.83621464207311
N            4.16890487911551       -0.66739016097172       -0.91868579774865
C            0.19859453642205       -1.23331823632328        0.20710660531346
C            0.81495007179845       -0.02227783751793        0.09591455455020
C            0.00839644511602        1.20410061845919       -0.00407958906505
O            0.49549925848406        2.31054161434387       -0.08117510691572
N           -1.35275848416317        0.98364852499379       -0.01884887761803
C           -2.23980169752736        2.13181704320369       -0.14500591042854
C           -1.98530518235574       -0.24016205037752        0.09765286105694
O           -3.18024361465818       -0.34928076389167        0.09462572600926
N           -1.13898937285090       -1.35121965575477        0.22479951521259
C           -1.76113770320562       -2.65162944623231        0.38186970980093
H            3.83704748107185        1.32372772395125        0.38183747676982
H            5.17016197267884       -0.70445777309868       -1.05171895775383
H            2.27039252259018        1.80492465682620        1.27786911356408
H            2.31176193424426       -1.43162378928779       -1.36984727903665
H           -1.63097927245676        3.02770761189668       -0.24547089186861
H           -2.87939158844014        2.00569731053117       -1.01924689185475
H           -2.87844252591232        2.20420342258407        0.73632797247226
H           -1.51890673913051       -3.07224720793589        1.35830090679583
H           -1.42418401378374       -3.33224502504926       -0.40011410784651
H           -2.84079265622110       -2.52337200472211        0.30761162427417
H            0.75731614084163       -2.15234540024842        0.32805718061561
25
 energy: -42.132456294108 gnorm: 0.025694439556 xtb: 6.6.1 (8d0f1dd)
C            2.79188809893521        1.15213293733489        0.60250164234553
N            2.20006385791106        0.14133649782600        0.02382751533763
C            2.96749339822234       -0.74950177097592       -0.83724338428666
N            4.17632148191826       -0.65458755177526       -0.90340279938233
C            0.19732958924895       -1.23702396643856        0.20012361149394
C            0.81611824632788       -0.02704734422117        0.08681241125513
C            0.00912741714059        1.20004952935243       -0.01222769376410
O            0.49657839798140        2.30617582567719       -0.09291845030228
N           -1.35178574748052        0.98218599225625       -0.02176364107912
C           -2.23706189203546        2.13170374747214       -0.14187413519351
C           -1.98593165195034       -0.24041581645085        0.09750976104010
O           -3.18071693519837       -0.34737362949011        0.09779448825496
N           -1.14034717890517       -1.35207387864079        0.22344705122634
C           -1.76544311439174       -2.65042686881185        0.38513854563331
H            3.83463736146620        1.32018634762249        0.38279020117181
H            5.16637888718396       -0.68217546921205       -1.04017233233286
H            2.26736657188848        1.80461760434497        1.27482167038904
H            2.32494734415919       -1.43495031534483       -1.37590686085031
H           -1.62763916472705        3.02628343800470       -0.24477873181234
H           -2.88143420165950        2.00620157919835       -1.01212927055600
H           -2.86923014266240        2.20241791059466        0.74376766020116
H           -1.52054050322566       -3.07046439278063        1.36109309273152
H           -1.43555476687471       -3.33316082313497       -0.39735102600254
H           -2.84456868756069       -2.51668326996006        0.31597076153640
H            0.75243484837919       -2.15916777085269        0.31534153084325
25
 energy: -42.132697875235 gnorm: 0.016129666389 xtb: 6.6.1 (8d0f1dd)
C            2.79045586792097        1.15032511357565        0.59959103551746
N            2.19887874646012        0.14093949775516        0.02061610924890
C            2.97272019566108       -0.74648690859808       -0.84473053870060
N            4.18315116851716       -0.63296024154300       -0.90036793742627
C            0.19545032351880       -1.23942527085285        0.19536372996194
C            0.81464791061006       -0.02952683795742        0.08289461341037
C            0.00742704711947        1.19811153353496       -0.01627930809976
O            0.49689191449023        2.30324813177593       -0.10112621896056
N           -1.35284502020925        0.98191210251136       -0.02347078699640
C           -2.23602426378082        2.13268352451380       -0.13913031283188
C           -1.98689051652446       -0.24066110407961        0.09719114364780
O           -3.18158486483956       -0.34679022877929        0.10060185397090
N           -1.14196492474994       -1.35345937611872        0.21961797710919
C           -1.76755313190908       -2.65051592763516        0.38678330107080
H            3.83298652171153        1.31783393923539        0.38146513051048
H            5.16593381116235       -0.68576047948727       -1.01591468248402
H            2.26552437547801        1.80377380673958        1.27212125815722
H            2.33256088914262       -1.44180903694251       -1.37924636071773
H           -1.62495977014923        3.02534751185381       -0.24427029466639
H           -2.88413720829570        2.00879468735697       -1.00615603708160
H           -2.86284011786526        2.20363633617831        0.74970727366679
H           -1.51840333345186       -3.06909045966002        1.36217327915882
H           -1.44247622762564       -3.33466103507589       -0.39580226949552
H           -2.84632906045473       -2.51469596642215        0.32259954296968
H            0.74981118215421       -2.16252477028466        0.30694011695844
25
 energy: -42.132866151032 gnorm: 0.012896110573 xtb: 6.6.1 (8d0f1dd)
C            2.78939728394631        1.15012361706162        0.59602624545718
N            2.19949874207553        0.13924587061771        0.01727210422066
C            2.97735554408474       -0.74852211402393       -0.83998333967990
N            4.18916813055130       -0.62650192653874       -0.89454355804519
C            0.19392019320375       -1.23988164943774        0.19271828555573
C            0.81176848996297       -0.02950983934818        0.08168807312800
C            0.00512343257446        1.19842545997470       -0.01930466446606
O            0.49735584947089        2.30236803905995       -0.10541462490401
N           -1.35473518122703        0.98270229238366       -0.02474188841228
C           -2.23672621828385        2.13434875073130       -0.13662601993333
C           -1.98767227391699       -0.24060448783658        0.09657374309881
O           -3.18243707579405       -0.34699080485889        0.10366076858762
N           -1.14328980605022       -1.35462987809280        0.21447888856046
C           -1.76737909164155       -2.65138744114108        0.38626824071214
H            3.83184014894388        1.31766596278538        0.37925227209937
H            5.16648307967826       -0.69198964075679       -1.00432861556971
H            2.26239768059047        1.80361389270172        1.26758162563074
H            2.33436619658816       -1.44215530948552       -1.38442876063904
H           -1.62398868305846        3.02560694603359       -0.24388769638258
H           -2.88820166209144        2.01261656334953       -1.00119438788683
H           -2.85981696861394        2.20698524508791        0.75452436183110
H           -1.51318493996317       -3.06849736178828        1.36094434322591
H           -1.44464412781320       -3.33609626091755       -0.39665179539940
H           -2.84634458054170       -2.51702763780438        0.32645017789836
H            0.75017735141596       -2.16166974616234        0.30483783921029
25
 energy: -42.133025093439 gnorm: 0.014321599337 xtb: 6.6.1 (8d0f1dd)
C            2.78779515015872        1.15229414960852        0.59172749598190
N            2.20083380338072        0.13958474742642        0.01037798141264
C            2.97925411780671       -0.74490995812037       -0.83683623970837
N            4.19353119689848       -0.62605566857855       -0.88962889322247
C            0.19353529684616       -1.23835615708541        0.18924825335934
C            0.80849345110395       -0.02676700734318        0.07993489491305
C            0.00238484306652        1.20088049769317       -0.02181869301211
O            0.49665230121933        2.30394305704816       -0.10829732585285
N           -1.35716233067876        0.98419780949425       -0.02522424184361
C           -2.23886530276520        2.13638934927418       -0.13312060481694
C           -1.98808786968686       -0.24033794982203        0.09641800843544
O           -3.18299343687635       -0.34793340422781        0.10855892450664
N           -1.14356077839526       -1.35527271031787        0.20792237380969
C           -1.76479241653926       -2.65266484868804        0.38355406997451
H            3.82974738846456        1.32223972600452        0.37532549766084
H            5.16766117914110       -0.71734528348535       -0.98832707130529
H            2.25749119404836        1.80353062435079        1.26255333748840
H            2.33510553966472       -1.44480418362603       -1.38235559531123
H           -1.62475388166792        3.02674272450632       -0.24339791821022
H           -2.89475969727797        2.01679839347401       -0.99489148544692
H           -2.85814107662074        2.21162367301686        0.76073014588293
H           -1.50403290334898       -3.06907680566333        1.35692616375443
H           -1.44393363666619       -3.33705383468132       -0.40081928877498
H           -2.84454564199144       -2.52194419014920        0.32908595475279
H            0.75357502480665       -2.15746420851448        0.30352587347048
25
 energy: -42.133192769922 gnorm: 0.018264265313 xtb: 6.6.1 (8d0f1dd)
C            2.78425374653107        1.15780192011244        0.58462685628764
N            2.20198497806181        0.14165478924127        0.00093504484832
C            2.98061759834351       -0.74387440036252       -0.82913217156042
N            4.19754234551586       -0.62902187602996       -0.87913562012579
C            0.19441567448085       -1.23586253226323        0.18290650204499
C            0.80625027690763       -0.02312639764467        0.07349214411596
C            0.00026831512548        1.20384886621743       -0.02743499725763
O            0.49497457458136        2.30664777089432       -0.11442175560109
N           -1.35922488822856        0.98573106813532       -0.02564807295805
C           -2.24163273621476        2.13824464135517       -0.12716100615081
C           -1.98813060537500       -0.23986695572243        0.09742797268185
O           -3.18313291607532       -0.34870939852292        0.11719916560265
N           -1.14277770636723       -1.35517742146988        0.20114920380255
C           -1.76106565864954       -2.65357598036381        0.37938270723376
H            3.82648692017522        1.33034386334026        0.37092154473833
H            5.16764373963737       -0.75547967467849       -0.96433766454495
H            2.24912790366083        1.80625648282083        1.25348305542015
H            2.33964426465915       -1.44553921896905       -1.38092352989761
H           -1.62721844374975        3.02838047858989       -0.24242753894850
H           -2.90481233580549        2.02016896761998       -0.98422044930575
H           -2.85480733060681        2.21588467084982        0.77133883685898
H           -1.49212255312063       -3.07100803745442        1.35034722924856
H           -1.44398932607588       -3.33675509302989       -0.40838489242819
H           -2.84195286149818       -2.52626319315704        0.33254824263817
H            0.75808853817806       -2.15246479791427        0.29864081115498
25
 energy: -42.133517713785 gnorm: 0.023810966160 xtb: 6.6.1 (8d0f1dd)
C            2.77885475166406        1.16783663647447        0.57280472093274
N            2.20286100190861        0.14697319135260       -0.01431455078973
C            2.98172806961341       -0.74206042837988       -0.81814879026687
N            4.20194641854153       -0.63022271495947       -0.86042523936760
C            0.19648761072884       -1.23162238208925        0.17267115112108
C            0.80473491261572       -0.01736112978065        0.06089549349574
C           -0.00231605325236        1.20829038641371       -0.03691281321277
O            0.49040534147308        2.31165136133994       -0.12609486787997
N           -1.36188147687369        0.98765417607817       -0.02604886462017
C           -2.24552124580541        2.14038908479312       -0.11742717482196
C           -1.98796153768659       -0.23931115989509        0.10014081674033
O           -3.18269705733952       -0.34970391445236        0.13126917508961
N           -1.14084440045953       -1.35440096043860        0.19251372969001
C           -1.75501572354145       -2.65456512280424        0.37272663234324
H            3.82159595622441        1.34354721044237        0.36330504087006
H            5.16347569945849       -0.82098777732602       -0.92250700648366
H            2.23775220042043        1.81224438310588        1.23984509153338
H            2.34951138803464       -1.44772378575134       -1.37748465396542
H           -1.63191563183407        3.03079636957286       -0.24122985791255
H           -2.92064219708825        2.02306449235730       -0.96607746799465
H           -2.84781944545119        2.22055477243920        0.78904144167268
H           -1.47421350764804       -3.07540906401387        1.33938743713836
H           -1.44498937981789       -3.33485476264826       -0.42142586498397
H           -2.83735712046600       -2.53060917887839        0.33786410808831
H            0.76425294067170       -2.14593114135820        0.28680393148194
25
 energy: -42.134339630463 gnorm: 0.033839106587 xtb: 6.6.1 (8d0f1dd)
C            2.77036700378190        1.18538353749567        0.55259605993066
N            2.20402797004715        0.15692874721791       -0.04021418901985
C            2.98319495595851       -0.73876699232748       -0.79837981905913
N            4.20821017213678       -0.62555741448759       -0.82538198476435
C            0.20045391457201       -1.22474389720705        0.15605754084408
C            0.80430477807799       -0.00868264114688        0.03800747582619
C           -0.00524493530769        1.21469882186655       -0.05134999677150
O            0.48161227455078        2.31997406001116       -0.14506228910167
N           -1.36515832693240        0.99003489314378       -0.02594539374905
C           -2.25083710181966        2.14292981020715       -0.10133796197070
C           -1.98750178013395       -0.23849850798186        0.10503823497435
O           -3.18142170487290       -0.35092924453742        0.15360537338982
N           -1.13714788697763       -1.35243797931633        0.18069217211722
C           -1.74577248370182       -2.65541478595404        0.36166581814498
H            3.81394953956979        1.36470298991737        0.34962390833200
H            5.14759473420856       -0.92868663670502       -0.86019035676055
H            2.22080925180327        1.82334108847452        1.21708115663557
H            2.37228686446357       -1.45614112219802       -1.36587154837164
H           -1.64002008464063        3.03437957278100       -0.23873702889038
H           -2.94460091592115        2.02562824650018       -0.93611857788221