      -----------------------------------------------------------      
     |                   =====================                   |     
     |                           x T B                           |     
     |                   =====================                   |     
     |                         S. Grimme                         |     
     |          Mulliken Center for Theoretical Chemistry        |     
     |                    University of Bonn                     |     
      -----------------------------------------------------------      

   * xtb version 6.6.1 (8d0f1dd) compiled by 'conda@1efc2f54142f' on 2023-08-01

   xtb is free software: you can redistribute it and/or modify it under
   the terms of the GNU Lesser General Public License as published by
   the Free Software Foundation, either version 3 of the License, or
   (at your option) any later version.
   
   xtb is distributed in the hope that it will be useful,
   but WITHOUT ANY WARRANTY; without even the implied warranty of
   MERCHANTABILITY or FITNESS FOR A PARTICULAR PURPOSE.  See the
   GNU Lesser General Public License for more details.
   
   Cite this work as:
   * C. Bannwarth, E. Caldeweyher, S. Ehlert, A. Hansen, P. Pracht,
     J. Seibert, S. Spicher, S. Grimme, WIREs Comput. Mol. Sci., 2020, 11,
     e01493. DOI: 10.1002/wcms.1493
   
   for GFN2-xTB:
   * C. Bannwarth, S. Ehlert and S. Grimme., J. Chem. Theory Comput., 2019,
     15, 1652-1671. DOI: 10.1021/acs.jctc.8b01176
   for GFN1-xTB:
   * S. Grimme, C. Bannwarth, P. Shushkov, J. Chem. Theory Comput., 2017,
     13, 1989-2009. DOI: 10.1021/acs.jctc.7b00118
   for GFN0-xTB:
   * P. Pracht, E. Caldeweyher, S. Ehlert, S. Grimme, ChemRxiv, 2019, preprint.
     DOI: 10.26434/chemrxiv.8326202.v1
   for GFN-FF:
   * S. Spicher and S. Grimme, Angew. Chem. Int. Ed., 2020, 59, 15665-15673.
     DOI: 10.1002/anie.202004239
   
   for ALPB and GBSA implicit solvation:
   * S. Ehlert, M. Stahn, S. Spicher, S. Grimme, J. Chem. Theory Comput.,
     2021, 17, 4250-4261. DOI: 10.1021/acs.jctc.1c00471
   
   for DFT-D4:
   * E. Caldeweyher, C. Bannwarth and S. Grimme, J. Chem. Phys., 2017,
     147, 034112. DOI: 10.1063/1.4993215
   * E. Caldeweyher, S. Ehlert, A. Hansen, H. Neugebauer, S. Spicher,
     C. Bannwarth and S. Grimme, J. Chem. Phys., 2019, 150, 154122.
     DOI: 10.1063/1.5090222
   * E. Caldeweyher, J.-M. Mewes, S. Ehlert and S. Grimme, Phys. Chem. Chem. Phys.
     2020, 22, 8499-8512. DOI: 10.1039/D0CP00502A
   
   for sTDA-xTB:
   * S. Grimme and C. Bannwarth, J. Chem. Phys., 2016, 145, 054103.
     DOI: 10.1063/1.4959605
   
   in the mass-spec context:
   * V. Asgeirsson, C. Bauer and S. Grimme, Chem. Sci., 2017, 8, 4879.
     DOI: 10.1039/c7sc00601b
   * J. Koopman and S. Grimme, ACS Omega 2019, 4, 12, 15120-15133.
     DOI: 10.1021/acsomega.9b02011
   
   for metadynamics refer to:
   * S. Grimme, J. Chem. Theory Comput., 2019, 155, 2847-2862
     DOI: 10.1021/acs.jctc.9b00143
   
   for SPH calculations refer to:
   * S. Spicher and S. Grimme, J. Chem. Theory Comput., 2021, 17, 1701-1714
     DOI: 10.1021/acs.jctc.0c01306
   
   with help from (in alphabetical order)
   P. Atkinson, C. Bannwarth, F. Bohle, G. Brandenburg, E. Caldeweyher
   M. Checinski, S. Dohm, S. Ehlert, S. Ehrlich, I. Gerasimov, C. Hölzer
   A. Katbashev, J. Koopman, C. Lavigne, S. Lehtola, F. März, M. Müller,
   F. Musil, H. Neugebauer, J. Pisarek, C. Plett, P. Pracht, F. Pultar,
   J. Seibert, P. Shushkov, S. Spicher, M. Stahn, M. Steiner, T. Strunk,
   J. Stückrath, T. Rose, and J. Unsleber
   
 * started run on 2024/04/06 at 11:15:29.245     

           -------------------------------------------------
          |                Calculation Setup                |
           -------------------------------------------------

          program call               : xtb struc.xyz --opt loose --input .xc1 --gfn2
          hostname                   : n-62-30-23
          coordinate file            : struc.xyz
          omp threads                :                     1

   ID    Z sym.   atoms
    1    7 N      1, 17
    2    6 C      2-6, 8, 9, 11-16, 18-23, 25, 26, 28-33
    3    8 O      7, 10, 24, 27
    4    1 H      34-72
constraining bond 2 45 to    4.7133300 Å, actual value:    3.3752544 Å

           -------------------------------------------------
          |                 G F N 2 - x T B                 |
           -------------------------------------------------

        Reference                      10.1021/acs.jctc.8b01176
      * Hamiltonian:
        H0-scaling (s, p, d)           1.850000    2.230000    2.230000
        zeta-weighting                 0.500000
      * Dispersion:
        s8                             2.700000
        a1                             0.520000
        a2                             5.000000
        s9                             5.000000
      * Repulsion:
        kExp                           1.500000    1.000000
        rExp                           1.000000
      * Coulomb:
        alpha                          2.000000
        third order                    shell-resolved
        anisotropic                    true
        a3                             3.000000
        a5                             4.000000
        cn-shift                       1.200000
        cn-exp                         4.000000
        max-rad                        5.000000


          ...................................................
          :                      SETUP                      :
          :.................................................:
          :  # basis functions                 171          :
          :  # atomic orbitals                 171          :
          :  # shells                          105          :
          :  # electrons                       180          :
          :  max. iterations                   250          :
          :  Hamiltonian                  GFN2-xTB          :
          :  restarted?                      false          :
          :  GBSA solvation                  false          :
          :  PC potential                    false          :
          :  electronic temp.         5000.0000000     K    :
          :  accuracy                    1.0000000          :
          :  -> integral cutoff          0.2500000E+02      :
          :  -> integral neglect         0.1000000E-07      :
          :  -> SCF convergence          0.1000000E-05 Eh   :
          :  -> wf. convergence          0.1000000E-03 e    :
          :  Broyden damping             0.4000000          :
          ...................................................

 iter      E             dE          RMSdq      gap      omega  full diag
   1   -100.5973919 -0.100597E+03  0.374E+00    3.20       0.0  T
   2   -100.7362642 -0.138872E+00  0.221E+00    1.08       1.0  T
   3   -100.7049001  0.313641E-01  0.141E+00    3.29       1.0  T
   4   -100.7721690 -0.672689E-01  0.526E-01    1.50       1.0  T
   5   -100.7894292 -0.172602E-01  0.190E-01    1.98       1.0  T
   6   -100.7911978 -0.176856E-02  0.792E-02    1.77       1.0  T
   7   -100.7914750 -0.277198E-03  0.375E-02    1.83       1.0  T
   8   -100.7914914 -0.164582E-04  0.140E-02    1.83       1.0  T
   9   -100.7914976 -0.616739E-05  0.474E-03    1.82       2.5  T
  10   -100.7914988 -0.118227E-05  0.172E-03    1.82       6.8  T
  11   -100.7914989 -0.139928E-06  0.766E-04    1.82      15.4  T
  12   -100.7914989 -0.773143E-08  0.318E-04    1.82      37.0  T

   *** convergence criteria satisfied after 12 iterations ***

         #    Occupation            Energy/Eh            Energy/eV
      -------------------------------------------------------------
         1        2.0000           -0.8078051             -21.9815
       ...           ...                  ...                  ...
        84        1.9966           -0.5157491             -14.0342
        85        1.9959           -0.5128261             -13.9547
        86        1.9840           -0.4911498             -13.3649
        87        1.9795           -0.4872543             -13.2589
        88        1.9640           -0.4782114             -13.0128
        89        1.8920           -0.4602041             -12.5228
        90        1.8557           -0.4553147             -12.3897 (HOMO)
        91        0.3166           -0.3884132             -10.5693 (LUMO)
        92        0.0218           -0.3434697              -9.3463
        93        0.0041           -0.3169887              -8.6257
        94        0.0034           -0.3139726              -8.5436
        95        0.0029           -0.3112618              -8.4699
       ...           ...                  ...                  ...
       171                          0.5822580              15.8440
      -------------------------------------------------------------
                  HL-Gap            0.0669015 Eh            1.8205 eV
             Fermi-level           -0.4148687 Eh          -11.2892 eV

 SCC (total)                   0 d,  0 h,  0 min,  0.189 sec
 SCC setup                      ...        0 min,  0.001 sec (  0.513%)
 Dispersion                     ...        0 min,  0.002 sec (  0.912%)
 classical contributions        ...        0 min,  0.000 sec (  0.237%)
 integral evaluation            ...        0 min,  0.018 sec (  9.648%)
 iterations                     ...        0 min,  0.097 sec ( 51.502%)
 molecular gradient             ...        0 min,  0.070 sec ( 36.844%)
 printout                       ...        0 min,  0.001 sec (  0.336%)

         :::::::::::::::::::::::::::::::::::::::::::::::::::::
         ::                     SUMMARY                     ::
         :::::::::::::::::::::::::::::::::::::::::::::::::::::
         :: total energy             -99.723820861884 Eh    ::
         :: gradient norm              0.366586456071 Eh/a0 ::
         :: HOMO-LUMO gap              1.820481192090 eV    ::
         ::.................................................::
         :: SCC energy              -100.791498925389 Eh    ::
         :: -> isotropic ES            0.109302908418 Eh    ::
         :: -> anisotropic ES          0.005415138735 Eh    ::
         :: -> anisotropic XC          0.042392697176 Eh    ::
         :: -> dispersion             -0.075527661009 Eh    ::
         :: repulsion energy           1.386151658689 Eh    ::
         :: add. restraining          -0.319689947690 Eh    ::
         :: total charge               1.000000000108 e     ::
         :::::::::::::::::::::::::::::::::::::::::::::::::::::

      ----------------------------------------------------------- 
     |                   =====================                   |
     |                        A N C O P T                        |
     |                   =====================                   |
     |               Approximate Normal Coordinate               |
     |                Rational Function Optimizer                |
      ----------------------------------------------------------- 

          ...................................................
          :                      SETUP                      :
          :.................................................:
          :   optimization level             loose          :
          :   max. optcycles                   200          :
          :   ANC micro-cycles                  20          :
          :   degrees of freedom               210          :
          :.................................................:
          :   RF solver                   davidson          :
          :   write xtbopt.log                true          :
          :   linear?                        false          :
          :   energy convergence         0.5000000E-04 Eh   :
          :   grad. convergence          0.4000000E-02 Eh/α :
          :   maxmium RF displ.          1.0000000          :
          :   Hlow (freq-cutoff)         0.1000000E-01      :
          :   Hmax (freq-cutoff)         5.0000000          :
          :   S6 in model hess.         20.0000000          :
          ...................................................

generating ANC from model Hessian ...
Using Lindh-Hessian (1995)
 Shifting diagonal of input Hessian by    8.6718661386086970E-002
 Lowest  eigenvalues of input Hessian
    0.010000    0.000000    0.000000    0.000000    0.000000    0.000000
    0.000000    0.086783    0.086855    0.086926    0.087073    0.087144
    0.087444    0.087607    0.087747    0.088055    0.088596    0.089522
 Highest eigenvalues
    2.112685    2.122669    2.128300    2.211638    2.260900    2.261217


........................................................................
.............................. CYCLE    1 ..............................
........................................................................

 iter      E             dE          RMSdq      gap      omega  full diag
   1   -100.7914989 -0.100791E+03  0.114E-04    1.82       0.0  T
   2   -100.7914989 -0.678995E-10  0.713E-05    1.82     165.2  T
   3   -100.7914989  0.665210E-10  0.496E-05    1.82     237.5  T
     SCC iter.                  ...        0 min,  0.026 sec
     gradient                   ...        0 min,  0.069 sec
 * total energy  :   -99.7238209 Eh     change       -0.4035485E-08 Eh
   gradient norm :     0.3665858 Eh/α   predicted     0.0000000E+00 (-100.00%)
   displ. norm   :     0.9367736 α      lambda       -0.2950118E+00
   maximum displ.:     0.9081700 α      in ANC's #1, #208, #139, ...

........................................................................
.............................. CYCLE    2 ..............................
........................................................................

 iter      E             dE          RMSdq      gap      omega  full diag
   1   -100.7563621 -0.100756E+03  0.459E-01    1.74       0.0  T
   2   -100.7573528 -0.990676E-03  0.295E-01    1.79       1.0  T
   3   -100.7572848  0.680150E-04  0.204E-01    1.84       1.0  T
   4   -100.7584375 -0.115268E-02  0.794E-02    1.67       1.0  T
   5   -100.7591615 -0.724066E-03  0.200E-02    1.81       1.0  T
   6   -100.7591941 -0.325320E-04  0.723E-03    1.78       1.6  T
   7   -100.7591949 -0.839028E-06  0.280E-03    1.78       4.2  T
   8   -100.7591952 -0.299918E-06  0.100E-03    1.78      11.8  T
   9   -100.7591952 -0.246533E-07  0.452E-04    1.78      26.1  T
  10   -100.7591952 -0.472517E-08  0.211E-04    1.78      55.7  T
     SCC iter.                  ...        0 min,  0.081 sec
     gradient                   ...        0 min,  0.069 sec
 * total energy  :  -100.0530883 Eh     change       -0.3292674E+00 Eh
   gradient norm :     0.4109977 Eh/α   predicted    -0.2769874E+00 ( -15.88%)
   displ. norm   :     0.9644566 α      lambda       -0.3734872E+00
   maximum displ.:     0.9459483 α      in ANC's #1, #139, #208, ...

........................................................................
.............................. CYCLE    3 ..............................
........................................................................

 iter      E             dE          RMSdq      gap      omega  full diag
   1   -100.6665710 -0.100667E+03  0.421E-01    1.74       0.0  T
   2   -100.6662921  0.278963E-03  0.291E-01    1.77       1.0  T
   3   -100.6669609 -0.668811E-03  0.220E-01    1.81       1.0  T
   4   -100.6688911 -0.193020E-02  0.707E-02    1.68       1.0  T
   5   -100.6693790 -0.487876E-03  0.257E-02    1.80       1.0  T
   6   -100.6694551 -0.761497E-04  0.805E-03    1.76       1.5  T
   7   -100.6694557 -0.602575E-06  0.324E-03    1.77       3.6  T
   8   -100.6694565 -0.789745E-06  0.109E-03    1.77      10.8  T
   9   -100.6694565 -0.310207E-07  0.550E-04    1.77      21.4  T
  10   -100.6694565 -0.481920E-08  0.257E-04    1.77      45.9  T
     SCC iter.                  ...        0 min,  0.080 sec
     gradient                   ...        0 min,  0.070 sec
 * total energy  :  -100.4676987 Eh     change       -0.4146105E+00 Eh
   gradient norm :     0.5082977 Eh/α   predicted    -0.3604482E+00 ( -13.06%)
   displ. norm   :     0.9606617 α      lambda       -0.4589301E+00
   maximum displ.:     0.9397141 α      in ANC's #1, #157, #139, ...

........................................................................
.............................. CYCLE    4 ..............................
........................................................................

 iter      E             dE          RMSdq      gap      omega  full diag
   1   -100.5229182 -0.100523E+03  0.446E-01    1.55       0.0  T
   2   -100.5211285  0.178966E-02  0.373E-01    1.54       1.0  T
   3   -100.5271048 -0.597629E-02  0.226E-01    1.61       1.0  T
   4   -100.5287803 -0.167549E-02  0.120E-01    1.57       1.0  T
   5   -100.5296039 -0.823579E-03  0.464E-02    1.69       1.0  T
   6   -100.5298502 -0.246349E-03  0.166E-02    1.62       1.0  T
   7   -100.5298592 -0.896532E-05  0.656E-03    1.63       1.8  T
   8   -100.5298635 -0.434032E-05  0.243E-03    1.63       4.8  T
   9   -100.5298638 -0.319373E-06  0.994E-04    1.63      11.9  T
  10   -100.5298639 -0.118664E-07  0.417E-04    1.63      28.3  T
     SCC iter.                  ...        0 min,  0.081 sec
     gradient                   ...        0 min,  0.069 sec
 * total energy  :  -100.9677340 Eh     change       -0.5000353E+00 Eh
   gradient norm :     0.6164677 Eh/α   predicted    -0.4412318E+00 ( -11.76%)
   displ. norm   :     0.9549326 α      lambda       -0.5520414E+00
   maximum displ.:     0.9241089 α      in ANC's #1, #157, #208, ...

........................................................................
.............................. CYCLE    5 ..............................
........................................................................

 iter      E             dE          RMSdq      gap      omega  full diag
   1   -100.4106655 -0.100411E+03  0.994E-01    0.32       0.0  T
   2   -100.3495632  0.611023E-01  0.905E-01    0.62       1.0  T
   3   -100.3488401  0.723118E-03  0.917E-01    0.49       1.0  T
   4   -100.4127733 -0.639333E-01  0.271E-01    0.49       1.0  T
   5   -100.4242843 -0.115110E-01  0.114E-01    0.45       1.0  T
   6   -100.4253877 -0.110334E-02  0.437E-02    0.48       1.0  T
   7   -100.4253818  0.580792E-05  0.312E-02    0.48       1.0  T
   8   -100.4254215 -0.396540E-04  0.825E-03    0.48       1.4  T
   9   -100.4254268 -0.525092E-05  0.290E-03    0.48       4.1  T
  10   -100.4254271 -0.345613E-06  0.160E-03    0.48       7.4  T
  11   -100.4254271 -0.418509E-07  0.701E-04    0.48      16.8  T
  12   -100.4254272 -0.296718E-07  0.244E-04    0.48      48.4  T
     SCC iter.                  ...        0 min,  0.096 sec
     gradient                   ...        0 min,  0.070 sec
 * total energy  :  -101.5823259 Eh     change       -0.6145919E+00 Eh
   gradient norm :     0.6146336 Eh/α   predicted    -0.5277229E+00 ( -14.13%)
   displ. norm   :     0.9855887 α      lambda       -0.5951397E+00
   maximum displ.:     0.8607912 α      in ANC's #1, #157, #208, ...

........................................................................
.............................. CYCLE    6 ..............................
........................................................................

 iter      E             dE          RMSdq      gap      omega  full diag
   1   -100.3166454 -0.100317E+03  0.970E-01    0.53       0.0  T
   2    -99.8607164  0.455929E+00  0.210E+00    0.22       1.0  T
   3   -100.3644541 -0.503738E+00  0.495E-01    0.11       1.0  T
   4   -100.3832803 -0.188262E-01  0.255E-01    0.18       1.0  T
   5   -100.3834632 -0.182970E-03  0.146E-01    0.14       1.0  T
   6   -100.3841952 -0.731975E-03  0.973E-02    0.14       1.0  T
   7   -100.3852956 -0.110035E-02  0.302E-02    0.13       1.0  T
   8   -100.3853831 -0.875160E-04  0.637E-03    0.13       1.9  T
   9   -100.3853850 -0.188322E-05  0.442E-03    0.13       2.7  T
  10   -100.3853854 -0.450754E-06  0.173E-03    0.13       6.8  T
  11   -100.3853857 -0.280966E-06  0.622E-04    0.13      18.9  T
  12   -100.3853857 -0.934210E-08  0.291E-04    0.13      40.5  T
     SCC iter.                  ...        0 min,  0.099 sec
     gradient                   ...        0 min,  0.069 sec
 * total energy  :   -96.2900238 Eh     change        0.5292302E+01 Eh
   gradient norm :    33.9036191 Eh/α   predicted    -0.5866247E+00 (-111.08%)
   displ. norm   :     0.5817164 α      lambda       -0.1971863E+02
   maximum displ.:     0.4470279 α      in ANC's #1, #208, #139, ...

........................................................................
.............................. CYCLE    7 ..............................
........................................................................

 iter      E             dE          RMSdq      gap      omega  full diag
   1   -100.3894062 -0.100389E+03  0.802E-01    0.45       0.0  T
   2   -100.0952978  0.294108E+00  0.186E+00    1.25       1.0  T
   3   -100.4482540 -0.352956E+00  0.421E-01    0.14       1.0  T
   4   -100.4600537 -0.117997E-01  0.235E-01    0.04       1.0  T
   5   -100.4601959 -0.142215E-03  0.144E-01    0.17       1.0  T
   6   -100.4621406 -0.194466E-02  0.611E-02    0.12       1.0  T
   7   -100.4626077 -0.467190E-03  0.157E-02    0.11       1.0  T
   8   -100.4626119 -0.413620E-05  0.850E-03    0.12       1.4  T
   9   -100.4626165 -0.463581E-05  0.258E-03    0.12       4.6  T
  10   -100.4626171 -0.550856E-06  0.987E-04    0.12      11.9  T
  11   -100.4626171 -0.530994E-07  0.396E-04    0.12      29.7  T
     SCC iter.                  ...        0 min,  0.088 sec
     gradient                   ...        0 min,  0.069 sec
 * total energy  :  -101.6912220 Eh     change       -0.5401198E+01 Eh
   gradient norm :     0.7425274 Eh/α   predicted    -0.1319565E+02 ( 144.31%)
   displ. norm   :     0.5280905 α      lambda       -0.7595269E-01
   maximum displ.:     0.2566847 α      in ANC's #1, #139, #208, ...

........................................................................
.............................. CYCLE    8 ..............................
........................................................................

 iter      E             dE          RMSdq      gap      omega  full diag
   1   -100.5109770 -0.100511E+03  0.303E-01    0.08       0.0  T
   2   -100.5026855  0.829146E-02  0.391E-01    0.05       1.0  T
   3   -100.5159335 -0.132480E-01  0.137E-01    0.12       1.0  T
   4   -100.5113597  0.457382E-02  0.249E-01    0.10       1.0  T
   5   -100.5159635 -0.460384E-02  0.600E-02    0.07       1.0  T
   6   -100.5165591 -0.595571E-03  0.163E-02    0.05       1.0  T
   7   -100.5165827 -0.236400E-04  0.670E-03    0.06       1.8  T
   8   -100.5165839 -0.114061E-05  0.362E-03    0.06       3.3  T
   9   -100.5165850 -0.112076E-05  0.937E-04    0.06      12.6  T
  10   -100.5165850 -0.453119E-07  0.354E-04    0.06      33.3  T
  11   -100.5165850 -0.429587E-08  0.161E-04    0.06      73.4  T
     SCC iter.                  ...        0 min,  0.089 sec
     gradient                   ...        0 min,  0.075 sec
 * total energy  :  -101.7638313 Eh     change       -0.7260926E-01 Eh
   gradient norm :     0.3881616 Eh/α   predicted    -0.4856564E-01 ( -33.11%)
   displ. norm   :     0.8248127 α      lambda       -0.1521463E+00
   maximum displ.:     0.2137416 α      in ANC's #139, #52, #1, ...

........................................................................
.............................. CYCLE    9 ..............................
........................................................................

 iter      E             dE          RMSdq      gap      omega  full diag
   1   -100.5659059 -0.100566E+03  0.488E-01    0.23       0.0  T
   2   -100.5414541  0.244518E-01  0.599E-01    0.26       1.0  T
   3   -100.5645848 -0.231308E-01  0.318E-01    0.32       1.0  T
   4   -100.5661304 -0.154555E-02  0.170E-01    0.10       1.0  T
   5   -100.5702586 -0.412823E-02  0.721E-02    0.15       1.0  T
   6   -100.5709064 -0.647792E-03  0.263E-02    0.14       1.0  T
   7   -100.5709484 -0.419755E-04  0.100E-02    0.14       1.2  T
   8   -100.5709540 -0.561073E-05  0.245E-03    0.15       4.8  T
   9   -100.5709543 -0.264268E-06  0.111E-03    0.15      10.7  T
  10   -100.5709543 -0.241291E-07  0.596E-04    0.15      19.8  T
  11   -100.5709543 -0.282986E-07  0.228E-04    0.15      51.6  T
     SCC iter.                  ...        0 min,  0.089 sec
     gradient                   ...        0 min,  0.072 sec
 * total energy  :  -101.7748530 Eh     change       -0.1102175E-01 Eh
   gradient norm :     0.6332527 Eh/α   predicted    -0.1278264E+00 (1059.77%)
   displ. norm   :     0.4753971 α      lambda       -0.1533120E+00
   maximum displ.:     0.1637805 α      in ANC's #157, #1, #116, ...

........................................................................
.............................. CYCLE   10 ..............................
........................................................................

 iter      E             dE          RMSdq      gap      omega  full diag
   1   -100.5699679 -0.100570E+03  0.373E-01    0.12       0.0  T
   2   -100.5655972  0.437075E-02  0.338E-01    0.09       1.0  T
   3   -100.5720643 -0.646709E-02  0.196E-01    0.11       1.0  T
   4   -100.5686198  0.344446E-02  0.248E-01    0.12       1.0  T
   5   -100.5742629 -0.564309E-02  0.103E-01    0.08       1.0  T
   6   -100.5753335 -0.107058E-02  0.151E-02    0.02       1.0  T
   7   -100.5753451 -0.116557E-04  0.665E-03    0.02       1.8  T
   8   -100.5753464 -0.130066E-05  0.225E-03    0.02       5.2  T
   9   -100.5753468 -0.347435E-06  0.736E-04    0.03      16.0  T
  10   -100.5753468 -0.303409E-07  0.301E-04    0.03      39.1  T
     SCC iter.                  ...        0 min,  0.080 sec
     gradient                   ...        0 min,  0.069 sec
 * total energy  :  -101.8322433 Eh     change       -0.5739028E-01 Eh
   gradient norm :     0.2320020 Eh/α   predicted    -0.9398029E-01 (  63.76%)
   displ. norm   :     0.5783746 α      lambda       -0.1010256E+00
   maximum displ.:     0.2216830 α      in ANC's #157, #208, #1, ...

........................................................................
.............................. CYCLE   11 ..............................
........................................................................

 iter      E             dE          RMSdq      gap      omega  full diag
   1   -100.5749531 -0.100575E+03  0.643E-01    0.33       0.0  T
   2   -100.5356949  0.392582E-01  0.674E-01    0.16       1.0  T
   3   -100.5735811 -0.378862E-01  0.481E-01    0.51       1.0  T
   4   -100.5858091 -0.122280E-01  0.304E-01    0.15       1.0  T
   5   -100.5937687 -0.795952E-02  0.792E-02    0.30       1.0  T
   6   -100.5947209 -0.952215E-03  0.164E-02    0.28       1.0  T
   7   -100.5947325 -0.115989E-04  0.943E-03    0.28       1.2  T
   8   -100.5947373 -0.482279E-05  0.316E-03    0.28       3.7  T
   9   -100.5947377 -0.358918E-06  0.120E-03    0.28       9.8  T
  10   -100.5947378 -0.913205E-07  0.433E-04    0.28      27.2  T
  11   -100.5947378 -0.592064E-08  0.165E-04    0.28      71.5  T
     SCC iter.                  ...        0 min,  0.088 sec
     gradient                   ...        0 min,  0.069 sec
 * total energy  :  -101.8510440 Eh     change       -0.1880068E-01 Eh
   gradient norm :     0.2357518 Eh/α   predicted    -0.6741041E-01 ( 258.55%)
   displ. norm   :     0.3886737 α      lambda       -0.5409099E-01
   maximum displ.:     0.1143230 α      in ANC's #157, #53, #148, ...

........................................................................
.............................. CYCLE   12 ..............................
........................................................................

 iter      E             dE          RMSdq      gap      omega  full diag
   1   -100.6196407 -0.100620E+03  0.263E-01    0.44       0.0  T
   2   -100.6190362  0.604462E-03  0.187E-01    0.37       1.0  T
   3   -100.6176309  0.140528E-02  0.186E-01    0.31       1.0  T
   4   -100.6193570 -0.172612E-02  0.174E-01    0.50       1.0  T
   5   -100.6217515 -0.239450E-02  0.343E-02    0.36       1.0  T
   6   -100.6218924 -0.140890E-03  0.106E-02    0.38       1.1  T
   7   -100.6219000 -0.757510E-05  0.427E-03    0.38       2.8  T
   8   -100.6219006 -0.621565E-06  0.142E-03    0.38       8.3  T
   9   -100.6219007 -0.109839E-06  0.520E-04    0.38      22.7  T
  10   -100.6219007 -0.165520E-08  0.298E-04    0.38      39.6  T
     SCC iter.                  ...        0 min,  0.081 sec
     gradient                   ...        0 min,  0.069 sec
 * total energy  :  -101.8899414 Eh     change       -0.3889743E-01 Eh
   gradient norm :     0.2076487 Eh/α   predicted    -0.3113147E-01 ( -19.97%)
   displ. norm   :     0.5130351 α      lambda       -0.4107141E-01
   maximum displ.:     0.1360782 α      in ANC's #52, #148, #36, ...

........................................................................
.............................. CYCLE   13 ..............................
........................................................................

 iter      E             dE          RMSdq      gap      omega  full diag
   1   -100.6549670 -0.100655E+03  0.329E-01    0.68       0.0  T
   2   -100.6528267  0.214032E-02  0.286E-01    0.40       1.0  T
   3   -100.6537528 -0.926125E-03  0.240E-01    0.72       1.0  T
   4   -100.6530767  0.676147E-03  0.199E-01    0.47       1.0  T
   5   -100.6579920 -0.491532E-02  0.200E-02    0.56       1.0  T
   6   -100.6580245 -0.324867E-04  0.865E-03    0.56       1.4  T
   7   -100.6580260 -0.149501E-05  0.339E-03    0.56       3.5  T
   8   -100.6580264 -0.468687E-06  0.135E-03    0.57       8.7  T
   9   -100.6580266 -0.195761E-06  0.720E-04    0.57      16.4  T
  10   -100.6580267 -0.499854E-07  0.343E-04    0.57      34.4  T
     SCC iter.                  ...        0 min,  0.081 sec
     gradient                   ...        0 min,  0.069 sec
 * total energy  :  -101.9158892 Eh     change       -0.2594778E-01 Eh
   gradient norm :     0.2179630 Eh/α   predicted    -0.2594080E-01 (  -0.03%)
   displ. norm   :     0.4907804 α      lambda       -0.2608233E-01
   maximum displ.:     0.1519434 α      in ANC's #53, #34, #28, ...

........................................................................
.............................. CYCLE   14 ..............................
........................................................................

 iter      E             dE          RMSdq      gap      omega  full diag
   1   -100.6720465 -0.100672E+03  0.243E-01    0.80       0.0  T
   2   -100.6610464  0.110001E-01  0.368E-01    0.44       1.0  T
   3   -100.6719634 -0.109170E-01  0.171E-01    0.78       1.0  T
   4   -100.6735989 -0.163552E-02  0.668E-02    0.67       1.0  T
   5   -100.6741250 -0.526169E-03  0.178E-02    0.69       1.0  T
   6   -100.6741569 -0.318889E-04  0.815E-03    0.69       1.4  T
   7   -100.6741600 -0.305644E-05  0.227E-03    0.69       5.2  T
   8   -100.6741603 -0.319992E-06  0.745E-04    0.69      15.8  T
   9   -100.6741603 -0.185775E-07  0.352E-04    0.69      33.4  T
     SCC iter.                  ...        0 min,  0.073 sec
     gradient                   ...        0 min,  0.069 sec
 * total energy  :  -101.9354805 Eh     change       -0.1959136E-01 Eh
   gradient norm :     0.2774634 Eh/α   predicted    -0.1618237E-01 ( -17.40%)
   displ. norm   :     0.5560996 α      lambda       -0.2409542E-01
   maximum displ.:     0.1496456 α      in ANC's #34, #52, #53, ...

........................................................................
.............................. CYCLE   15 ..............................
........................................................................

 iter      E             dE          RMSdq      gap      omega  full diag
   1   -100.6836649 -0.100684E+03  0.288E-01    0.94       0.0  T
   2   -100.6633087  0.203562E-01  0.488E-01    0.45       1.0  T
   3   -100.6849709 -0.216622E-01  0.172E-01    0.89       1.0  T
   4   -100.6867198 -0.174895E-02  0.723E-02    0.78       1.0  T
   5   -100.6870634 -0.343590E-03  0.143E-02    0.79       1.0  T
   6   -100.6870782 -0.147925E-04  0.807E-03    0.79       1.5  T
   7   -100.6870824 -0.418432E-05  0.247E-03    0.79       4.8  T
   8   -100.6870826 -0.265265E-06  0.687E-04    0.79      17.2  T
   9   -100.6870827 -0.148923E-07  0.327E-04    0.79      36.0  T
     SCC iter.                  ...        0 min,  0.073 sec
     gradient                   ...        0 min,  0.069 sec
 * total energy  :  -101.9522077 Eh     change       -0.1672721E-01 Eh
   gradient norm :     0.2285485 Eh/α   predicted    -0.1577342E-01 (  -5.70%)
   displ. norm   :     0.4370303 α      lambda       -0.1299180E-01
   maximum displ.:     0.1176799 α      in ANC's #34, #28, #30, ...

........................................................................
.............................. CYCLE   16 ..............................
........................................................................

 iter      E             dE          RMSdq      gap      omega  full diag
   1   -100.7050978 -0.100705E+03  0.148E-01    0.89       0.0  T
   2   -100.7024563  0.264145E-02  0.189E-01    0.70       1.0  T
   3   -100.7048963 -0.244003E-02  0.107E-01    0.90       1.0  T
   4   -100.7055286 -0.632315E-03  0.358E-02    0.83       1.0  T
   5   -100.7056323 -0.103689E-03  0.752E-03    0.83       1.6  T
   6   -100.7056358 -0.351586E-05  0.383E-03    0.84       3.1  T
   7   -100.7056366 -0.751499E-06  0.147E-03    0.84       8.0  T
   8   -100.7056367 -0.913476E-07  0.558E-04    0.84      21.1  T
   9   -100.7056367 -0.214143E-07  0.228E-04    0.84      51.7  T
     SCC iter.                  ...        0 min,  0.073 sec
     gradient                   ...        0 min,  0.069 sec
 * total energy  :  -101.9619720 Eh     change       -0.9764301E-02 Eh
   gradient norm :     0.2431352 Eh/α   predicted    -0.7736551E-02 ( -20.77%)
   displ. norm   :     0.4731291 α      lambda       -0.1126547E-01
   maximum displ.:     0.1261600 α      in ANC's #34, #30, #28, ...

........................................................................
.............................. CYCLE   17 ..............................
........................................................................

 iter      E             dE          RMSdq      gap      omega  full diag
   1   -100.7089464 -0.100709E+03  0.138E-01    0.88       0.0  T
   2   -100.7086101  0.336294E-03  0.993E-02    0.81       1.0  T
   3   -100.7065380  0.207212E-02  0.161E-01    0.98       1.0  T
   4   -100.7090345 -0.249653E-02  0.138E-02    0.85       1.0  T
   5   -100.7090448 -0.103423E-04  0.553E-03    0.86       2.1  T
   6   -100.7090459 -0.104387E-05  0.280E-03    0.86       4.2  T
   7   -100.7090462 -0.311159E-06  0.920E-04    0.86      12.8  T
   8   -100.7090463 -0.678279E-07  0.337E-04    0.86      35.0  T
     SCC iter.                  ...        0 min,  0.065 sec
     gradient                   ...        0 min,  0.069 sec
 * total energy  :  -101.9701525 Eh     change       -0.8180424E-02 Eh
   gradient norm :     0.1706631 Eh/α   predicted    -0.6893621E-02 ( -15.73%)
   displ. norm   :     0.5533389 α      lambda       -0.1218543E-01
   maximum displ.:     0.1419298 α      in ANC's #30, #11, #35, ...

........................................................................
.............................. CYCLE   18 ..............................
........................................................................

 iter      E             dE          RMSdq      gap      omega  full diag
   1   -100.7152186 -0.100715E+03  0.174E-01    0.91       0.0  T
   2   -100.7147850  0.433585E-03  0.116E-01    0.83       1.0  T
   3   -100.7119593  0.282575E-02  0.194E-01    1.04       1.0  T
   4   -100.7152487 -0.328940E-02  0.407E-02    0.88       1.0  T
   5   -100.7154003 -0.151611E-03  0.633E-03    0.89       1.9  T
   6   -100.7154019 -0.162791E-05  0.360E-03    0.89       3.3  T
   7   -100.7154025 -0.600883E-06  0.117E-03    0.89      10.1  T
   8   -100.7154026 -0.783768E-07  0.391E-04    0.89      30.1  T
   9   -100.7154026 -0.600861E-08  0.209E-04    0.89      56.5  T
     SCC iter.                  ...        0 min,  0.073 sec
     gradient                   ...        0 min,  0.069 sec
 * total energy  :  -101.9771099 Eh     change       -0.6957438E-02 Eh
   gradient norm :     0.2369509 Eh/α   predicted    -0.7958221E-02 (  14.38%)
   displ. norm   :     0.4239668 α      lambda       -0.1105496E-01
   maximum displ.:     0.1264869 α      in ANC's #30, #83, #11, ...

........................................................................
.............................. CYCLE   19 ..............................
........................................................................

 iter      E             dE          RMSdq      gap      omega  full diag
   1   -100.7220969 -0.100722E+03  0.124E-01    0.89       0.0  T
   2   -100.7217247  0.372261E-03  0.101E-01    0.94       1.0  T
   3   -100.7209283  0.796312E-03  0.121E-01    0.81       1.0  T
   4   -100.7221151 -0.118676E-02  0.350E-02    0.93       1.0  T
   5   -100.7222605 -0.145359E-03  0.657E-03    0.89       1.8  T
   6   -100.7222628 -0.238360E-05  0.324E-03    0.90       3.6  T
   7   -100.7222631 -0.234436E-06  0.946E-04    0.89      12.5  T
   8   -100.7222631 -0.425332E-07  0.353E-04    0.89      33.4  T
     SCC iter.                  ...        0 min,  0.065 sec
     gradient                   ...        0 min,  0.069 sec
 * total energy  :  -101.9850297 Eh     change       -0.7919847E-02 Eh
   gradient norm :     0.1404167 Eh/α   predicted    -0.6521147E-02 ( -17.66%)
   displ. norm   :     0.4514351 α      lambda       -0.8018810E-02
   maximum displ.:     0.1412761 α      in ANC's #30, #83, #72, ...

........................................................................
.............................. CYCLE   20 ..............................
........................................................................

 iter      E             dE          RMSdq      gap      omega  full diag
   1   -100.7248633 -0.100725E+03  0.118E-01    0.90       0.0  T
   2   -100.7248629  0.410110E-06  0.762E-02    0.91       1.0  T
   3   -100.7242122  0.650722E-03  0.824E-02    0.85       1.0  T
   4   -100.7245549 -0.342743E-03  0.652E-02    0.95       1.0  T
   5   -100.7249696 -0.414682E-03  0.507E-03    0.90       2.3  T
   6   -100.7249704 -0.824122E-06  0.297E-03    0.90       4.0  T
   7   -100.7249708 -0.431374E-06  0.779E-04    0.90      15.1  T
   8   -100.7249709 -0.259626E-07  0.401E-04    0.90      29.4  T
     SCC iter.                  ...        0 min,  0.065 sec
     gradient                   ...        0 min,  0.069 sec
 * total energy  :  -101.9912414 Eh     change       -0.6211639E-02 Eh
   gradient norm :     0.0930315 Eh/α   predicted    -0.4826531E-02 ( -22.30%)
   displ. norm   :     0.4609572 α      lambda       -0.7676435E-02
   maximum displ.:     0.1422654 α      in ANC's #30, #83, #53, ...
 * RMSD in coord.:     0.8023123 α      energy gain  -0.2267421E+01 Eh

generating ANC from model Hessian ...
Using Lindh-Hessian (1995)
 Shifting diagonal of input Hessian by    9.9488160740001975E-003
 Lowest  eigenvalues of input Hessian
    0.000000    0.000000    0.000000    0.000000    0.000000    0.000000
    0.010000    0.010063    0.010124    0.010187    0.010250    0.010610
    0.010752    0.010883    0.011173    0.011522    0.011736    0.012234
 Highest eigenvalues
    2.045101    2.047290    2.178489    2.180605    2.517498    3.317967


........................................................................
.............................. CYCLE   21 ..............................
........................................................................

 iter      E             dE          RMSdq      gap      omega  full diag
   1   -100.7315793 -0.100732E+03  0.144E-01    0.92       0.0  T
   2   -100.7315990 -0.197739E-04  0.897E-02    0.90       1.0  T
   3   -100.7311663  0.432774E-03  0.870E-02    0.96       1.0  T
   4   -100.7312065 -0.402379E-04  0.663E-02    0.86       1.0  T
   5   -100.7317243 -0.517856E-03  0.592E-03    0.91       2.0  T
   6   -100.7317262 -0.190106E-05  0.304E-03    0.91       3.9  T
   7   -100.7317267 -0.485454E-06  0.108E-03    0.91      10.9  T
   8   -100.7317268 -0.787201E-07  0.404E-04    0.91      29.1  T
   9   -100.7317268 -0.850166E-08  0.183E-04    0.91      64.4  T
     SCC iter.                  ...        0 min,  0.072 sec
     gradient                   ...        0 min,  0.069 sec
 * total energy  :  -101.9966673 Eh     change       -0.5425906E-02 Eh
   gradient norm :     0.0838789 Eh/α   predicted     0.0000000E+00 (-100.00%)
   displ. norm   :     0.3441009 α      lambda       -0.8677074E-02
   maximum displ.:     0.1041429 α      in ANC's #23, #29, #32, ...

........................................................................
.............................. CYCLE   22 ..............................
........................................................................

 iter      E             dE          RMSdq      gap      omega  full diag
   1   -100.7388930 -0.100739E+03  0.947E-02    0.92       0.0  T
   2   -100.7388861  0.687011E-05  0.603E-02    0.90       1.0  T
   3   -100.7384617  0.424482E-03  0.747E-02    0.97       1.0  T
   4   -100.7387505 -0.288810E-03  0.446E-02    0.88       1.0  T
   5   -100.7389580 -0.207586E-03  0.397E-03    0.92       3.0  T
   6   -100.7389595 -0.147173E-05  0.182E-03    0.92       6.5  T
   7   -100.7389597 -0.144280E-06  0.842E-04    0.92      14.0  T
   8   -100.7389597 -0.408364E-07  0.253E-04    0.92      46.7  T
     SCC iter.                  ...        0 min,  0.065 sec
     gradient                   ...        0 min,  0.069 sec
 * total energy  :  -102.0012919 Eh     change       -0.4624597E-02 Eh
   gradient norm :     0.1265590 Eh/α   predicted    -0.4852245E-02 (   4.92%)
   displ. norm   :     0.4759583 α      lambda       -0.9442112E-02
   maximum displ.:     0.1467334 α      in ANC's #23, #32, #29, ...

........................................................................
.............................. CYCLE   23 ..............................
........................................................................

 iter      E             dE          RMSdq      gap      omega  full diag
   1   -100.7417110 -0.100742E+03  0.123E-01    0.93       0.0  T
   2   -100.7416582  0.528102E-04  0.840E-02    0.90       1.0  T
   3   -100.7408185  0.839744E-03  0.106E-01    1.00       1.0  T
   4   -100.7414892 -0.670734E-03  0.525E-02    0.88       1.0  T
   5   -100.7418178 -0.328552E-03  0.644E-03    0.93       1.8  T
   6   -100.7418226 -0.480373E-05  0.239E-03    0.93       4.9  T
   7   -100.7418227 -0.123813E-06  0.951E-04    0.93      12.4  T
   8   -100.7418228 -0.571359E-07  0.310E-04    0.93      38.0  T
     SCC iter.                  ...        0 min,  0.065 sec
     gradient                   ...        0 min,  0.069 sec
 * total energy  :  -102.0074516 Eh     change       -0.6159688E-02 Eh
   gradient norm :     0.0506738 Eh/α   predicted    -0.5790743E-02 (  -5.99%)
   displ. norm   :     0.4598909 α      lambda       -0.4694921E-02
   maximum displ.:     0.1531664 α      in ANC's #29, #32, #23, ...

........................................................................
.............................. CYCLE   24 ..............................
........................................................................

 iter      E             dE          RMSdq      gap      omega  full diag
   1   -100.7419531 -0.100742E+03  0.108E-01    0.93       0.0  T
   2   -100.7419501  0.296646E-05  0.670E-02    0.92       1.0  T
   3   -100.7415269  0.423265E-03  0.804E-02    0.98       1.0  T
   4   -100.7417280 -0.201148E-03  0.484E-02    0.89       1.0  T
   5   -100.7420265 -0.298456E-03  0.468E-03    0.93       2.5  T
   6   -100.7420282 -0.172158E-05  0.184E-03    0.93       6.4  T
   7   -100.7420282 -0.484093E-07  0.781E-04    0.93      15.1  T
   8   -100.7420283 -0.557574E-07  0.251E-04    0.93      47.0  T
     SCC iter.                  ...        0 min,  0.066 sec
     gradient                   ...        0 min,  0.069 sec
 * total energy  :  -102.0111789 Eh     change       -0.3727362E-02 Eh
   gradient norm :     0.0632020 Eh/α   predicted    -0.2844061E-02 ( -23.70%)
   displ. norm   :     0.5254019 α      lambda       -0.4964476E-02
   maximum displ.:     0.1700511 α      in ANC's #32, #29, #23, ...

........................................................................
.............................. CYCLE   25 ..............................
........................................................................

 iter      E             dE          RMSdq      gap      omega  full diag
   1   -100.7432699 -0.100743E+03  0.122E-01    0.93       0.0  T
   2   -100.7432928 -0.228518E-04  0.758E-02    0.92       1.0  T
   3   -100.7429716  0.321162E-03  0.773E-02    0.97       1.0  T
   4   -100.7429142  0.573928E-04  0.629E-02    0.87       1.0  T
   5   -100.7433929 -0.478624E-03  0.483E-03    0.93       2.4  T
   6   -100.7433944 -0.153001E-05  0.215E-03    0.93       5.5  T
   7   -100.7433946 -0.161558E-06  0.842E-04    0.93      14.0  T
   8   -100.7433946 -0.464723E-07  0.334E-04    0.93      35.3  T
     SCC iter.                  ...        0 min,  0.066 sec
     gradient                   ...        0 min,  0.071 sec
 * total energy  :  -102.0148964 Eh     change       -0.3717436E-02 Eh
   gradient norm :     0.0678849 Eh/α   predicted    -0.3167469E-02 ( -14.79%)
   displ. norm   :     0.4379683 α      lambda       -0.3655244E-02
   maximum displ.:     0.1336125 α      in ANC's #32, #10, #19, ...

........................................................................
.............................. CYCLE   26 ..............................
........................................................................

 iter      E             dE          RMSdq      gap      omega  full diag
   1   -100.7473030 -0.100747E+03  0.875E-02    0.93       0.0  T
   2   -100.7473316 -0.286680E-04  0.548E-02    0.92       1.0  T
   3   -100.7472067  0.124925E-03  0.500E-02    0.96       1.0  T
   4   -100.7471102  0.965004E-04  0.491E-02    0.88       1.0  T
   5   -100.7473839 -0.273720E-03  0.370E-03    0.93       3.2  T
   6   -100.7473849 -0.948336E-06  0.173E-03    0.92       6.8  T
   7   -100.7473850 -0.929773E-07  0.637E-04    0.92      18.5  T
   8   -100.7473850 -0.138034E-07  0.268E-04    0.92      44.1  T
     SCC iter.                  ...        0 min,  0.065 sec
     gradient                   ...        0 min,  0.069 sec
 * total energy  :  -102.0176371 Eh     change       -0.2740677E-02 Eh
   gradient norm :     0.0440644 Eh/α   predicted    -0.2178194E-02 ( -20.52%)
   displ. norm   :     0.4267245 α      lambda       -0.2531921E-02
   maximum displ.:     0.1269116 α      in ANC's #8, #10, #32, ...

........................................................................
.............................. CYCLE   27 ..............................
........................................................................

 iter      E             dE          RMSdq      gap      omega  full diag
   1   -100.7514719 -0.100751E+03  0.709E-02    0.93       0.0  T
   2   -100.7514714  0.469812E-06  0.430E-02    0.91       1.0  T
   3   -100.7511344  0.337072E-03  0.613E-02    0.97       1.0  T
   4   -100.7514336 -0.299242E-03  0.250E-02    0.91       1.0  T
   5   -100.7515024 -0.687366E-04  0.241E-03    0.92       4.9  T
   6   -100.7515026 -0.217085E-06  0.141E-03    0.92       8.3  T
   7   -100.7515026 -0.509567E-07  0.542E-04    0.92      21.7  T
   8   -100.7515026 -0.232539E-07  0.207E-04    0.92      57.0  T
     SCC iter.                  ...        0 min,  0.066 sec
     gradient                   ...        0 min,  0.074 sec
 * total energy  :  -102.0194950 Eh     change       -0.1857959E-02 Eh
   gradient norm :     0.0187143 Eh/α   predicted    -0.1496501E-02 ( -19.45%)
   displ. norm   :     0.4233366 α      lambda       -0.1344261E-02
   maximum displ.:     0.1381522 α      in ANC's #12, #8, #10, ...

........................................................................
.............................. CYCLE   28 ..............................
........................................................................

 iter      E             dE          RMSdq      gap      omega  full diag
   1   -100.7533491 -0.100753E+03  0.618E-02    0.92       0.0  T
   2   -100.7533345  0.145818E-04  0.377E-02    0.90       1.0  T
   3   -100.7528241  0.510452E-03  0.715E-02    0.98       1.0  T
   4   -100.7533526 -0.528507E-03  0.734E-03    0.92       1.6  T
   5   -100.7533586 -0.596064E-05  0.182E-03    0.92       6.5  T
   6   -100.7533586 -0.495612E-07  0.103E-03    0.92      11.5  T
   7   -100.7533586 -0.427218E-07  0.443E-04    0.92      26.6  T
   8   -100.7533587 -0.180667E-07  0.160E-04    0.92      73.8  T
     SCC iter.                  ...        0 min,  0.065 sec
     gradient                   ...        0 min,  0.069 sec
 * total energy  :  -102.0204336 Eh     change       -0.9386224E-03 Eh
   gradient norm :     0.0163792 Eh/α   predicted    -0.7925878E-03 ( -15.56%)
   displ. norm   :     0.3290084 α      lambda       -0.6508954E-03
   maximum displ.:     0.1280746 α      in ANC's #12, #8, #11, ...

........................................................................
.............................. CYCLE   29 ..............................
........................................................................

 iter      E             dE          RMSdq      gap      omega  full diag
   1   -100.7565489 -0.100757E+03  0.417E-02    0.92       0.0  T
   2   -100.7565484  0.490362E-06  0.251E-02    0.91       1.0  T
   3   -100.7564361  0.112297E-03  0.307E-02    0.94       1.0  T
   4   -100.7565424 -0.106367E-03  0.112E-02    0.91       1.1  T
   5   -100.7565534 -0.110156E-04  0.133E-03    0.91       8.9  T
   6   -100.7565535 -0.757416E-07  0.704E-04    0.91      16.7  T
   7   -100.7565535 -0.113077E-07  0.280E-04    0.91      42.1  T
     SCC iter.                  ...        0 min,  0.057 sec
     gradient                   ...        0 min,  0.069 sec
 * total energy  :  -102.0208371 Eh     change       -0.4035052E-03 Eh
   gradient norm :     0.0153969 Eh/α   predicted    -0.3606838E-03 ( -10.61%)
   displ. norm   :     0.4099962 α      lambda       -0.4801670E-03
   maximum displ.:     0.1594489 α      in ANC's #12, #8, #10, ...

........................................................................
.............................. CYCLE   30 ..............................
........................................................................

 iter      E             dE          RMSdq      gap      omega  full diag
   1   -100.7539312 -0.100754E+03  0.548E-02    0.91       0.0  T
   2   -100.7539186  0.126017E-04  0.337E-02    0.90       1.0  T
   3   -100.7535888  0.329748E-03  0.613E-02    0.96       1.0  T
   4   -100.7539281 -0.339287E-03  0.104E-02    0.90       1.1  T
   5   -100.7539400 -0.118502E-04  0.238E-03    0.91       4.9  T
   6   -100.7539403 -0.359633E-06  0.891E-04    0.91      13.2  T
   7   -100.7539403 -0.257098E-07  0.313E-04    0.91      37.6  T
     SCC iter.                  ...        0 min,  0.057 sec
     gradient                   ...        0 min,  0.069 sec
 * total energy  :  -102.0210919 Eh     change       -0.2547199E-03 Eh
   gradient norm :     0.0179505 Eh/α   predicted    -0.2805804E-03 (  10.15%)
   displ. norm   :     0.2356816 α      lambda       -0.3483578E-03
   maximum displ.:     0.0947169 α      in ANC's #12, #11, #9, ...

........................................................................
.............................. CYCLE   31 ..............................
........................................................................

 iter      E             dE          RMSdq      gap      omega  full diag
   1   -100.7562522 -0.100756E+03  0.295E-02    0.90       0.0  T
   2   -100.7562534 -0.118409E-05  0.174E-02    0.91       1.0  T
   3   -100.7562502  0.316312E-05  0.668E-03    0.90       1.8  T
   4   -100.7562539 -0.370018E-05  0.142E-03    0.90       8.3  T
   5   -100.7562539 -0.173078E-07  0.135E-03    0.91       8.7  T
   6   -100.7562541 -0.140641E-06  0.714E-04    0.90      16.5  T
   7   -100.7562541 -0.351758E-07  0.186E-04    0.91      63.5  T
     SCC iter.                  ...        0 min,  0.057 sec
     gradient                   ...        0 min,  0.069 sec
 * total energy  :  -102.0213732 Eh     change       -0.2812917E-03 Eh
   gradient norm :     0.0119314 Eh/α   predicted    -0.1838555E-03 ( -34.64%)
   displ. norm   :     0.4235957 α      lambda       -0.5475672E-03
   maximum displ.:     0.1721731 α      in ANC's #12, #9, #8, ...

........................................................................
.............................. CYCLE   32 ..............................
........................................................................

 iter      E             dE          RMSdq      gap      omega  full diag
   1   -100.7571254 -0.100757E+03  0.608E-02    0.90       0.0  T
   2   -100.7571267 -0.135406E-05  0.352E-02    0.90       1.0  T
   3   -100.7570777  0.489835E-04  0.231E-02    0.92       1.0  T
   4   -100.7571152 -0.374743E-04  0.114E-02    0.89       1.0  T
   5   -100.7571287 -0.135160E-04  0.184E-03    0.90       6.4  T
   6   -100.7571289 -0.153494E-06  0.708E-04    0.90      16.6  T
   7   -100.7571289 -0.173196E-07  0.217E-04    0.90      54.4  T
     SCC iter.                  ...        0 min,  0.057 sec
     gradient                   ...        0 min,  0.069 sec
 * total energy  :  -102.0217240 Eh     change       -0.3507998E-03 Eh
   gradient norm :     0.0208388 Eh/α   predicted    -0.3229458E-03 (  -7.94%)
   displ. norm   :     0.3112243 α      lambda       -0.2948123E-03
   maximum displ.:     0.1293188 α      in ANC's #9, #11, #12, ...

........................................................................
.............................. CYCLE   33 ..............................
........................................................................

 iter      E             dE          RMSdq      gap      omega  full diag
   1   -100.7587211 -0.100759E+03  0.416E-02    0.90       0.0  T
   2   -100.7587219 -0.767287E-06  0.243E-02    0.90       1.0  T
   3   -100.7586875  0.343478E-04  0.185E-02    0.88       1.0  T
   4   -100.7587154 -0.278605E-04  0.882E-03    0.90       1.3  T
   5   -100.7587231 -0.768780E-05  0.136E-03    0.90       8.6  T
   6   -100.7587232 -0.671358E-07  0.623E-04    0.90      18.9  T
   7   -100.7587232 -0.106908E-07  0.203E-04    0.90      58.0  T
     SCC iter.                  ...        0 min,  0.058 sec
     gradient                   ...        0 min,  0.069 sec
 * total energy  :  -102.0218920 Eh     change       -0.1680343E-03 Eh
   gradient norm :     0.0090643 Eh/α   predicted    -0.1616873E-03 (  -3.78%)
   displ. norm   :     0.2283186 α      lambda       -0.1462005E-03
   maximum displ.:     0.0873186 α      in ANC's #12, #8, #9, ...

........................................................................
.............................. CYCLE   34 ..............................
........................................................................

 iter      E             dE          RMSdq      gap      omega  full diag
   1   -100.7575426 -0.100758E+03  0.349E-02    0.90       0.0  T
   2   -100.7575434 -0.769139E-06  0.205E-02    0.89       1.0  T
   3   -100.7575173  0.260689E-04  0.182E-02    0.91       1.0  T
   4   -100.7575357 -0.183293E-04  0.887E-03    0.89       1.3  T
   5   -100.7575447 -0.901948E-05  0.164E-03    0.90       7.2  T
   6   -100.7575449 -0.205371E-06  0.545E-04    0.90      21.6  T
   7   -100.7575449 -0.973569E-08  0.168E-04    0.90      70.1  T
     SCC iter.                  ...        0 min,  0.058 sec
     gradient                   ...        0 min,  0.069 sec
 * total energy  :  -102.0219933 Eh     change       -0.1013656E-03 Eh
   gradient norm :     0.0063226 Eh/α   predicted    -0.7691217E-04 ( -24.12%)
   displ. norm   :     0.1430737 α      lambda       -0.1359397E-03
   maximum displ.:     0.0436101 α      in ANC's #8, #2, #9, ...

........................................................................
.............................. CYCLE   35 ..............................
........................................................................

 iter      E             dE          RMSdq      gap      omega  full diag
   1   -100.7588964 -0.100759E+03  0.266E-02    0.90       0.0  T
   2   -100.7588975 -0.108734E-05  0.164E-02    0.90       1.0  T
   3   -100.7588704  0.270095E-04  0.159E-02    0.88       1.0  T
   4   -100.7588872 -0.167504E-04  0.113E-02    0.90       1.0  T
   5   -100.7588993 -0.121118E-04  0.951E-04    0.90      12.4  T
   6   -100.7588994 -0.531950E-07  0.426E-04    0.90      27.6  T
   7   -100.7588994 -0.439384E-08  0.169E-04    0.90      69.5  T
     SCC iter.                  ...        0 min,  0.058 sec
     gradient                   ...        0 min,  0.069 sec
 * total energy  :  -102.0220830 Eh     change       -0.8962175E-04 Eh
   gradient norm :     0.0043064 Eh/α   predicted    -0.6937777E-04 ( -22.59%)
   displ. norm   :     0.1088210 α      lambda       -0.7090658E-04
   maximum displ.:     0.0330160 α      in ANC's #8, #2, #25, ...

........................................................................
.............................. CYCLE   36 ..............................
........................................................................

 iter      E             dE          RMSdq      gap      omega  full diag
   1   -100.7587176 -0.100759E+03  0.213E-02    0.90       0.0  T
   2   -100.7587180 -0.342598E-06  0.132E-02    0.90       1.0  T
   3   -100.7586944  0.236190E-04  0.147E-02    0.88       1.0  T
   4   -100.7587124 -0.180716E-04  0.877E-03    0.90       1.3  T
   5   -100.7587195 -0.707641E-05  0.637E-04    0.90      18.5  T
   6   -100.7587195 -0.203497E-07  0.324E-04    0.90      36.4  T
   7   -100.7587195 -0.244982E-08  0.139E-04    0.90      84.7  T
     SCC iter.                  ...        0 min,  0.058 sec
     gradient                   ...        0 min,  0.069 sec
 * total energy  :  -102.0221322 Eh     change       -0.4924276E-04 Eh
   gradient norm :     0.0044480 Eh/α   predicted    -0.3587454E-04 ( -27.15%)
   displ. norm   :     0.0992745 α      lambda       -0.5597173E-04
   maximum displ.:     0.0326605 α      in ANC's #2, #25, #21, ...

........................................................................
.............................. CYCLE   37 ..............................
........................................................................

 iter      E             dE          RMSdq      gap      omega  full diag
   1   -100.7588475 -0.100759E+03  0.175E-02    0.89       0.0  T
   2   -100.7588473  0.221343E-06  0.111E-02    0.90       1.1  T
   3   -100.7588229  0.244320E-04  0.156E-02    0.88       1.0  T
   4   -100.7588455 -0.225871E-04  0.614E-03    0.90       1.9  T
   5   -100.7588490 -0.353106E-05  0.555E-04    0.89      21.2  T
   6   -100.7588490 -0.101280E-07  0.312E-04    0.89      37.7  T
   7   -100.7588490 -0.377578E-08  0.908E-05    0.89     129.8  T
     SCC iter.                  ...        0 min,  0.057 sec
     gradient                   ...        0 min,  0.069 sec
 * total energy  :  -102.0221707 Eh     change       -0.3847158E-04 Eh
   gradient norm :     0.0035410 Eh/α   predicted    -0.2826659E-04 ( -26.53%)
   displ. norm   :     0.1180848 α      lambda       -0.5010880E-04
   maximum displ.:     0.0373204 α      in ANC's #2, #5, #7, ...

   *** GEOMETRY OPTIMIZATION CONVERGED AFTER 37 ITERATIONS ***

------------------------------------------------------------------------
 total energy gain   :        -2.2983498 Eh    -1442.2363 kcal/mol
 total RMSD          :         1.0394121 a0        0.5500 Å
 total power (kW/mol):      -163.0896388 (step) -980.6258 (real)
------------------------------------------------------------------------

 ANCopt (total)                0 d,  0 h,  0 min,  6.154 sec
 optimizer setup                ...        0 min,  0.000 sec (  0.005%)
 model hessian                  ...        0 min,  0.112 sec (  1.817%)
 ANC generation                 ...        0 min,  0.013 sec (  0.212%)
 coordinate transformation      ...        0 min,  0.003 sec (  0.042%)
 single point calculation       ...        0 min,  5.971 sec ( 97.033%)
 optimization log               ...        0 min,  0.010 sec (  0.157%)
 hessian update                 ...        0 min,  0.002 sec (  0.040%)
 rational function              ...        0 min,  0.025 sec (  0.404%)

================
 final structure:
================
72
 xtb: 6.6.1 (8d0f1dd)
N           -1.70921797245785        2.85770526195263        2.05935513996254
C           -1.75986032715609        1.91166565013909        1.21580352579283
C           -2.98547587389616        1.80135217750354        0.31273553478810
C           -3.49735771812734        0.37444483065773        0.32389514639662
C           -4.40293373348212       -0.05068041993154       -0.64799707832422
C           -4.93200258712939       -1.33138161726774       -0.63653755395709
O           -5.82233972163193       -1.81351585883541       -1.52340615614059
C           -6.34238759049664       -0.96092872876305       -2.51611545443131
C           -4.53465289004954       -2.24363934807840        0.38151050252605
O           -5.09165948086100       -3.46541863235862        0.31149467546950
C           -4.80088372486742       -4.41412482037551        1.31178866821093
C           -3.63719249182861       -1.81199159582144        1.34690433478876
C           -3.13208570883410       -0.52011663713431        1.32154026197197
C           -2.40982720491972        2.15513530100712       -1.12260420120251
C           -1.51883682912578        1.11905578097008       -1.64784423232431
C           -0.05663803525176        1.14254771606206       -1.43731729720433
N            0.42947862701140        0.14946291616041       -0.47385896308365
C            1.83930272591127        0.24257546564472       -0.18492735043222
C            2.78834835955797       -0.22157656497102       -1.31463015615189
C            4.21372308542709       -0.04460944730873       -0.89047765772497
C            4.87643355760649        1.15488061331734       -1.11860220879427
C            6.18595273843355        1.33549543944925       -0.70638688541145
C            6.86589334963842        0.31870596271244       -0.04743723444615
O            8.13264352347366        0.37817488112191        0.39463290976860
C            8.88839645360423        1.54784190038101        0.17796005616909
C            6.19377220254241       -0.91391475240142        0.19791873272893
O            6.92529581333000       -1.84268896480996        0.83927354656926
C            6.36213948093216       -3.10389903778650        1.11264950184008
C            4.88216757186905       -1.06939105126521       -0.22561873400817
C           -0.07096692405800       -1.18873128590439       -0.68139898129389
C           -4.16402017235297        2.74732519711052        0.65842601417334
C           -4.67748710698276        2.47196997146157        2.07084284322424
C           -3.83465135422527        4.22866764435874        0.50725100099867
H           -4.70756572189315        0.63498063329590       -1.42113329182911
H           -6.84435233737290       -0.09380797425957       -2.07607282385274
H           -7.06950341264198       -1.55800402544511       -3.06289760365369
H           -5.56215807488912       -0.62288511327969       -3.20546740995120
H           -5.10494524691988       -4.05830214411436        2.30062894976563
H           -5.37969096258239       -5.29868113026017        1.05262483832537
H           -3.73660609716989       -4.66859533618980        1.32590137774922
H           -3.33076220998499       -2.47659793050499        2.13820237346378
H           -2.46202114508709       -0.21712222521069        2.11079332557589
H           -3.26686250771657        2.29515281021638       -1.78244016117768
H           -1.88022625894743        3.10341060683578       -1.02016920382794
H           -1.23141686287594        1.40672004911923        1.08085892134068
H           -1.94427359317687        0.27823457086723       -2.16799497987750
H            0.25818566502424        2.12380163150508       -1.06544097062030
H            0.42732038528629        0.97236322586257       -2.41827939906679
H            2.03344279783156       -0.36343183283056        0.70447283400994
H            2.06664480960918        1.28345748293581        0.06021953582693
H            2.59625137042482        0.37286750175535       -2.20937024124448
H            2.59069168844609       -1.27017935678262       -1.54041353811372
H            4.37192330522104        1.95807462249296       -1.63379619574798
H            6.67516665924131        2.27490390837132       -0.90574831146363
H            8.44021490570396        2.41232558736933        0.67685263776727
H            9.00061726138891        1.75893129996489       -0.88956130060195
H            9.86629209948622        1.34762056677580        0.61163672424396
H            7.14524560292148       -3.67070104832659        1.61254773109416
H            5.49586901099487       -3.02038668303274        1.77644451775677
H            6.07116151703895       -3.62101571103735        0.19336005581997
H            4.36784410333902       -2.00153815709920       -0.05099685887033
H            0.12613110993880       -1.56877398712093       -1.69169321814985
H           -1.14936990033542       -1.19225963563658       -0.51376930974183
H            0.39405883807925       -1.85736277249947        0.04071000139822
H           -4.97153599761085        2.50567559976099       -0.04262723281931
H           -3.92327249056598        2.75185181568752        2.80009293109974
H           -4.92553425537683        1.42113885755392        2.20069028301810
H           -5.57170044615063        3.06101618269136        2.25564521263921
H           -2.99548969195077        4.49144774529303        1.14366954351669
H           -3.60440865037146        4.49076536771030       -0.52215983649692
H           -4.69573279710642        4.81653945616878        0.81408457907160
H           -0.86618691385686        2.92210711689826        2.62303810577710

 Bond Distances (Angstroems)
 ---------------------------
N1-C2=1.2685         N1-H72=1.0162        C2-N1=1.2685         C2-C3=1.5264         C2-H45=0.7433        C3-C2=1.5264         
C3-C4=1.5160         C3-C14=1.5864        C3-C31=1.5503        C4-C3=1.5160         C4-C5=1.3948         C4-C13=1.3889        
C5-C4=1.3948         C5-C6=1.3857         C5-H34=1.0773        C6-C5=1.3857         C6-O7=1.3460         C6-C9=1.4236         
O7-C6=1.3460         O7-C8=1.4081         C8-O7=1.4081         C8-H35=1.0943        C8-H36=1.0882        C8-H37=1.0946        
C9-C6=1.4236         C9-O10=1.3446        C9-C12=1.3870        O10-C9=1.3446        O10-C11=1.4090       C11-O10=1.4090       
C11-H38=1.0940       C11-H39=1.0884       C11-H40=1.0944       C12-C9=1.3870        C12-C13=1.3873       C12-H41=1.0778       
C13-C4=1.3889        C13-C12=1.3873       C13-H42=1.0788       C14-C3=1.5864        C14-C15=1.4640       C14-H43=1.0906       
C14-H44=1.0910       C15-C14=1.4640       C15-C16=1.4775       C15-H46=1.0764       C16-C15=1.4775       C16-N17=1.4666       
C16-H47=1.0956       C16-H48=1.1070       N17-C16=1.4666       N17-C18=1.4421       N17-C30=1.4437       C18-N17=1.4421       
C18-C19=1.5467       C18-H49=1.0936       C18-H50=1.0933       C19-C18=1.5467       C19-C20=1.4976       C19-H51=1.0912       
C19-H52=1.0907       C20-C19=1.4976       C20-C21=1.3892       C20-C29=1.3925       C21-C20=1.3892       C21-C22=1.3847       
C21-H53=1.0794       C22-C21=1.3847       C22-C23=1.3894       C22-H54=1.0778       C23-C22=1.3894       C23-O24=1.3430       
C23-C26=1.4252       O24-C23=1.3430       O24-C25=1.4093       C25-O24=1.4093       C25-H55=1.0941       C25-H56=1.0940       
C25-H57=1.0883       C26-C23=1.4252       C26-O27=1.3450       C26-C29=1.3870       O27-C26=1.3450       O27-C28=1.4080       
C28-O27=1.4080       C28-H58=1.0883       C28-H59=1.0945       C28-H60=1.0942       C29-C20=1.3925       C29-C26=1.3870       
C29-H61=1.0789       C30-N17=1.4437       C30-H62=1.0973       C30-H63=1.0914       C30-H64=1.0885       C31-C3=1.5503        
C31-C32=1.5279       C31-C33=1.5250       C31-H65=1.0963       C32-C31=1.5279       C32-H66=1.0858       C32-H67=1.0875       
C32-H68=1.0866       C33-C31=1.5250       C33-H69=1.0855       C33-H70=1.0869       C33-H71=1.0868       H34-C5=1.0773        
H35-C8=1.0943        H36-C8=1.0882        H37-C8=1.0946        H38-C11=1.0940       H39-C11=1.0884       H40-C11=1.0944       
H41-C12=1.0778       H42-C13=1.0788       H43-C14=1.0906       H44-C14=1.0910       H45-C2=0.7433        H46-C15=1.0764       
H47-C16=1.0956       H48-C16=1.1070       H49-C18=1.0936       H50-C18=1.0933       H51-C19=1.0912       H52-C19=1.0907       
H53-C21=1.0794       H54-C22=1.0778       H55-C25=1.0941       H56-C25=1.0940       H57-C25=1.0883       H58-C28=1.0883       
H59-C28=1.0945       H60-C28=1.0942       H61-C29=1.0789       H62-C30=1.0973       H63-C30=1.0914       H64-C30=1.0885       
H65-C31=1.0963       H66-C32=1.0858       H67-C32=1.0875       H68-C32=1.0866       H69-C33=1.0855       H70-C33=1.0869       
H71-C33=1.0868       H72-N1=1.0162        
 C  H  Rav=1.0801 sigma=0.0558  Rmin=0.7433  Rmax=1.1070    38
 C  C  Rav=1.4524 sigma=0.0681  Rmin=1.3847  Rmax=1.5864    22
 N  H  Rav=1.0162 sigma=0.0000  Rmin=1.0162  Rmax=1.0162     1
 N  C  Rav=1.4052 sigma=0.0795  Rmin=1.2685  Rmax=1.4666     4
 O  C  Rav=1.3766 sigma=0.0320  Rmin=1.3430  Rmax=1.4093     8

 selected bond angles (degree)
 --------------------
H72-N1-C2=116.70               C3-C2-N1=118.65                H45-C2-N1=126.80               H45-C2-C3=114.48               
C4-C3-C2=109.56                C14-C3-C2=103.17               C14-C3-C4=109.82               C31-C3-C2=115.75               
C31-C3-C4=108.42               C31-C3-C14=109.97              C5-C4-C3=120.07                C13-C4-C3=121.52               
C13-C4-C5=118.36               C6-C5-C4=121.59                H34-C5-C4=119.32               H34-C5-C6=119.09               
O7-C6-C5=125.32                C9-C6-C5=119.45                C9-C6-O7=115.23                C8-O7-C6=119.47                
H35-C8-O7=111.45               H36-C8-O7=105.59               H36-C8-H35=109.29              H37-C8-O7=111.57               
H37-C8-H35=109.60              H37-C8-H36=109.22              O10-C9-C6=115.43               C12-C9-C6=118.62               
C12-C9-O10=125.95              C11-O10-C9=119.30              

 selected dihedral angles (degree)
 ---------------------------------
C3-C2-N1-H72=182.04           H45-C2-N1-H72=358.70          C4-C3-C2-N1=228.31            C4-C3-C2-H45= 51.25           
C14-C3-C2-N1=111.39           C14-C3-C2-H45=294.33          C31-C3-C2-N1=351.24           C31-C3-C2-H45=174.19          
C5-C4-C3-C2=194.95            C5-C4-C3-C14=307.60           C5-C4-C3-C31= 67.78           C13-C4-C3-C2= 17.85           
C13-C4-C3-C14=130.50          C13-C4-C3-C31=250.68          C6-C5-C4-C3=182.61            C6-C5-C4-C13=359.80           
H34-C5-C4-C3=  1.96           H34-C5-C4-C13=179.15          O7-C6-C5-C4=179.03            O7-C6-C5-H34=359.68           
C9-C6-C5-C4=359.34            C9-C6-C5-H34=179.99           C8-O7-C6-C5=356.20            C8-O7-C6-C9=175.90            
H35-C8-O7-C6=301.65           H36-C8-O7-C6=183.09           H37-C8-O7-C6= 64.54           O10-C9-C6-C5=180.35           
O10-C9-C6-O7=  0.63           C12-C9-C6-C5=  0.85           C12-C9-C6-O7=181.13           C11-O10-C9-C6=182.75          
C11-O10-C9-C12=  2.21         
           -------------------------------------------------
          |                Final Singlepoint                |
           -------------------------------------------------

          ...................................................
          :                      SETUP                      :
          :.................................................:
          :  # basis functions                 171          :
          :  # atomic orbitals                 171          :
          :  # shells                          105          :
          :  # electrons                       180          :
          :  max. iterations                   250          :
          :  Hamiltonian                  GFN2-xTB          :
          :  restarted?                      false          :
          :  GBSA solvation                  false          :
          :  PC potential                    false          :
          :  electronic temp.         5000.0000000     K    :
          :  accuracy                    1.0000000          :
          :  -> integral cutoff          0.2500000E+02      :
          :  -> integral neglect         0.1000000E-07      :
          :  -> SCF convergence          0.1000000E-05 Eh   :
          :  -> wf. convergence          0.1000000E-03 e    :
          :  Broyden damping             0.4000000          :
          ...................................................

 iter      E             dE          RMSdq      gap      omega  full diag
   1   -100.7588490 -0.100759E+03  0.403E-05    0.89       0.0  T
   2   -100.7588490  0.264691E-09  0.569E-05    0.89     207.0  T
   3   -100.7588490 -0.299622E-09  0.304E-05    0.89     388.2  T

   *** convergence criteria satisfied after 3 iterations ***

         #    Occupation            Energy/Eh            Energy/eV
      -------------------------------------------------------------
         1        2.0000           -0.8149581             -22.1761
       ...           ...                  ...                  ...
        84        1.9914           -0.5149226             -14.0118
        85        1.9684           -0.4941919             -13.4476
        86        1.9664           -0.4932290             -13.4214
        87        1.8802           -0.4723808             -12.8541
        88        1.8607           -0.4698192             -12.7844
        89        1.7960           -0.4632254             -12.6050
        90        1.7123           -0.4570218             -12.4362 (HOMO)
        91        0.8544           -0.4241364             -11.5413 (LUMO)
        92        0.0109           -0.3463316              -9.4242
        93        0.0021           -0.3202036              -8.7132
        94        0.0018           -0.3175807              -8.6418
        95        0.0016           -0.3157673              -8.5925
       ...           ...                  ...                  ...
       171                          1.4955473              40.6959
      -------------------------------------------------------------
                  HL-Gap            0.0328854 Eh            0.8949 eV
             Fermi-level           -0.4287797 Eh          -11.6677 eV

 SCC (total)                   0 d,  0 h,  0 min,  0.117 sec
 SCC setup                      ...        0 min,  0.001 sec (  0.761%)
 Dispersion                     ...        0 min,  0.002 sec (  1.349%)
 classical contributions        ...        0 min,  0.000 sec (  0.373%)
 integral evaluation            ...        0 min,  0.018 sec ( 15.171%)
 iterations                     ...        0 min,  0.026 sec ( 22.300%)
 molecular gradient             ...        0 min,  0.069 sec ( 59.478%)
 printout                       ...        0 min,  0.001 sec (  0.557%)

         :::::::::::::::::::::::::::::::::::::::::::::::::::::
         ::                     SUMMARY                     ::
         :::::::::::::::::::::::::::::::::::::::::::::::::::::
         :: total energy            -102.022170686454 Eh    ::
         :: gradient norm              0.003540198262 Eh/a0 ::
         :: HOMO-LUMO gap              0.894856952851 eV    ::
         ::.................................................::
         :: SCC energy              -100.758849018609 Eh    ::
         :: -> isotropic ES            0.103928655696 Eh    ::
         :: -> anisotropic ES          0.005350487236 Eh    ::
         :: -> anisotropic XC          0.044168467252 Eh    ::
         :: -> dispersion             -0.075133689784 Eh    ::
         :: repulsion energy           1.549720650114 Eh    ::
         :: add. restraining          -2.814261097292 Eh    ::
         :: total charge               1.000000000000 e     ::
         :::::::::::::::::::::::::::::::::::::::::::::::::::::

           -------------------------------------------------
          |                Property Printout                |
           -------------------------------------------------

    * Orbital Energies and Occupations

         #    Occupation            Energy/Eh            Energy/eV
      -------------------------------------------------------------
         1        2.0000           -0.8149581             -22.1761
       ...           ...                  ...                  ...
        78        1.9971           -0.5324975             -14.4900
        79        1.9969           -0.5313890             -14.4598
        80        1.9958           -0.5263933             -14.3239
        81        1.9947           -0.5227458             -14.2246
        82        1.9936           -0.5196219             -14.1396
        83        1.9925           -0.5172164             -14.0742
        84        1.9914           -0.5149226             -14.0118
        85        1.9684           -0.4941919             -13.4476
        86        1.9664           -0.4932290             -13.4214
        87        1.8802           -0.4723808             -12.8541
        88        1.8607           -0.4698192             -12.7844
        89        1.7960           -0.4632254             -12.6050
        90        1.7123           -0.4570218             -12.4362 (HOMO)
        91        0.8544           -0.4241364             -11.5413 (LUMO)
        92        0.0109           -0.3463316              -9.4242
        93        0.0021           -0.3202036              -8.7132
        94        0.0018           -0.3175807              -8.6418
        95        0.0016           -0.3157673              -8.5925
        96        0.0014           -0.3138673              -8.5408
        97        0.0000           -0.1952527              -5.3131
        98        0.0000           -0.1912796              -5.2050
        99                         -0.0948897              -2.5821
       100                         -0.0686687              -1.8686
       101                         -0.0650545              -1.7702
       ...                                ...                  ...
       171                          1.4955473              40.6959
      -------------------------------------------------------------
                  HL-Gap            0.0328854 Eh            0.8949 eV
             Fermi-level           -0.4287797 Eh          -11.6677 eV

     #   Z          covCN         q      C6AA      α(0)
     1   7 N        1.776    -0.276    27.990     7.835
     2   6 C        2.831     0.074    26.347     8.411
     3   6 C        3.906     0.011    20.336     6.410
     4   6 C        2.973     0.004    27.933     8.669
     5   6 C        2.920    -0.076    29.907     8.968
     6   6 C        2.862     0.133    25.079     8.209
     7   8 O        1.706    -0.221    17.669     5.675
     8   6 C        3.645     0.026    20.478     6.504
     9   6 C        2.864     0.133    25.087     8.210
    10   8 O        1.706    -0.219    17.631     5.669
    11   6 C        3.645     0.024    20.499     6.507
    12   6 C        2.913    -0.070    29.733     8.942
    13   6 C        2.921    -0.047    29.163     8.856
    14   6 C        3.809    -0.061    21.663     6.625
    15   6 C        2.887    -0.051    29.260     8.868
    16   6 C        3.749     0.001    20.627     6.478
    17   7 N        2.724    -0.130    23.809     7.247
    18   6 C        3.752    -0.002    20.668     6.483
    19   6 C        3.806    -0.070    21.838     6.652
    20   6 C        2.968     0.009    27.819     8.651
    21   6 C        2.922    -0.044    29.087     8.844
    22   6 C        2.912    -0.065    29.616     8.924
    23   6 C        2.864     0.136    25.027     8.200
    24   8 O        1.706    -0.213    17.543     5.655
    25   6 C        3.645     0.023    20.525     6.511
    26   6 C        2.862     0.136    25.027     8.200
    27   8 O        1.706    -0.217    17.600     5.664
    28   6 C        3.645     0.025    20.490     6.506
    29   6 C        2.919    -0.076    29.900     8.967
    30   6 C        3.699    -0.046    21.560     6.641
    31   6 C        3.853    -0.007    20.664     6.465
    32   6 C        3.756    -0.117    22.803     6.809
    33   6 C        3.755    -0.123    22.909     6.825
    34   1 H        0.926     0.055     2.256     2.349
    35   1 H        0.924     0.056     2.247     2.344
    36   1 H        0.925     0.084     1.937     2.176
    37   1 H        0.924     0.052     2.294     2.369
    38   1 H        0.924     0.058     2.220     2.330
    39   1 H        0.925     0.084     1.936     2.176
    40   1 H        0.924     0.054     2.271     2.357
    41   1 H        0.926     0.058     2.225     2.332
    42   1 H        0.926     0.048     2.346     2.395
    43   1 H        0.924     0.070     2.085     2.258
    44   1 H        0.924     0.067     2.117     2.275
    45   1 H        0.931     0.094     1.836     2.119
    46   1 H        0.926     0.050     2.318     2.381
    47   1 H        0.924     0.055     2.263     2.352
    48   1 H        0.922     0.058     2.224     2.332
    49   1 H        0.924     0.054     2.274     2.358
    50   1 H        0.924     0.049     2.326     2.385
    51   1 H        0.924     0.049     2.327     2.386
    52   1 H        0.924     0.052     2.300     2.372
    53   1 H        0.926     0.052     2.298     2.370
    54   1 H        0.926     0.062     2.180     2.309
    55   1 H        0.924     0.059     2.216     2.328
    56   1 H        0.924     0.060     2.202     2.320
    57   1 H        0.925     0.085     1.925     2.170
    58   1 H        0.925     0.084     1.934     2.175
    59   1 H        0.924     0.054     2.275     2.359
    60   1 H        0.924     0.057     2.240     2.341
    61   1 H        0.926     0.053     2.282     2.362
    62   1 H        0.924     0.043     2.412     2.429
    63   1 H        0.924     0.054     2.270     2.356
    64   1 H        0.925     0.056     2.251     2.346
    65   1 H        0.924     0.042     2.425     2.435
    66   1 H        0.925     0.068     2.106     2.270
    67   1 H        0.925     0.037     2.490     2.468
    68   1 H        0.925     0.055     2.257     2.350
    69   1 H        0.925     0.072     2.061     2.245
    70   1 H        0.925     0.040     2.443     2.444
    71   1 H        0.925     0.058     2.228     2.334
    72   1 H        0.860     0.158     1.351     1.821

 Mol. C6AA /au·bohr⁶  :      47428.052334
 Mol. C8AA /au·bohr⁸  :    1081615.503627
 Mol. α(0) /au        :        334.360010


Wiberg/Mayer (AO) data.
largest (>0.10) Wiberg bond orders for each atom

 ---------------------------------------------------------------------------
     #   Z sym  total        # sym  WBO       # sym  WBO       # sym  WBO
 ---------------------------------------------------------------------------
     1   7 N    2.959 --     2 C    1.926    72 H    0.939
     2   6 C    3.936 --     1 N    1.926     3 C    0.978    45 H    0.965
     3   6 C    3.889 --     4 C    0.984     2 C    0.978    31 C    0.951
                            14 C    0.862
     4   6 C    3.932 --    13 C    1.398     5 C    1.375     3 C    0.984
     5   6 C    3.952 --     6 C    1.394     4 C    1.375    34 H    0.956
     6   6 C    3.889 --     5 C    1.394     9 C    1.211     7 O    1.109
     7   8 O    2.252 --     6 C    1.109     8 C    0.976
     8   6 C    3.928 --     7 O    0.976    36 H    0.976    35 H    0.972
                            37 H    0.972
     9   6 C    3.883 --    12 C    1.382     6 C    1.211    10 O    1.113
    10   8 O    2.251 --     9 C    1.113    11 C    0.975
    11   6 C    3.926 --    39 H    0.976    10 O    0.975    40 H    0.972
                            38 H    0.972
    12   6 C    3.953 --    13 C    1.413     9 C    1.382    41 H    0.963
    13   6 C    3.936 --    12 C    1.413     4 C    1.398    42 H    0.962
    14   6 C    3.976 --    15 C    1.114    44 H    0.957    43 H    0.948
                             3 C    0.862
    15   6 C    3.240 --    14 C    1.114    16 C    1.069    46 H    0.970
    16   6 C    3.972 --    15 C    1.069    17 N    0.965    47 H    0.965
                            48 H    0.920
    17   7 N    3.077 --    30 C    1.017    18 C    1.015    16 C    0.965
    18   6 C    3.962 --    17 N    1.015    50 H    0.969    49 H    0.964
                            19 C    0.955
    19   6 C    3.968 --    20 C    1.018    52 H    0.970    51 H    0.967
                            18 C    0.955
    20   6 C    3.924 --    21 C    1.386    29 C    1.382    19 C    1.018
    21   6 C    3.924 --    22 C    1.428    20 C    1.386    53 H    0.967
    22   6 C    3.948 --    21 C    1.428    23 C    1.371    54 H    0.962
    23   6 C    3.868 --    22 C    1.371    26 C    1.206    24 O    1.120
    24   8 O    2.248 --    23 C    1.120    25 C    0.974
    25   6 C    3.923 --    57 H    0.976    24 O    0.974    56 H    0.971
                            55 H    0.971
    26   6 C    3.878 --    29 C    1.388    23 C    1.206    27 O    1.113
    27   8 O    2.250 --    26 C    1.113    28 C    0.976
    28   6 C    3.927 --    27 O    0.976    58 H    0.976    59 H    0.972
                            60 H    0.972
    29   6 C    3.948 --    26 C    1.388    20 C    1.382    61 H    0.961
    30   6 C    3.968 --    17 N    1.017    64 H    0.980    63 H    0.970
                            62 H    0.965
    31   6 C    3.964 --    33 C    1.008    32 C    1.001    65 H    0.956
                             3 C    0.951
    32   6 C    3.969 --    31 C    1.001    67 H    0.981    68 H    0.979
                            66 H    0.973
    33   6 C    3.970 --    31 C    1.008    70 H    0.980    71 H    0.977
                            69 H    0.969
    34   1 H    0.995 --     5 C    0.956
    35   1 H    0.991 --     8 C    0.972
    36   1 H    0.992 --     8 C    0.976
    37   1 H    0.991 --     8 C    0.972
    38   1 H    0.990 --    11 C    0.972
    39   1 H    0.992 --    11 C    0.976
    40   1 H    0.991 --    11 C    0.972
    41   1 H    0.994 --    12 C    0.963
    42   1 H    0.997 --    13 C    0.962
    43   1 H    0.979 --    14 C    0.948
    44   1 H    0.984 --    14 C    0.957
    45   1 H    0.978 --     2 C    0.965
    46   1 H    0.997 --    15 C    0.970
    47   1 H    0.994 --    16 C    0.965
    48   1 H    0.949 --    16 C    0.920
    49   1 H    0.989 --    18 C    0.964
    50   1 H    0.995 --    18 C    0.969
    51   1 H    0.995 --    19 C    0.967
    52   1 H    0.995 --    19 C    0.970
    53   1 H    0.996 --    21 C    0.967
    54   1 H    0.994 --    22 C    0.962
    55   1 H    0.989 --    25 C    0.971
    56   1 H    0.989 --    25 C    0.971
    57   1 H    0.992 --    25 C    0.976
    58   1 H    0.992 --    28 C    0.976
    59   1 H    0.990 --    28 C    0.972
    60   1 H    0.990 --    28 C    0.972
    61   1 H    0.995 --    29 C    0.961
    62   1 H    0.980 --    30 C    0.965
    63   1 H    0.991 --    30 C    0.970
    64   1 H    0.996 --    30 C    0.980
    65   1 H    0.987 --    31 C    0.956
    66   1 H    0.989 --    32 C    0.973
    67   1 H    0.996 --    32 C    0.981
    68   1 H    0.992 --    32 C    0.979
    69   1 H    0.988 --    33 C    0.969
    70   1 H    0.995 --    33 C    0.980
    71   1 H    0.991 --    33 C    0.977
    72   1 H    0.965 --     1 N    0.939
 ---------------------------------------------------------------------------

Topologies differ in total number of bonds
Writing topology from bond orders to xtbtopo.mol

molecular dipole:
                 x           y           z       tot (Debye)
 q only:        0.449       0.106      -0.291
   full:        0.810      -0.159      -0.572       2.553
molecular quadrupole (traceless):
                xx          xy          yy          xz          yz          zz
 q only:       66.879       6.206     -20.780       4.760     -11.100     -46.099
  q+dip:       62.833      10.064     -21.261       6.112     -13.430     -41.572
   full:       62.387       9.731     -22.013       3.632     -13.875     -40.374

           -------------------------------------------------
          |                Geometry Summary                 |
           -------------------------------------------------

      molecular mass/u    :      455.6105846
   center of mass at/Å    :       -0.0197523       0.0035376      -0.0110438
  moments of inertia/u·Å² :        0.2428373E+04   0.1099259E+05   0.1221744E+05
rotational constants/cm⁻¹ :        0.6941945E-02   0.1533545E-02   0.1379801E-02

 * 66 selected distances

     #   Z          #   Z                                           value/Å
     1   7 N        2   6 C                                       1.2685169
     4   6 C        5   6 C                                       1.3947667
     5   6 C        6   6 C                                       1.3857276
     6   6 C        7   8 O                                       1.3459903
     7   8 O        8   6 C                                       1.4081288
     6   6 C        9   6 C                                       1.4235600
     9   6 C       10   8 O                                       1.3445830
    10   8 O       11   6 C                                       1.4089650
     9   6 C       12   6 C                                       1.3869897
     4   6 C       13   6 C                                       1.3888700
    12   6 C       13   6 C                                       1.3873419
    14   6 C       15   6 C                                       1.4639679
    15   6 C       16   6 C                                       1.4774638
    16   6 C       17   7 N                                       1.4665535
    17   7 N       18   6 C                                       1.4421358
    20   6 C       21   6 C                                       1.3892454
    21   6 C       22   6 C                                       1.3846964
    22   6 C       23   6 C                                       1.3893866
    23   6 C       24   8 O                                       1.3429888
    24   8 O       25   6 C                                       1.4093371
    23   6 C       26   6 C                                       1.4252370
    26   6 C       27   8 O                                       1.3450222
    27   8 O       28   6 C                                       1.4080237
    20   6 C       29   6 C                                       1.3924917
    26   6 C       29   6 C                                       1.3870342
    17   7 N       30   6 C                                       1.4437045
    31   6 C       32   6 C                                       1.5278712 (max)
    31   6 C       33   6 C                                       1.5250290
     5   6 C       34   1 H                                       1.0773447
     8   6 C       35   1 H                                       1.0943056
     8   6 C       36   1 H                                       1.0881945
     8   6 C       37   1 H                                       1.0946405
    11   6 C       38   1 H                                       1.0940149
    11   6 C       39   1 H                                       1.0884042
    11   6 C       40   1 H                                       1.0943681
    12   6 C       41   1 H                                       1.0778469
    13   6 C       42   1 H                                       1.0787552
    14   6 C       43   1 H                                       1.0906412
    14   6 C       44   1 H                                       1.0909612
     2   6 C       45   1 H                                       0.7432582 (min)
    15   6 C       46   1 H                                       1.0763521
    16   6 C       47   1 H                                       1.0955663
    16   6 C       48   1 H                                       1.1070074
    18   6 C       49   1 H                                       1.0936033
    18   6 C       50   1 H                                       1.0932598
    19   6 C       51   1 H                                       1.0912493
    19   6 C       52   1 H                                       1.0906944
    21   6 C       53   1 H                                       1.0793870
    22   6 C       54   1 H                                       1.0777587
    25   6 C       55   1 H                                       1.0941173
    25   6 C       56   1 H                                       1.0939627
    25   6 C       57   1 H                                       1.0883217
    28   6 C       58   1 H                                       1.0883098
    28   6 C       59   1 H                                       1.0945423
    28   6 C       60   1 H                                       1.0941532
    29   6 C       61   1 H                                       1.0788512
    30   6 C       62   1 H                                       1.0972578
    30   6 C       63   1 H                                       1.0913594
    30   6 C       64   1 H                                       1.0884662
    31   6 C       65   1 H                                       1.0963358
    32   6 C       66   1 H                                       1.0858082
    32   6 C       67   1 H                                       1.0874898
    32   6 C       68   1 H                                       1.0866209
    33   6 C       69   1 H                                       1.0854835
    33   6 C       70   1 H                                       1.0869194
    33   6 C       71   1 H                                       1.0868310

 * 4 distinct bonds (by element types)

   Z      Z             #   av. dist./Å        max./Å        min./Å
   1 H    6 C          38     1.0800643     1.1070074     0.7432582
   6 C    6 C          16     1.4206050     1.5278712     1.3846964
   6 C    7 N           4     1.4052277     1.4665535     1.2685169
   6 C    8 O           8     1.3766299     1.4093371     1.3429888


optimized geometry written to: xtbopt.xyz


           -------------------------------------------------
          | TOTAL ENERGY             -102.022170686454 Eh   |
          | GRADIENT NORM               0.003540198262 Eh/α |
          | HOMO-LUMO GAP               0.894856952851 eV   |
           -------------------------------------------------

------------------------------------------------------------------------
 * finished run on 2024/04/06 at 11:15:35.750     
------------------------------------------------------------------------
 total:
 * wall-time:     0 d,  0 h,  0 min,  6.505 sec
 *  cpu-time:     0 d,  0 h,  0 min,  6.484 sec
 * ratio c/w:     0.997 speedup
 SCF:
 * wall-time:     0 d,  0 h,  0 min,  0.189 sec
 *  cpu-time:     0 d,  0 h,  0 min,  0.189 sec
 * ratio c/w:     0.998 speedup
 ANC optimizer:
 * wall-time:     0 d,  0 h,  0 min,  6.275 sec
 *  cpu-time:     0 d,  0 h,  0 min,  6.270 sec
 * ratio c/w:     0.999 speedup

