25
 energy: -42.136806834438 gnorm: 0.003033142332 xtb: 6.6.1 (8d0f1dd)
C            3.45008109957738        2.01784715658569        0.01658387164789
N            2.76514676972557        0.75130154286282        0.01456886667366
C            3.31987257659595       -0.45397282124024        0.02167590957588
N            2.37089543446258       -1.40506901780114        0.01447847663722
C            1.14527213063386       -0.78883327104050        0.00249726984773
C            1.40821125462529        0.58831538857193        0.00221854952395
C            0.31045395946916        1.53140293698933       -0.00248655021384
O            0.42530445639922        2.74151269743692       -0.00033870018434
N           -0.91103819417607        0.88248126985299       -0.00824127954701
C           -2.10921532590680        1.69602295237361       -0.00775413828547
C           -1.12137697397374       -0.52487360284747       -0.01314155466431
O           -2.25558434351775       -0.94720031244243       -0.02189152755378
N           -0.03900511305482       -1.34266570960308       -0.00606806294106
C           -4.02897254492652       -4.14947890358312       -0.01482709433809
H            4.07430377716383        2.10968492524368        0.90562968483914
H            4.08158973692254        2.10835070884776       -0.86747095840989
H            2.70640853191466        2.81489078657237        0.01268557532813
H            4.37674305123987       -0.64223525602564        0.03224145742941
H           -1.81199272154069        2.74300580943273        0.01166174256288
H           -2.70112090201419        1.48634113925455       -0.90009418264262
H           -2.71831178347944        1.45695435483198        0.86522031928851
H           -4.27304799226171       -4.63098595802421        0.91556423032538
H           -4.27114475441010       -4.63232934303043       -0.94146489314725
H           -3.54887324719991       -3.18704470028209       -0.01845148162609
H            2.51583263184619       -2.40518423131461        0.01837608778880
