25
 energy: 0.000000000000 xtb: 6.6.1 (8d0f1dd)
C            3.23720132972391        1.16630909158653        0.08434468864950
N            2.29877796055224        0.07527476373246        0.03981602671198
C            2.58028186251803       -1.21425391179017        0.03006175752192
N            1.43813944744728       -1.93419254010258        0.00098261751768
C            0.39035684826767       -1.05887462812143       -0.00790371763344
C            0.93510047688824        0.21347817468824        0.01709077332874
C            0.09450143016486        1.40504290868848       -0.00410946993748
O            0.49712746915594        2.54126690785742       -0.00342325656480
N           -1.25076628431515        1.06271869620815       -0.03085477937476
C           -2.21907191394203        2.15522079838987       -0.05001256521996
C           -1.81739470187490       -0.20012724136556       -0.04692818139228
O           -2.99983858926755       -0.37846413507442       -0.07008877579474
N           -0.92618577614240       -1.30210203518959       -0.03682761236648
C           -1.46982251276835       -2.64643077634382       -0.06029819901142
H            3.71247229913541        1.21471443890471        1.06488839270555
H            4.00791460421487        1.03430799217987       -0.67357688121503
H            2.69909982127087        2.09770098766290       -0.09130154035862
H            3.56654087521359       -1.63682977417947        0.04233139674524
H           -1.67107945562430        3.09322822573871       -0.02552706696334
H           -2.82428927394145        2.09428605349656       -0.95318074103337
H           -2.87644002486466        2.07745706351925        0.81450059976605
H           -1.17061985538665       -3.19584861009707        0.83242224714061
H           -1.14560246782873       -3.17511580834413       -0.95688266944647
H           -2.55549768731684       -2.55659960601237       -0.07459039105944
H            1.38130842369251       -2.94313824728853       -0.01389874052104
25
 energy: -4.909770405797 xtb: 6.6.1 (8d0f1dd)
C            3.25894536538443        1.20200711447123        0.08718529480504
N            2.33758351112141        0.09743389208903        0.02942757933519
C            2.56700472077941       -1.29615906841604        0.03845551789568
N            1.35869719734973       -1.92504725235972        0.00481774084867
C            0.37441237684808       -1.01676990936757       -0.00787813222487
C            0.93505799419330        0.26209812964945        0.01206381362057
C            0.13308017958863        1.41543350797890       -0.00523899788066
O            0.47078995007317        2.59841267648853       -0.00181960838017
N           -1.27248103013165        1.04097593838726       -0.03363588760388
C           -2.21271398914414        2.14499257924639       -0.05127577706160
C           -1.84287979836627       -0.19735017947292       -0.05202229847573
O           -3.04026902456922       -0.38834058167745       -0.07663303066640
N           -0.95777545211008       -1.28606614247906       -0.03782072789669
C           -1.44937635697907       -2.64535119400817       -0.06064357444593
H            3.76388687040145        1.26091994927905        1.05628137261472
H            4.01387442903088        1.12060677696586       -0.69714063344671
H            2.72128177809572        2.14477127068001       -0.05322371534534
H            3.50169119725755       -1.80308076680972        0.04582094671039
H           -1.64324834781382        3.07221738992798       -0.02587732434974
H           -2.81615400155119        2.10684005937324       -0.95753753749402
H           -2.86822972607455        2.09075451828903        0.81698251654740
H           -1.13695061889732       -3.19246292412935        0.83220645143207
H           -1.10666240310891       -3.17287703666500       -0.95454169721698
H           -2.53635591323595       -2.59341022155952       -0.07758727422631
H            1.27528526021317       -2.92589565661816       -0.00815202623488
25
 energy: 2.109514943247 xtb: 6.6.1 (8d0f1dd)
C            3.26948462798618        1.22845658081907        0.09339142775366
N            2.35555205812141        0.08060198981828        0.07187654721906
C            2.52483265189353       -1.36530731161503        0.05545670707706
N            1.29107758797493       -1.91741802199849        0.00770190292925
C            0.34632221095636       -0.97716977900981       -0.00604707069393
C            0.95309181489493        0.28882271631025        0.02324659444880
C            0.14171978895385        1.43931180664193       -0.00289748411863
O            0.44604161481399        2.62953547492829        0.00156125470615
N           -1.27975171505357        1.03526697295754       -0.04121118854787
C           -2.20448501230714        2.14671047351086       -0.05463454170812
C           -1.87382055902067       -0.19641307402507       -0.05890109002831
O           -3.07060494804674       -0.38956846972862       -0.08444051299088
N           -0.98175030766345       -1.27212829128094       -0.03982079848976
C           -1.43114592875844       -2.64844748762289       -0.06019842319814
H            3.81208132987981        1.30444578485142        1.04203210108417
H            4.00521762068964        1.20120446439157       -0.71695598393008
H            2.73195874207546        2.18424193210286       -0.00845434116615
H            3.41864732921675       -1.95275654638372        0.04773490460982
H           -1.61959473626234        3.06197489850291       -0.02689325494698
H           -2.80584717717384        2.12008592014846       -0.96216979846573
H           -2.85790575016420        2.10338111875037        0.81600636362832
H           -1.10789259474206       -3.18890365454020        0.83343016260593
H           -1.07335905354569       -3.17215644387345       -0.95109660523653
H           -2.51868415619434       -2.63373792458457       -0.07893544440845
H            1.17534416955679       -2.91258647076680       -0.00475954543912
25
 energy: 12.908613971939 xtb: 6.6.1 (8d0f1dd)
C            3.27478110458555        1.26962308338248        0.09857488289868
N            2.36186350697595        0.09941396216352        0.12777699937700
C            2.50824872972464       -1.42582294742004        0.15387267855493
N            1.24406923272244       -1.90538365924777        0.02105706437431
C            0.32863080548286       -0.94208851186161       -0.00262063879635
C            0.96923203838802        0.31042318926165        0.04710038352726
C            0.11677678183035        1.44286398922743       -0.00026558923030
O            0.43073968181067        2.63465467398938        0.02018027840492
N           -1.27996116026935        1.04209563736701       -0.05062020630211
C           -2.19699614575828        2.15855004618381       -0.05742033571973
C           -1.89681715743402       -0.19551253193004       -0.06965956352176
O           -3.09398226907326       -0.38782663221384       -0.09849304391372
N           -0.99952789519108       -1.25694886877973       -0.04340645469093
C           -1.41093581310005       -2.65006448545153       -0.06230755241031
H            3.86148187099855        1.34729255587675        1.02057864642111
H            3.98566647863695        1.28046487442078       -0.74032184903570
H            2.73390215209820        2.23191680398612        0.04243057289827
H            3.34178923986789       -2.09750416540009        0.04826987666280
H           -1.59555852586708        3.05877525609576       -0.02533088813073
H           -2.79628136145676        2.14046164391529       -0.96572670492470
H           -2.84987164704015        2.12074379121479        0.81406990834016
H           -1.07698984110914       -3.18566332226506        0.83115810403786
H           -1.03741555520735       -3.16789031914609       -0.95096328608092
H           -2.49792162340102       -2.67500553809706       -0.08333970072269
H            1.08375584019497       -2.89437835970226        0.00657769585272
25
 energy: 29.748354528915 xtb: 6.6.1 (8d0f1dd)
C            3.26871481367892        1.32129291545913        0.10500317158516
N            2.35837917442300        0.14502569774370        0.16789416271257
C            2.50544064682790       -1.50362190938264        0.28532170630081
N            1.21570570864922       -1.89244818380171        0.06373690739560
C            0.31909074434816       -0.91280154056707        0.00766663640326
C            0.96957395748809        0.33838049185095        0.06300217974373
C            0.11526867710485        1.47973706635439        0.01458654413964
O            0.43650361309866        2.66233661151242        0.01949988719087
N           -1.25971490210227        1.05834653568334       -0.05298474421465
C           -2.18570716798613        2.16814589703738       -0.06021310947377
C           -1.88752642786499       -0.18339518958021       -0.08370621941084
O           -3.08931086144768       -0.36168330226499       -0.12440443947448
N           -1.00605266985401       -1.24764181614160       -0.05020566699425
C           -1.39262883368990       -2.65148376243443       -0.06169387954176
H            3.91146482066428        1.39157885272794        0.99159413815017
H            3.94973951211601        1.36820534799736       -0.76349984202442
H            2.72055277971563        2.28282203535783        0.10494787370813
H            3.25973889466300       -2.23832560683603        0.03516265875932
H           -1.57540779165645        3.05756061362864       -0.02807102541615
H           -2.78707669317602        2.15188819630621       -0.96697236911232
H           -2.83884638870964        2.13351739416201        0.81168102790076
H           -1.04980169041942       -3.17828204509302        0.83412523240886
H           -1.00597193975585       -3.16756783348156       -0.94643171543637
H           -2.47819494111349       -2.70954289502783       -0.08404961321125
H            0.99746933321012       -2.87009488931968        0.01217518129722
25
 energy: 65.978755126391 xtb: 6.6.1 (8d0f1dd)
C            3.25255554855183        1.42344523915214        0.09028497296310
N            2.32530453455430        0.32072910988490        0.14710913871460
C            2.50861946397876       -1.75547513656709        0.32786476909715
N            1.22330795786102       -1.92232153553693        0.12819637467311
C            0.35507064842096       -0.89244863334274        0.05247108950800
C            0.98509260846412        0.38234759645355        0.04533017405556
C            0.10122389413214        1.52067784253348       -0.01666948151099
O            0.41808596595292        2.69515578809655        0.01313958094352
N           -1.24611523343962        1.07094558063262       -0.05255413578969
C           -2.18015297539613        2.16949779638403       -0.06409645930477
C           -1.86019255451669       -0.18285779050306       -0.09432099666346
O           -3.06521185899310       -0.33849887389526       -0.14916765983590
N           -0.98400653893721       -1.23465567023224       -0.05040624426086
C           -1.36702565738130       -2.65019446805677       -0.06064522237016
H            3.95107711337509        1.40895689757036        0.93693807496561
H            3.90195227582865        1.46723748764019       -0.79905748671729
H            2.72807068752861        2.37655493133684        0.18309716514332
H            3.17319389952610       -2.51992409041456        0.02108166563937
H           -1.55817145028709        3.05076316634461       -0.02993707499062
H           -2.78019602154810        2.16441667783842       -0.96929982605013
H           -2.82878735799386        2.14740607685995        0.81079148965081
H           -1.02415161036129       -3.17721762841032        0.83539298118677
H           -0.97248666205420       -3.16550750752411       -0.94420801055909
H           -2.45187675471187       -2.73987012691187       -0.08768526776267
H            0.88639558173000       -2.86060823559424        0.00761635134291
25
 energy: 75.559659671312 xtb: 6.6.1 (8d0f1dd)
C            3.24163563482221        1.48228221598925        0.07698600799282
N            2.31653204424886        0.40281938591237        0.07929241202437
C            2.51243788602707       -1.89956784206465        0.21927422718960
N            1.23607398225061       -1.95223039990627        0.11076759091289
C            0.39114897414824       -0.88437487661139        0.05586264683593
C            0.99774904141633        0.41383477821938        0.03300647788979
C            0.09559731714690        1.55348002314906        0.00631874129989
O            0.41953134003393        2.72633919806708        0.02678337514589
N           -1.24778558513610        1.07834762965324       -0.04124289173786
C           -2.18261676088843        2.17548173952280       -0.06659525854391
C           -1.84550557065740       -0.19058460786599       -0.09297894831172
O           -3.05014141345590       -0.32947844897874       -0.16148087602596
N           -0.96345508743278       -1.23217997573972       -0.04333614074456
C           -1.34230242219979       -2.65413927987889       -0.06076409908279
H            3.99783055121581        1.40169700937628        0.86398252608176
H            3.83259600491949        1.54246898110205       -0.84323107761091
H            2.74189795488481        2.42248518761638        0.28277087319636
H            3.07783561999739       -2.74453869985094        0.04757945824188
H           -1.54079092498819        3.04356288743999       -0.03017569246016
H           -2.77126818343275        2.17970301815960       -0.97544353101402
H           -2.82522973009320        2.16459758972866        0.80925456174295
H           -0.99552758225216       -3.17784642699190        0.83644640043598
H           -0.93927906249085       -3.16360826966732       -0.94462960186594
H           -2.42578373362766       -2.77021185111938       -0.08933020552928
H            0.79422483783740       -2.85589331441717        0.04917893599346
25
 energy: 83.893787969582 xtb: 6.6.1 (8d0f1dd)
C            3.22677244704441        1.52855707102524        0.06237692829186
N            2.30237616227806        0.46318691433764        0.02220179849097
C            2.53312885177695       -2.03347782129834        0.15199794161515
N            1.26197582416418       -1.96801242731655        0.07280257936483
C            0.42857723290602       -0.88134215142146        0.03133872862605
C            0.99381149832665        0.43824632482209        0.01636815037866
C            0.09744660347612        1.57664656291531        0.00057385513352
O            0.40348950149402        2.75672543313182        0.01338637734302
N           -1.24646388122911        1.06991784058908       -0.04015302301511
C           -2.18276380631095        2.16455367212824       -0.06692206560069
C           -1.83186750187148       -0.21836346275740       -0.08563391164073
O           -3.03584963540013       -0.35925475230621       -0.15411753998344
N           -0.93279602577512       -1.23915156508602       -0.03601822844889
C           -1.30835088456711       -2.66400973588174       -0.06093140484297
H            4.03993049989760        1.39289584930742        0.77859240086821
H            3.74310823392957        1.60593649440290       -0.89315108276098
H            2.75994084620654        2.45627914170758        0.36491800498813
H            2.99439755105881       -2.93867278235776        0.03848843595166
H           -1.52562184558076        3.02651786083696       -0.03130297950642
H           -2.76555864527868        2.17100534802215       -0.97958009599556
H           -2.82378600274037        2.15790944876299        0.80814640205145
H           -0.95879434370737       -3.18403802314921        0.83687169532387
H           -0.89961506196995       -3.16642183200294       -0.94647260008359
H           -2.39011515785868       -2.79744636874378       -0.09184200470863
H            0.75623571097645       -2.83722613659054        0.02126731765486
25
 energy: 93.858747478424 xtb: 6.6.1 (8d0f1dd)
C            3.21548707002868        1.58104736103721        0.05779597788462
N            2.28979217366907        0.53089973126142        0.00372595257299
C            2.57036088030576       -2.19303440648025        0.13131268711078
N            1.31585219091129       -1.95716812519393        0.03812645611385
C            0.47363527500074       -0.87424937169967        0.01468485261851
C            0.98835492540171        0.47289775467247        0.00959372854681
C            0.10117597041468        1.59956431863231        0.00451548871271
O            0.42058405079663        2.77259444359522        0.02062100688604
N           -1.24560176040323        1.06147652539246       -0.03809247553704
C           -2.18882210375795        2.15028110864220       -0.06380796143781
C           -1.81426513087972       -0.24860373394225       -0.07507551760180
O           -3.01572427805327       -0.40260700320759       -0.13950078162471
N           -0.89382678611598       -1.24685043138460       -0.02587584753108
C           -1.28094108553983       -2.67213984450005       -0.06012641146692
H            4.07292189491840        1.40090347640094        0.70901700172102
H            3.65707571895066        1.65527623908897       -0.92886359237798
H            2.78098665632871        2.50470399985288        0.39668984162533
H            2.95126702614906       -3.12479878783972       -0.06489573906727
H           -1.52026814198344        3.01213378997218       -0.03668924166713
H           -2.77493924322453        2.14900771675164       -0.97472031860668
H           -2.82541232522367        2.14061025044157        0.81300369588454
H           -0.94045874930765       -3.18869038328954        0.84021574687857
H           -0.86497606489792       -3.16628807918814       -0.94529648955633
H           -2.36163685170166       -2.82371465203307       -0.10284840545341
H            0.76969404397499       -2.78777079135258        0.01147390488591
25
 energy: 109.359053194032 xtb: 6.6.1 (8d0f1dd)
C            3.21126970822246        1.63098018992914        0.05856134946062
N            2.27329271501736        0.59798336173059        0.04495140573534
C            2.56862319818514       -2.33245807333966       -0.00906634413500
N            1.35758904481971       -1.92529878708765        0.03120657058888
C            0.50445050575768       -0.85454470097376        0.00245609065024
C            0.97220480006146        0.50308566533856        0.01289318892057
C            0.10648836817572        1.63686163274906        0.00527340931427
O            0.43454143888466        2.80623427386874        0.03034529386964
N           -1.25179779133322        1.05753864378661       -0.03322950381721
C           -2.19493331272529        2.13738187182078       -0.06587356390713
C           -1.80389551825295       -0.26050950713396       -0.07065650608161
O           -3.00077694210596       -0.44306141237331       -0.13513647378058
N           -0.86620988569162       -1.25122859493151       -0.02857696690799
C           -1.25480137348799       -2.67651835901200       -0.05857287255557
H            4.09400753790934        1.39813164639433        0.65792743007218
H            3.57034559746579        1.70237881749424       -0.95872428256242
H            2.81980073450294        2.56349854741054        0.41596951630952
H            2.94633307351278       -3.28401174585984       -0.00733390613184
H           -1.52769519396047        3.00905158820507       -0.03705709257273
H           -2.77240403805029        2.12395293474957       -0.98321618374317
H           -2.83456876685705        2.11225034665205        0.80672841045933
H           -0.91215649870343       -3.18531636979461        0.84584193732860
H           -0.84101729733087       -3.17317642848262       -0.94137752466745
H           -2.33474829935427       -2.84624437258745       -0.09460108154549
H            0.80417424750237       -2.74356215823192        0.03975644636986
25
 energy: 126.213324636410 xtb: 6.6.1 (8d0f1dd)
C            3.19167288910777        1.70022906355969        0.06236779856520
N            2.26148970213166        0.65980204883946        0.04155465786194
C            2.51476459116428       -2.50494705677565        0.17746377282880
N            1.38373653118206       -1.89217265580838       -0.01937404461393
C            0.52028773535469       -0.85116782645948       -0.00778614922201
C            0.96467507398974        0.52527232470789        0.01413739420838
C            0.12789582448716        1.66057638485727        0.00592982885737
O            0.45162462952788        2.82858988569273        0.02906009938105
N           -1.25967571850150        1.05413440037616       -0.03190639306252
C           -2.20366671364482        2.13245861506836       -0.06276323304421
C           -1.79299634941750       -0.26229769693676       -0.06122241350514
O           -2.98818323903056       -0.46877705776425       -0.11943717370395
N           -0.84883907221739       -1.25442626945397       -0.02537745963833
C           -1.22768670973492       -2.68445783004803       -0.05988823538566
H            4.06752228646062        1.44272094387816        0.65310843643804
H            3.52828702221431        1.75516555845268       -0.96661863854528
H            2.84952120543823        2.65570266434595        0.41418265192209
H            2.88614761687097       -3.45365658863391       -0.02649521655704
H           -1.55154099982102        3.02146401640171       -0.04226967257160
H           -2.77883298329995        2.11297167211711       -0.98208560016874
H           -2.84040334051613        2.10327662194232        0.80943119236660
H           -0.88145657883416       -3.18968786728150        0.84354685171241
H           -0.80342641851657       -3.16728989783659       -0.94490765660764
H           -2.30170489981783       -2.88838218585661       -0.10157958099870
H            0.83367563671291       -2.70946016068903        0.04212230994178
25
 energy: 168.024635704328 xtb: 6.6.1 (8d0f1dd)
C            3.17500612405889        1.74454500135874        0.08403970592840
N            2.23938014661067        0.70849919871381        0.05222726485019
C            2.23486676576574       -2.83947022206523       -0.30050390908223
N            1.47475663074301       -1.74877402188115        0.08553205261350
C            0.49761600129533       -0.84458102209601       -0.04202144396618
C            0.90754595053434        0.54898651707211        0.01151270973931
C            0.20687109639825        1.71965486021943       -0.00038398031028
O            0.46533845172910        2.88695953969311        0.02769027443928
N           -1.31319788081906        1.01121230648176       -0.03850216505220
C           -2.20833788675776        2.12590287229115       -0.06530704057726
C           -1.83267855157745       -0.25092797666671       -0.06996874132919
O           -3.01123534771270       -0.52915440096984       -0.10193499598083
N           -0.83355569222538       -1.26600749701158       -0.05250365305879
C           -1.20294548509461       -2.69105567388555       -0.06865589458783
H            4.02467811263928        1.46695653269392        0.70772506896978
H            3.54095586470980        1.82689453519037       -0.93834279964908
H            2.87138086079955        2.72511068127449        0.42292776699817
H            2.80992210422422       -3.46720826561623        0.29967381078378
H           -1.57122207907388        3.02274117932115       -0.05021727776282
H           -2.78805409232259        2.12573246740385       -0.98269087185090
H           -2.84418617689575        2.11647324232755        0.80887940271245
H           -0.84709312094784       -3.18023961782018        0.84532125316128
H           -0.75630267583175       -3.17024819131461       -0.94234566250067
H           -2.27801988700809       -2.90994201427904       -0.11462421194767
H            0.99645071296047       -2.67418516535207        0.20315177027820
25
 energy: 167.329095439648 xtb: 6.6.1 (8d0f1dd)
C            3.24925772726808        1.86013906311755        0.10189277254865
N            2.11526099423958        1.07047562335161        0.06531778248045
C            2.05915918672308       -2.89315453533184       -0.33255073243535
N            1.49968595854168       -1.65351879641522        0.07609144786956
C            0.40328992990459       -0.82092965239476       -0.06856606352275
C            0.11660781579100        0.58357449343615       -0.02495166613287
C            0.90055566687635        1.76539872166194        0.02361033181440
O            0.63594488250119        2.95715781475216        0.03371608149924
N           -1.29176820589302        0.82172966746413       -0.03287471766314
C           -2.12513459696860        2.05664436853960       -0.06188121762007
C           -1.90567831569637       -0.36941159430234       -0.06219341820202
O           -3.08639068778080       -0.60403947781291       -0.08652962888158
N           -0.89522476630880       -1.34346580324634       -0.06268906419868
C           -1.20978593160803       -2.74164066649106       -0.08153844862139
H            4.01859288350551        1.49803652854420        0.76637362804527
H            3.60203596832571        1.90151467134210       -0.92151340217241
H            2.96542249984628        2.84738834831351        0.41959925650123
H            2.68805171533471       -3.54500337145793        0.23787498952285
H           -1.52181913786790        2.97157650888251       -0.04800032315364
H           -2.74344735137433        2.08949762586779       -0.97101631323979
H           -2.80761428254449        2.08814798030297        0.79768199551918
H           -0.83299579034266       -3.19563469758389        0.84228599731279
H           -0.72002125173244       -3.19101037228595       -0.94303972828669
H           -2.28020305778553       -2.96593648215283       -0.16027333304930
H            1.04182425888884       -2.60892581401558        0.31649870441848
25
 energy: 167.369962753343 xtb: 6.6.1 (8d0f1dd)
C            3.26049423258949        1.87667242804633        0.10332786065043
N            2.14904979263023        1.04582766011883        0.06636132416809
C            1.91682012432756       -2.95407238627952       -0.36439674205803
N            1.51654847105521       -1.60534155052986        0.04489372539724
C            0.38175802277589       -0.81303070863403       -0.05149085905507
C            0.10984328606079        0.60211340594369       -0.01893260979287
C            0.92418516709262        1.76405823845252        0.02313810461200
O            0.69290321916478        2.97188462047747        0.04389655765603
N           -1.31357899219514        0.80626135716853       -0.03846777351225
C           -2.12703409957204        2.03802797647068       -0.05761077923951
C           -1.92145769329034       -0.38687715259746       -0.06654728422942
O           -3.10160633082081       -0.61541987139141       -0.09873642734938
N           -0.90580934078250       -1.34873919495216       -0.05818566241932
C           -1.20142765791533       -2.74723567210085       -0.08399966623085
H            3.98924793098294        1.53570620461315        0.82453112790124
H            3.68378537624192        1.88470048347476       -0.89542948869762
H            2.97536634546298        2.88697983353838        0.36515396149048
H            2.57077198807409       -3.67346559667206        0.16381100340752
H           -1.50841828194626        2.94243707614738       -0.03668022524953
H           -2.74878125650474        2.07804274130154       -0.96334153584821
H           -2.80598482170847        2.07221201885551        0.80315126913167
H           -0.81103199156692       -3.19471824697846        0.83906740812502
H           -0.69729826134067       -3.17845372352249       -0.94822763507202
H           -2.27147049883103       -2.97786643027311       -0.16830963767330
H            1.10811349143516       -2.55723793355745        0.40417235386333
25
 energy: 167.524160583314 xtb: 6.6.1 (8d0f1dd)
C            3.27073404943406        1.91387528231219        0.10466598821113
N            2.15775364677757        1.06687473112759        0.07305592893134
C            1.78216045796497       -3.02090576341752       -0.42756543667523
N            1.52689587586746       -1.58186101860632        0.00377932340269
C            0.35681190830792       -0.80666323339976       -0.04911049590196
C            0.08717517160778        0.61254989278944       -0.00828104802875
C            0.94929625820940        1.77287536659889        0.02339540353097
O            0.72821575312080        2.98554178539758        0.03310613962055
N           -1.32978658245143        0.79316417508183       -0.03811354884964
C           -2.13054423875032        2.02595250054509       -0.05656345041469
C           -1.94470837383194       -0.40274735896990       -0.06392045960106
O           -3.12441315919948       -0.62590672754198       -0.09485955240843
N           -0.92223709429158       -1.35415087831669       -0.05387774389168
C           -1.21093474696233       -2.75334232322857       -0.07726345541523
H            3.95981290282096        1.59305434828506        0.88024316049896
H            3.76090000396497        1.86641024502942       -0.86896447727572
H            2.99533632826872        2.94406961835656        0.31117290595731
H            2.43998109296300       -3.78731283489207        0.08037240373674
H           -1.50836769240713        2.92511751942121       -0.03270914110563
H           -2.75742269963027        2.06991719270009       -0.96024619983700
H           -2.81167277977925        2.06155709930099        0.80392164297110
H           -0.83034735014043       -3.20681441475098        0.83908446579556
H           -0.72620450072608       -3.18823687640174       -0.94784320389183
H           -2.28318105733136       -2.95049650369719       -0.15695523435519
H            1.17355768979729       -2.51628052995772        0.42505245233313
25