25
 energy: 0.000000000000 xtb: 6.6.1 (8d0f1dd)
C            3.23720163006194        1.16630919979326        0.08434469647475
N            2.29877817382611        0.07527477071623        0.03981603040599
C            2.58028210190900       -1.21425402444508        0.03006176031096
N            1.43813958087363       -1.93419271955128        0.00098261760884
C            0.39035688448383       -1.05887472636071       -0.00790371836672
C            0.93510056364412        0.21347819449412        0.01709077491437
C            0.09450143893243        1.40504303904423       -0.00410947031874
O            0.49712751527797        2.54126714362870       -0.00342325688240
N           -1.25076640035757        1.06271879480407       -0.03085478223738
C           -2.21907211982101        2.15522099834493       -0.05001256985998
C           -1.81739487048744       -0.20012725993278       -0.04692818574614
O           -2.99983886758376       -0.37846417018721       -0.07008878229737
N           -0.92618586207120       -1.30210215599479       -0.03682761578324
C           -1.46982264913417       -2.64643102187190       -0.06029820460571
H            3.71247264356769        1.21471455160235        1.06488849150277
H            4.00791497605742        1.03430808813993       -0.67357694370751
H            2.69910007168542        2.09770118228144       -0.09130154882931
H            3.56654120610678       -1.63682992603973        0.04233140067262
H           -1.67107961066214        3.09322851271934       -0.02552706933167
H           -2.82428953597071        2.09428624779827       -0.95318082946668
H           -2.87644029173232        2.07745725625962        0.81450067533302
H           -1.17061996399332       -3.19584890659852        0.83242232437030
H           -1.14560257411436       -3.17511610292205       -0.95688275822323
H           -2.55549792440841       -2.55659984320617       -0.07459039797972
H            1.38130855184625       -2.94313852034425       -0.01389874181052
25
 energy: -5.519082031099 xtb: 6.6.1 (8d0f1dd)
C            3.24450036073286        1.18299642156091        0.08643364279578
N            2.30827608367206        0.09570191043724        0.03782880466706
C            2.59215049598492       -1.23994668916528        0.03018730138921
N            1.41881582921763       -1.93820055938794        0.00108978152231
C            0.39206587692179       -1.05190786775693       -0.00815371769387
C            0.92895737714888        0.22577099656950        0.01551672895770
C            0.10287291692300        1.39930451163476       -0.00490207875974
O            0.49912057570282        2.56564030413421       -0.00397913352150
N           -1.25999799070622        1.05035099732694       -0.03123988346045
C           -2.21879031809384        2.14656365274154       -0.05002621307656
C           -1.82599161169638       -0.20097643013025       -0.04773961972117
O           -3.02271836857075       -0.38381265507856       -0.07116329558374
N           -0.93680721349309       -1.30020412822732       -0.03716178323854
C           -1.46677200280044       -2.64585406697573       -0.06017602945076
H            3.72669406654590        1.23151917163100        1.06652614265103
H            4.01182544004423        1.05432548906703       -0.67820393724024
H            2.70454961458774        2.11363052053983       -0.08504988324291
H            3.56163321259160       -1.68811514303947        0.04290343209892
H           -1.65362395013855        3.07554107593357       -0.02542072895204
H           -2.82369007770416        2.09398240391400       -0.95472043700614
H           -2.87600810214434        2.07737019059686        0.81609026673348
H           -1.15943248500756       -3.19547377961911        0.83177731490168
H           -1.13386727875874       -3.17526887239754       -0.95528016789546
H           -2.55248649322804       -2.56338776555729       -0.07496781123733
H            1.35093871020487       -2.94052108657993       -0.01313479948944
25
 energy: -6.144070926785 xtb: 6.6.1 (8d0f1dd)
C            3.25342976871487        1.19744744196963        0.08841779338578
N            2.31804495520416        0.10867703846063        0.03445279994536
C            2.59182007144378       -1.26545734714593        0.03083632446366
N            1.38944509699803       -1.93246760912068        0.00215316169723
C            0.38796422027694       -1.03871374396857       -0.00838219056177
C            0.92438868015863        0.24045346290011        0.01337510134697
C            0.11144519000139        1.39138057511515       -0.00623932844691
O            0.48595152484487        2.57603554695077       -0.00512621889291
N           -1.27122051044930        1.03778499523907       -0.03216198106014
C           -2.21630854240484        2.13975396076411       -0.05025817792929
C           -1.83384804947266       -0.20210431281587       -0.04914089046982
O           -3.03553810272376       -0.39085860470794       -0.07319526495560
N           -0.94912182470792       -1.29448786928024       -0.03757226149518
C           -1.45596701349400       -2.64603967897769       -0.05989454559085
H            3.74993783197127        1.25237103001626        1.06368762139004
H            4.01663544605831        1.08920675526908       -0.68598225657699
H            2.71224736412840        2.13137085611760       -0.07023458593223
H            3.53725328505598       -1.75835054031707        0.04448874501717
H           -1.62646758719735        3.05450850130396       -0.02544277568477
H           -2.82167706636788        2.09768996674280       -0.95575401452296
H           -2.87382038432430        2.08133105515055        0.81698998992424
H           -1.13712107736473       -3.19335915249207        0.83136907190388
H           -1.11003632922813       -3.17435488408306       -0.95269110482770
H           -2.54266601008708       -2.58171196909920       -0.07593107588913
H            1.30744373090153       -2.93107687181938       -0.01073004009077
25
 energy: -4.926240127595 xtb: 6.6.1 (8d0f1dd)
C            3.25857177111706        1.20502269588967        0.08923451860078
N            2.32525320427878        0.11000476353368        0.03162050007244
C            2.58185023049719       -1.28572580363952        0.03173538330563
N            1.36399440002871       -1.92577285578329        0.00432913864810
C            0.38002668007402       -1.02612644021881       -0.00817168475535
C            0.92416028607775        0.25104565547642        0.01196307173497
C            0.11531833609942        1.39214977029067       -0.00756620395173
O            0.46777063886430        2.58354505056020       -0.00627666108003
N           -1.28034508789378        1.03277488777985       -0.03363627370183
C           -2.21325233968877        2.14043589404385       -0.05098211769045
C           -1.84222043619290       -0.20303351775143       -0.05112929250118
O           -3.04394386224900       -0.39705329927717       -0.07641158296015
N           -0.95771324736487       -1.28852670826570       -0.03784083740648
C           -1.43794325628520       -2.64904001958521       -0.05939746323383
H            3.77290386717374        1.26223029374587        1.05656202036133
H            4.01471877633751        1.12545976643299       -0.69774340201760
H            2.71366804301972        2.14257256306525       -0.04865773157502
H            3.50329484140342       -1.82591400239778        0.04674870520445
H           -1.60280261881910        3.04213114155026       -0.02599143554074
H           -2.81895662012120        2.10719742050938       -0.95659651996974
H           -2.87048188739594        2.09096061565735        0.81701977662721
H           -1.10633890935759       -3.18948119491194        0.83240177275006
H           -1.07649760758000       -3.17227955411252       -0.95011861435876
H           -2.52603734020356       -2.61038534251275       -0.07749653763412
H            1.26721680611646       -2.92316317790729       -0.00656463278069
25
 energy: -1.546173140484 xtb: 6.6.1 (8d0f1dd)
C            3.26177607389641        1.21199424950277        0.08966365344139
N            2.33491595083705        0.10339866793468        0.02793324645684
C            2.55928976044841       -1.31657958345459        0.03369547083169
N            1.32478451737546       -1.91592899329046        0.00957209406174
C            0.36331578041340       -1.00497695986380       -0.00709338365500
C            0.92658138807052        0.26519630622592        0.01030386334724
C            0.11934125659180        1.40068396032770       -0.00986294295320
O            0.43954359889214        2.59589122031496       -0.00770729806796
N           -1.29302408204548        1.03065973765959       -0.03703785087484
C           -2.20750414496911        2.14900079259453       -0.05307725024473
C           -1.85848270638622       -0.20296649945932       -0.05564617275496
O           -3.05821168564294       -0.40373670642382       -0.08397183010844
N           -0.97037532643428       -1.27809051720035       -0.03811892221377
C           -1.39904147127043       -2.65702911705875       -0.05819189452673
H            3.81297929773695        1.26191564875742        1.03921702547932
H            3.99769311996983        1.18743783823620       -0.72575220922754
H            2.70459382261117        2.15335856868948       -0.00099110419838
H            3.43776327034571       -1.93645205975770        0.05172671155340
H           -1.56945413280156        3.03199338300375       -0.02793987147204
H           -2.81386041094785        2.13051211583174       -0.95842545808297
H           -2.86389420472128        2.11433306579457        0.81605541230060
H           -1.04281311427970       -3.18053060430818        0.83590808164492
H           -1.00606486471672       -3.16727757683762       -0.94511476712200
H           -2.48902523448632       -2.67232097821334       -0.08120614578061
H            1.20138820944920       -2.91145735683332        0.00309543831334
25
 energy: 3.562431904028 xtb: 6.6.1 (8d0f1dd)
C            3.25811254221952        1.21370726563247        0.08924338937010
N            2.34121690265035        0.08848390907061        0.02591229554784
C            2.53048635831614       -1.34721389235857        0.03684574548865
N            1.28503964103667       -1.90727126485784        0.01761003259378
C            0.34174226946216       -0.98223126896311       -0.00483265225705
C            0.92982594072621        0.27657481298290        0.00922489434554
C            0.12327247335598        1.41407508820984       -0.01248530945057
O            0.41766071439843        2.60764625200015       -0.00809263326815
N           -1.30351186677061        1.03356472906902       -0.04213834717177
C           -2.20024874533837        2.16527761657209       -0.05669083346101
C           -1.87881168510642       -0.20003662723790       -0.06248911752250
O           -3.07537159912345       -0.40432874492061       -0.09578614073918
N           -0.98423671766568       -1.26665420546646       -0.03826411605775
C           -1.34747335466045       -2.66835166844668       -0.05644231898393
H            3.86222242426229        1.23963439666115        1.01101858927012
H            3.95656753439840        1.25637330991170       -0.76781691830062
H            2.68130947504755        2.15525791991837        0.06871250454936
H            3.35763027670272       -2.04754716677761        0.05878976763185
H           -1.54130190193393        3.03253529132604       -0.03158055922720
H           -2.80730207554299        2.16346920343001       -0.96142983156424
H           -2.85519792542974        2.14713493369403        0.81375651350043
H           -0.96085420241184       -3.16687395678436        0.84172433234687
H           -0.91289218203569       -3.15893517032095       -0.93821642375842
H           -2.43666467597513       -2.75570712293350       -0.08696035921890
H            1.13099504735399       -2.89955503723875        0.01742139248401
25
 energy: 6.847796949076 xtb: 6.6.1 (8d0f1dd)
C            3.24685751367680        1.20785707610971        0.08769560884130
N            2.33902025417317        0.07100925576357        0.02775459038399
C            2.50833137607824       -1.36227433894788        0.04111940967619
N            1.26314888787880       -1.90340508729791        0.02615453556288
C            0.32448654224800       -0.96923187398437       -0.00189956158492
C            0.93106655624336        0.27870559866920        0.00903532548565
C            0.12588218291552        1.42499054125130       -0.01427815969709
O            0.41558624170703        2.61256358014516       -0.00589077260542
N           -1.30641362747738        1.04021625781438       -0.04728167252976
C           -2.19423201501824        2.18233076665866       -0.06050811830908
C           -1.89436861918703       -0.19497444221193       -0.06974802739447
O           -3.08816445595504       -0.39585170571381       -0.10889328149898
N           -0.99436863013575       -1.26073007380520       -0.03835412505141
C           -1.30538333285487       -2.67824027369853       -0.05510387690818
H            3.90270637462722        1.19945504461539        0.97712668417596
H            3.89833642006354        1.30081601564517       -0.80719515907516
H            2.65456873912115        2.14353082456001        0.13627545997250
H            3.29820570181488       -2.10087991993200        0.06562183563479
H           -1.53173839564600        3.04492443452908       -0.03554560194494
H           -2.80164202334355        2.19213885634705       -0.96449204170512
H           -2.84727202552786        2.17518074940763        0.81111974397937
H           -0.89720300274525       -3.15275877149055        0.84758467111043
H           -0.83689096827342       -3.14878016023582       -0.93215046824592
H           -2.38738611016358       -2.82588280849553       -0.09310556156526
H            1.08908108371631       -2.89168094353072        0.03199245943997
25
 energy: 7.134551256328 xtb: 6.6.1 (8d0f1dd)
C            3.22896625141804        1.19413396196290        0.08431485099891
N            2.32767066750295        0.05376540255757        0.03423668898434
C            2.49504217451216       -1.35829099191773        0.04780972770044
N            1.25865123851999       -1.90291130002287        0.03593311335696
C            0.31201977098018       -0.96647530569107        0.00195431654380
C            0.92864846940342        0.27252307222716        0.00918110708386
C            0.12575572789245        1.43123328201458       -0.01481977873359
O            0.43212049064128        2.61228759277835        0.00089286746753
N           -1.30179353482816        1.04913771595147       -0.05259645148710
C           -2.18927375118450        2.19815643586649       -0.06431056785592
C           -1.90429169841993       -0.18765803388221       -0.07805824309937
O           -3.09669075450088       -0.37681318605411       -0.12504331766747
N           -1.00234563078702       -1.26117976798450       -0.03867886618421
C           -1.27627143149945       -2.68619920125128       -0.05475282142210
H            3.93613450111190        1.14101765793684        0.93191209361540
H            3.81904766086268        1.31957644109083       -0.84422941348709
H            2.62957020321475        2.11606276354489        0.20363949081213
H            3.26757026112515       -2.09205463579855        0.07405763644075
H           -1.53683694205001        3.06670000973792       -0.03951166055396
H           -2.79710205404767        2.21439220435316       -0.96740933635794
H           -2.83988547344613        2.19609017467771        0.80872384836681
H           -0.85670278318596       -3.13847416875711        0.85286743677744
H           -0.78169756282411       -3.13650162180120       -0.92688533022181
H           -2.34344583229765       -2.88250013578703       -0.10080016117320
H            1.07735469982246       -2.88698976358015        0.04860666624266
25
 energy: 8.295651991675 xtb: 6.6.1 (8d0f1dd)
C            3.21330033141639        1.18031331346067        0.07914762833049
N            2.31445981126422        0.04351851441774        0.04316880876310
C            2.48426205413753       -1.35200116293445        0.05728586899592
N            1.24790760334895       -1.90132638641481        0.04853500267615
C            0.29895962086269       -0.96310128625526        0.00740148474344
C            0.92084383773895        0.27016947639936        0.01002976461737
C            0.12284691813403        1.43318417942411       -0.01346361652430
O            0.44769747743355        2.61503996099968        0.01247870640719
N           -1.29898309928424        1.05663640620681       -0.05876829563115
C           -2.18392946057760        2.21218466023621       -0.06905451466285
C           -1.91368728521400       -0.17758838838236       -0.08871448835023
O           -3.10722062726038       -0.35289045470159       -0.14697747059280
N           -1.01551095329771       -1.26055336436718       -0.03940059548642
C           -1.25008507000009       -2.69344303678791       -0.05530555799116
H            3.98528073972805        1.07413132552455        0.87043532687914
H            3.72325626085035        1.34765267284637       -0.89579707646564
H            2.61050514536082        2.08734620023327        0.29121859254362
H            3.25174119934231       -2.08503907986920        0.08832748902402
H           -1.53292545730561        3.08435754981697       -0.04427299617471
H           -2.79261987220990        2.23445544740405       -0.97152228038879
H           -2.83225531060521        2.21485583248396        0.80593306538695
H           -0.81799815794800       -3.12369822107257        0.85783967617078
H           -0.72232007161528       -3.12407410808109       -0.91973446350235
H           -2.30319845304612       -2.94840156255877       -0.11335045936986
H            1.06188748668223       -2.88269988585647        0.07159429674935
25
 energy: 6.159126667718 xtb: 6.6.1 (8d0f1dd)
C            3.19438805513946        1.15991093815810        0.06737397471272
N            2.28887483392933        0.04298007993704        0.05873672266831
C            2.48584601749503       -1.32384761449563        0.07404831228906
N            1.25371014100653       -1.90629664964553        0.06414103700637
C            0.29294125303142       -0.97414868428703        0.01386424459543
C            0.90280932108436        0.26184774342892        0.00949746021682
C            0.11003698025378        1.42587605449129       -0.00791348784116
O            0.47819936254059        2.61085651846416        0.03562165310946
N           -1.29186924949514        1.06619976197018       -0.06457798603770
C           -2.18079314453098        2.22293726075302       -0.07184864881087
C           -1.91392849726700       -0.16339087505109       -0.10247761302759
O           -3.11184433256690       -0.31550370235770       -0.17652239186469
N           -1.02906604761163       -1.26700596435940       -0.04209616752345
C           -1.24566979426213       -2.69721477031624       -0.05963041587061
H            4.02721972717660        0.99559628157220        0.77431547086890
H            3.59927182938348        1.35357562051480       -0.93975371809502
H            2.61868644595320        2.04148549501327        0.37837384631482
H            3.28898698213692       -2.00932657851130        0.11335890503207
H           -1.53586361642394        3.10493897251387       -0.04694741768908
H           -2.79136822599823        2.24394939340945       -0.97301530704783
H           -2.82570421694307        2.22185410119327        0.80591513490423
H           -0.81731722129808       -3.11153888969712        0.86015958894431
H           -0.69329765157095       -3.11050518947982       -0.91389504629790
H           -2.27556332336164       -2.99648851633985       -0.13369536786210
H            1.08352904013491       -2.88771218470679        0.10400111345278
25
 energy: 8.752678183004 xtb: 6.6.1 (8d0f1dd)
C            3.18325852511163        1.14950721405741        0.05219575494923
N            2.27011546605980        0.04508711941874        0.07462236098892
C            2.47680274141010       -1.32136162447065        0.09446292921830
N            1.23947130907667       -1.91199340635750        0.08372121476864
C            0.28227615058309       -0.97794900833636        0.02244070086076
C            0.88473738691778        0.26166647683029        0.01295221499717
C            0.09802873933835        1.42127595217783        0.00140802760692
O            0.48570967685099        2.60852004772036        0.05737954797762
N           -1.29620367400800        1.07400057119534       -0.07062837674047
C           -2.17606801483983        2.23676924622866       -0.07608585089962
C           -1.91963935615464       -0.15043511428614       -0.11873032234556
O           -3.12024465725551       -0.28919090398913       -0.21058982247689
N           -1.04661577627568       -1.26571498007068       -0.04518319895486
C           -1.22939697077932       -2.70256604659999       -0.06520046007374
H            4.10325584051679        0.92022222572656        0.65862224104515
H            3.46897622172471        1.41034543559317       -1.00909855615590
H            2.63565422256237        2.01746065870029        0.50029445629633
H            3.30210301964448       -1.99454241799823        0.14704759399864
H           -1.51755939737443        3.11245914597949       -0.05106738730395
H           -2.78838141820009        2.26263131552487       -0.97594598566262
H           -2.81826001579384        2.23965258872448        0.80402495258936
H           -0.79923399008943       -3.09948173555914        0.86368558286301
H           -0.63685695321616       -3.09948811001794       -0.90590163158647
H           -2.24486193422635       -3.06309815959631       -0.16297434589655
H            1.07514752635236       -2.89474788842335        0.14558225608386
25
 energy: 6.798736558991 xtb: 6.6.1 (8d0f1dd)
C            3.18735232071688        1.15192979920577        0.03118190406000
N            2.25808851526530        0.06428142339935        0.08683444813730
C            2.48044476486994       -1.32447168527910        0.11601566124502
N            1.23696787215587       -1.92595719355479        0.09540212247672
C            0.28701688562455       -0.99287166188944        0.02675590100316
C            0.86703260504353        0.26179530172353        0.01509566716306
C            0.08219733508886        1.40950581390235        0.01620347599226
O            0.47614047200888        2.59852022869478        0.07589134465767
N           -1.30660240154921        1.07636120501677       -0.06905152568004
C           -2.17687638926716        2.23910101221825       -0.07126547737167
C           -1.91268223621239       -0.14457350145914       -0.12882620042234
O           -3.11551992603103       -0.28312672887554       -0.23171230505032
N           -1.05315277208023       -1.26449243882926       -0.05057491871076
C           -1.24621146229175       -2.69962780618654       -0.07587574321011
H            4.11945644963552        0.90950050803157        0.55797230450172
H            3.41020603069189        1.44376723447024       -1.01732435205218
H            2.70713231686708        2.01113234694777        0.53302223659472
H            3.35875502520383       -1.96169558752458        0.18267497221228
H           -1.49792108394237        3.10105885273557       -0.04602011504581
H           -2.79244535337801        2.26414403880107       -0.96896380814834
H           -2.81722775129054        2.24017969021165        0.81045221578750
H           -0.83443814874966       -3.10458715232768        0.85961496366894
H           -0.63937146568570       -3.10019850266952       -0.90543826270066
H           -2.25978996227533       -3.06517743961659       -0.19484459382177
H            1.09366302751712       -2.91546915497440        0.17981398086096
25
 energy: 6.148387978386 xtb: 6.6.1 (8d0f1dd)
C            3.18292249042901        1.15264214923898        0.00814649473129
N            2.24808076555290        0.06987729716698        0.10996667840545
C            2.48097917425624       -1.32372486857929        0.14490493066783
N            1.24570005986528       -1.93669520205227        0.11878612934712
C            0.29064548102312       -1.00951602401900        0.03783228001651
C            0.85815509099540        0.25216692212629        0.02699911694263
C            0.07013966707204        1.40269659937222        0.03367681225429
O            0.46583551572927        2.58425287981206        0.09823607244163
N           -1.31460190057117        1.07876255404799       -0.06823115880047
C           -2.17690992025707        2.24540589846928       -0.06907668458654
C           -1.90964670756296       -0.14685601322358       -0.14409477225304
O           -3.11056232114072       -0.28705105159525       -0.26430413875193
N           -1.05341689272640       -1.26796843332160       -0.05566631821834
C           -1.25719387139334       -2.70059692680650       -0.09005111312131
H            4.17867246645875        0.86316228606618        0.42462383074959
H            3.30455564621181        1.49509485526749       -1.05282176916445
H            2.77078130003087        2.00048124228563        0.60076856360977
H            3.39038763671081       -1.91417461027501        0.22223819523447
H           -1.48938849449886        3.09715719467009       -0.04470924965541
H           -2.79519748046621        2.27434058187787       -0.96419631368593
H           -2.81568509769700        2.25109666834781        0.81354712201303
H           -0.87664365725544       -3.10992167868307        0.85564183452003
H           -0.63776564942528       -3.09950045992061       -0.90717631461731
H           -2.26034073319094       -3.05343875418945       -0.23481779423639
H            1.12271209978569       -2.92866450391117        0.22681146230479
25
 energy: 3.923269203590 xtb: 6.6.1 (8d0f1dd)
C            3.18732612796224        1.16368717214377       -0.02344990210664
N            2.25847636391848        0.06899991900610        0.14187380107544
C            2.48199569195318       -1.33672300966644        0.18249724467755
N            1.26644495907126       -1.94366087570217        0.14930283489141
C            0.30200716084926       -1.02537114245284        0.05462216514061
C            0.86964247861274        0.23608724312378        0.04860896269786
C            0.06957380787235        1.40179483177288        0.05547840010200
O            0.43317551898490        2.56243689178779        0.12246576010426
N           -1.32735064058440        1.07607389310195       -0.06073756472735
C           -2.17982945406937        2.24861398211453       -0.06021715503910
C           -1.90664656415623       -0.16701379133527       -0.15911325768344
O           -3.09817552016744       -0.32986270249096       -0.29939145354317
N           -1.03569264973568       -1.26802915174832       -0.06011740097805
C           -1.27729972176404       -2.69882957954200       -0.11124577163202
H            4.21586285475211        0.84288834513056        0.26047186709802
H            3.21093385465072        1.56138638635997       -1.05858587348913
H            2.87884326536264        1.99538049238647        0.62711704952240
H            3.39799584674285       -1.87299290542507        0.26460181317586
H           -1.48978371104200        3.08424240837424       -0.03963494409062
H           -2.80264332839445        2.28622262627501       -0.95070125136270
H           -2.81654484901474        2.26720070161600        0.82310578271892
H           -0.95155664781679       -3.12868896818606        0.84674183626929
H           -0.65016888191691       -3.10698997970000       -0.91171381908644
H           -2.28742316189350       -2.99296144130789       -0.29537282474509
H            1.16305186775861       -2.93486274346400        0.28042759715747
25
 energy: 4.850824310100 xtb: 6.6.1 (8d0f1dd)
C            3.19059010854553        1.15871519860558       -0.06288354687655
N            2.26012761894076        0.07456048646417        0.17374528417658
C            2.48954028356496       -1.32602324293648        0.22169514792036
N            1.28323607998910       -1.94660336075588        0.18531222830661
C            0.30908887414522       -1.03499100934148        0.07627781357170
C            0.87202614203438        0.22760757164454        0.06491711007955
C            0.06787561665680        1.39506715372600        0.07142889491443
O            0.43013732056645        2.55261633115478        0.16518698520760
N           -1.33063573169238        1.07262868395831       -0.05719215036002
C           -2.18310710055166        2.24772218725507       -0.05308406599470
C           -1.90283480104426       -0.17633126584266       -0.17475115068879
O           -3.09016529860392       -0.34755519740697       -0.34725989186888
N           -1.02675559572635       -1.26893928418133       -0.06119295237101
C           -1.29561967080400       -2.69468639700684       -0.13172641872736
H            4.25822556004946        0.78913243449209        0.06311717211069
H            3.06145761445371        1.61653586615820       -1.10268687050735
H            2.98095422124938        1.96519171007840        0.70863420435143
H            3.43212945103265       -1.81143207767772        0.32489407290262
H           -1.49368948007127        3.08205110330935       -0.03812056173385
H           -2.81236586158299        2.28959123118928       -0.93879474625202
H           -2.81358188982025        2.27536852295614        0.83533641260072
H           -1.02416527281320       -3.13915991873496        0.83816648650209
H           -0.63594325651084       -3.10814107078189       -0.90756983671796
H           -2.31169412910268       -2.96596895139613       -0.37317312047689
H            1.19738386503117       -2.93792810275751        0.34675739607833
25