25
 energy: 0.000000000000 xtb: 6.6.1 (8d0f1dd)
C            3.23720163006194        1.16630919979326        0.08434469647475
N            2.29877817382611        0.07527477071623        0.03981603040599
C            2.58028210190900       -1.21425402444508        0.03006176031096
N            1.43813958087363       -1.93419271955128        0.00098261760884
C            0.39035688448383       -1.05887472636071       -0.00790371836672
C            0.93510056364412        0.21347819449412        0.01709077491437
C            0.09450143893243        1.40504303904423       -0.00410947031874
O            0.49712751527797        2.54126714362870       -0.00342325688240
N           -1.25076640035757        1.06271879480407       -0.03085478223738
C           -2.21907211982101        2.15522099834493       -0.05001256985998
C           -1.81739487048744       -0.20012725993278       -0.04692818574614
O           -2.99983886758376       -0.37846417018721       -0.07008878229737
N           -0.92618586207120       -1.30210215599479       -0.03682761578324
C           -1.46982264913417       -2.64643102187190       -0.06029820460571
H            3.71247264356769        1.21471455160235        1.06488849150277
H            4.00791497605742        1.03430808813993       -0.67357694370751
H            2.69910007168542        2.09770118228144       -0.09130154882931
H            3.56654120610678       -1.63682992603973        0.04233140067262
H           -1.67107961066214        3.09322851271934       -0.02552706933167
H           -2.82428953597071        2.09428624779827       -0.95318082946668
H           -2.87644029173232        2.07745725625962        0.81450067533302
H           -1.17061996399332       -3.19584890659852        0.83242232437030
H           -1.14560257411436       -3.17511610292205       -0.95688275822323
H           -2.55549792440841       -2.55659984320617       -0.07459039797972
H            1.38130855184625       -2.94313852034425       -0.01389874181052
25
 energy: -5.419694078298 xtb: 6.6.1 (8d0f1dd)
C            3.24503665375934        1.18950202414253        0.08605616917137
N            2.30846935151839        0.09605201650148        0.03795459753990
C            2.58392631537414       -1.24826326680115        0.03035607708035
N            1.40958894119651       -1.93584454738758        0.00138419380291
C            0.38739987070090       -1.04737469113838       -0.00802978204321
C            0.92743744189836        0.22928536496781        0.01581041152554
C            0.10445971471276        1.40298264596509       -0.00448527752749
O            0.50037881226666        2.56978768802945       -0.00321663055645
N           -1.25940797612968        1.04991828426586       -0.03136811169463
C           -2.21680362747864        2.14610987953933       -0.05020945977262
C           -1.82834010171323       -0.20157263750663       -0.04818556177400
O           -3.02512422346938       -0.38502748068986       -0.07194441907862
N           -0.93955604948782       -1.29974157835840       -0.03728162290604
C           -1.46148358892229       -2.64920562724264       -0.06015379429571
H            3.73144815971751        1.24084578703714        1.06404173028503
H            4.01166128859220        1.06729903766446       -0.68020109557421
H            2.71305283659896        2.12703495664355       -0.08114091022836
H            3.54354836786024       -1.72118404514842        0.04311069171533
H           -1.64811405035510        3.07282586482599       -0.02548889774821
H           -2.82118248750429        2.09435745019699       -0.95518691798522
H           -2.87364320301912        2.07776302709294        0.81614195738363
H           -1.15032227399684       -3.19726852631306        0.83165582465596
H           -1.12421945520489       -3.17738985089490       -0.95457670949934
H           -2.54759905621235       -2.57534927551552       -0.07537579282636
H            1.34160300723389       -2.93651389770404       -0.01263277350225
25
 energy: -2.114551682396 xtb: 6.6.1 (8d0f1dd)
C            3.25955044225802        1.22455570070958        0.08807877101077
N            2.32622613258951        0.11680806128877        0.03432691495239
C            2.56953093336625       -1.30185103932910        0.03177344089528
N            1.34799875779783       -1.92319944359692        0.00339276916695
C            0.37172654564446       -1.01807468463733       -0.00790835784696
C            0.91973406758630        0.25832560834115        0.01381709015212
C            0.12091026847457        1.40071871791446       -0.00500030453273
O            0.48672422990192        2.59757211340710       -0.00215429079460
N           -1.27353424605330        1.03075381530216       -0.03284796538332
C           -2.20925624010444        2.13513998121058       -0.05100093380169
C           -1.84636692133015       -0.20395993907859       -0.05117775575986
O           -3.05248880532463       -0.39501955957605       -0.07676803282942
N           -0.96455769247917       -1.29061326203125       -0.03812819552344
C           -1.43454500456051       -2.65692609150697       -0.05976621200437
H            3.77323420450008        1.28977303296526        1.05586713155095
H            4.01716844601133        1.14291296197614       -0.69700628950922
H            2.73717027554167        2.17723744189827       -0.05330212897365
H            3.47072366815803       -1.89421279143048        0.04592220040181
H           -1.59963753987532        3.03799891820735       -0.02571409399294
H           -2.81299847517556        2.10012063003902       -0.95799664669888
H           -2.86583671151927        2.08397519996719        0.81751665908427
H           -1.09714393419699       -3.19770512451402        0.83077909381992
H           -1.06765390090344       -3.18018276929377       -0.94940006615226
H           -2.52292847489644       -2.62935504573921       -0.07774784548788
H            1.25846464252543       -2.91576383032131       -0.00852105559594
25
 energy: 14.348418362356 xtb: 6.6.1 (8d0f1dd)
C            3.27363691441277        1.26466076767433        0.08901468044686
N            2.34821139746676        0.12855097890123        0.03137550183771
C            2.53782127077778       -1.37227611723554        0.03456302922828
N            1.26945083150347       -1.90463761471339        0.00769638089292
C            0.34456846172027       -0.97782579354316       -0.00701007345185
C            0.91736562420860        0.29118524201811        0.01265622880947
C            0.13704292755570        1.41082187055834       -0.00488284712856
O            0.46099595410526        2.62961125462749        0.00035798125996
N           -1.29014522227408        1.01570609185599       -0.03541384634636
C           -2.19766887607362        2.13183940756910       -0.05284340198489
C           -1.87215136974834       -0.20625606145489       -0.05614060164290
O           -3.08310319043372       -0.40532579396509       -0.08527745385628
N           -0.99366055333180       -1.27750097030550       -0.03916860073911
C           -1.38485367358107       -2.67136311803643       -0.05908830269462
H            3.83024103067835        1.34539787196209        1.03754314922975
H            4.01424519212983        1.25172402255937       -0.72574240955115
H            2.75717473317713        2.23579647480005       -0.00684992704653
H            3.34748068714548       -2.13502034007886        0.05074970315494
H           -1.53874578177556        3.00346264406330       -0.02674272523105
H           -2.80002124161180        2.11662939405346       -0.96157002489385
H           -2.85322970303720        2.10106891865355        0.81768670416604
H           -1.00953502601734       -3.19465379588516        0.83152172565606
H           -0.97356569917898       -3.18099948604524       -0.94251610475754
H           -2.47594596909306       -2.72124969551419       -0.08204283691806
H            1.14660594921132       -2.89031755034690       -0.00084203229198
25
 energy: 42.504606254383 xtb: 6.6.1 (8d0f1dd)
C            3.28214497549607        1.30722562043735        0.08871262263884
N            2.37008141804898        0.13027669679578        0.03078694618420
C            2.49883210084482       -1.45512252927377        0.03923928115251
N            1.19452085482195       -1.88727971452830        0.01384604296012
C            0.31281831029908       -0.93647434683727       -0.00563901870187
C            0.92092579570675        0.31877006288336        0.01231434924886
C            0.15353878617351        1.43323001828781       -0.00409822070235
O            0.43631535484661        2.65895048229436        0.00413036058475
N           -1.30542671114021        1.00743256666791       -0.03863989723718
C           -2.18419530277558        2.13736098883686       -0.05544935952564
C           -1.90134782414055       -0.20861653972859       -0.06242430980581
O           -3.11196634417069       -0.41351861042807       -0.09599485479274
N           -1.02082098810811       -1.26577734663091       -0.04040350387089
C           -1.32216846720724       -2.68981906293283       -0.05837358588388
H            3.89059079727230        1.39813147048708        1.01086462014210
H            3.99713479660019        1.37433768221974       -0.76051282954756
H            2.76730221858207        2.29584325662725        0.04988102696528
H            3.18929783345351       -2.39858944715334        0.05605554209419
H           -1.48289662547499        2.97828220888516       -0.02857188854450
H           -2.78452502933596        2.14141411914803       -0.96512501049888
H           -2.83800002399105        2.12650902879780        0.81640485649438
H           -0.90799469909346       -3.18808731786319        0.83416705369536
H           -0.86352566551798       -3.17861013891559       -0.93590952986946
H           -2.41171158618530       -2.83072083830259       -0.08738945219061
H            1.03329069293138       -2.86611970760197        0.00916265515805
25
 energy: 66.219111851714 xtb: 6.6.1 (8d0f1dd)
C            3.27944807643199        1.34451210329058        0.08655080200308
N            2.38319093742244        0.11805191881641        0.03443491442402
C            2.46429321932403       -1.53041718338013        0.04640896363120
N            1.16262448634899       -1.87530319173233        0.02047113686921
C            0.28792999058863       -0.91100374737379       -0.00488469571803
C            0.93421585910088        0.32573167725503        0.01196399855019
C            0.17005928216186        1.46601668120947       -0.00303956521167
O            0.42668041137984        2.66567645165298        0.00852145304938
N           -1.31005500613756        1.00958974769101       -0.04150887015813
C           -2.17233087455342        2.15039154040269       -0.05770490533763
C           -1.92332139575473       -0.21423529022103       -0.06811371460620
O           -3.12301342073811       -0.41731766405594       -0.10524010009243
N           -1.03214034471342       -1.26575913546011       -0.04188075135013
C           -1.27022714800115       -2.70664936141984       -0.05836997055447
H            3.93064304564600        1.43295961363165        0.98011537891789
H            3.96363283869023        1.46964760003537       -0.78494265608098
H            2.76497005124792        2.34280963959984        0.09638696365628
H            3.03133640814095       -2.59378681760666        0.05929272954572
H           -1.46103081407467        2.97477366891863       -0.03050044978192
H           -2.77068484739183        2.16530033660845       -0.96636359662203
H           -2.82371994368167        2.15078477598271        0.81381104452441
H           -0.83900490755855       -3.17922881655535        0.83836253390443
H           -0.78712649755583       -3.17163556220104       -0.93372968808424
H           -2.34589540330759       -2.91309069914377       -0.09157234554908
H            0.97174066492083       -2.84878968377280        0.01856528621840
25
 energy: 82.855116399748 xtb: 6.6.1 (8d0f1dd)
C            3.26808848240664        1.37205389795638        0.08240619562202
N            2.38263342081031        0.10405873662882        0.04332379171974
C            2.43943905834343       -1.58848548248341        0.05534320392330
N            1.15190487329936       -1.86606039397633        0.02880756291657
C            0.27156718028758       -0.89749755773936       -0.00262599124424
C            0.94658807020074        0.32166400413030        0.01461748994959
C            0.19106917912796        1.48470286719325       -0.00041029716204
O            0.43952134370571        2.66249225178968        0.01735139367097
N           -1.29826578747961        1.01092229736446       -0.04399343202434
C           -2.15879709577859        2.16145652080327       -0.06036333683468
C           -1.93479596207575       -0.21834153306590       -0.07352062025902
O           -3.12737488264693       -0.40898339662855       -0.11628404913174
N           -1.03421342674232       -1.27194166173012       -0.04339087255762
C           -1.23529768073415       -2.72031745144154       -0.05963976375724
H            3.95662280993403        1.44274493527138        0.94585725432115
H            3.90727870144570        1.52838353892978       -0.81288955434544
H            2.74608484191817        2.36782206885883        0.14014793146501
H            2.91438171562631       -2.69509494592076        0.06238530094401
H           -1.46163576364645        2.98948616443535       -0.03291077353954
H           -2.75719724740106        2.18603749626325       -0.96850700271524
H           -2.81002601235529        2.17144415900201        0.81098730554236
H           -0.79422546781458       -3.17116417013063        0.84171653572608
H           -0.73293486984615       -3.16401822290850       -0.93343801901955
H           -2.29338657686279       -2.97966325799937       -0.09735861902635
H            0.93518576421373       -2.83267226243024        0.02942226196352
25
 energy: 93.572680124700 xtb: 6.6.1 (8d0f1dd)
C            3.25936533446849        1.38864421474763        0.07811216788999
N            2.38025693380108        0.09866723817409        0.05375659006315
C            2.42977388137985       -1.63006862392327        0.06422262519098
N            1.13155815053104       -1.86040917708372        0.03800514835542
C            0.26139026781041       -0.88647302188152        0.00192381612394
C            0.95185535134382        0.32272549936279        0.02022753278218
C            0.20554301949287        1.48788092658334        0.00363605877667
O            0.45231249885012        2.67406106642135        0.02971831921870
N           -1.28687668937854        1.00959836511410       -0.04617318385254
C           -2.14743593207868        2.16480409737210       -0.06348740878214
C           -1.93986532895408       -0.21607754737871       -0.07906027911072
O           -3.13513235145099       -0.39532071796225       -0.12876372570568
N           -1.04025334928381       -1.27312572615221       -0.04460813107128
C           -1.21302700200017       -2.72937843897863       -0.06168860688149
H            3.98508803373750        1.44229029393952        0.91326484731150
H            3.85020557929241        1.56932805526786       -0.84925565497431
H            2.72532332733421        2.37728851132125        0.18414834925367
H            2.85877629934727       -2.74881250516720        0.06651680147805
H           -1.45347764934791        2.99916635925535       -0.03537517733679
H           -2.74494817979989        2.19572185478117       -0.97284219920770
H           -2.79885692968429        2.18106261877696        0.80852307731394
H           -0.76020759382565       -3.16743232890724        0.84258683637267
H           -0.68782492690993       -3.16039858997649       -0.93213966842786
H           -2.26038986444275       -3.03461368078978       -0.10564026902562
H            0.88906178770364       -2.82010014074444        0.04142603039257
25
 energy: 92.346873146789 xtb: 6.6.1 (8d0f1dd)
C            3.24553857395819        1.39973911743295        0.07114777155757
N            2.36991351863949        0.09409888214317        0.07066032083673
C            2.43522810443356       -1.65824702773192        0.07892104803620
N            1.14465904868270       -1.85804831853366        0.05014106673543
C            0.26435497818572       -0.88955859200904        0.00797119132746
C            0.96211634876821        0.31323816793102        0.02663620737436
C            0.21444439305151        1.48695222899631        0.00830836238271
O            0.47545580865877        2.67413915492882        0.04457591953896
N           -1.26589727824240        1.01298409590561       -0.04788616767827
C           -2.13894232723728        2.16436830243423       -0.06580623686515
C           -1.93164345038773       -0.21376796134487       -0.08438374689206
O           -3.12738169247143       -0.37556379526407       -0.14086993287856
N           -1.03464488462142       -1.28237290866962       -0.04669747204572
C           -1.21419387522174       -2.73299391461819       -0.06641810380530
H            4.00022896683652        1.42910915784797        0.87114814452989
H            3.77670626340862        1.57911052255843       -0.87781738237518
H            2.70266468018959        2.36948839666673        0.21898163240700
H            2.84036625909568       -2.72444459789215        0.06890259460219
H           -1.46378492991679        3.01736789879047       -0.03698545820405
H           -2.73507549945550        2.19119718543490       -0.97570738616925
H           -2.78951046014527        2.17608379919854        0.80650155010059
H           -0.77260784955735       -3.16713794818498        0.84179090074420
H           -0.68826199058339       -3.15617773855860       -0.93569408219609
H           -2.24097909512480       -3.05027538661027       -0.11630475221108
H            0.88346105699255       -2.81026011867973        0.05591790729472
25
 energy: 94.579054489303 xtb: 6.6.1 (8d0f1dd)
C            3.24395995191730        1.40711973242012        0.06786318963536
N            2.36956176536970        0.10309853602484        0.08556922005160
C            2.44199376386014       -1.67529455509903        0.09539300688057
N            1.14063768667852       -1.85774953292865        0.06081097741756
C            0.26766283346363       -0.88666103276331        0.01555639847594
C            0.96357046409891        0.31806599469984        0.03323156652948
C            0.21253144908868        1.48369300552732        0.01012848025053
O            0.48385239020875        2.67579478942322        0.04892595114108
N           -1.26152143721438        1.01609972932040       -0.04890894623852
C           -2.13815386896982        2.16175094747243       -0.06751771714352
C           -1.92601390738759       -0.20790701761172       -0.08722509155623
O           -3.12479426176881       -0.36600311409648       -0.14756773979047
N           -1.03650379097027       -1.27948942906541       -0.04726374848651
C           -1.21506069853186       -2.73059313200219       -0.07007707624868
H            4.02388658428437        1.42942319325559        0.84384558332965
H            3.73943485994313        1.59679897787086       -0.90024300901421
H            2.69939441534846        2.36919793121733        0.24523581535113
H            2.84215328487810       -2.74604842585357        0.06173292498554
H           -1.46390937576226        3.01805981940041       -0.03825300417658
H           -2.73303691730508        2.18204817656664       -0.97795418474119
H           -2.78845820689624        2.16726956413982        0.80469781252835
H           -0.77623963403507       -3.16785201358956        0.83945456087999
H           -0.68103017552683       -3.15403067290170       -0.93649297450067
H           -2.24073174540434       -3.06116067974547       -0.12740099523504
H            0.86902923856878       -2.80660218950968        0.06349289582212
25
 energy: 101.591455609977 xtb: 6.6.1 (8d0f1dd)
C            3.23971383086429        1.44475771532643        0.05392386263555
N            2.36656762646519        0.16278543484232        0.17301765263690
C            2.47773058630944       -1.75814721926740        0.21309364111669
N            1.13383824847597       -1.86248846465500        0.11505197874342
C            0.29290144971519       -0.87812078263887        0.05517320606279
C            0.96878949864882        0.34390883633557        0.05981599960347
C            0.18765510426869        1.46726082094901        0.00161170050869
O            0.50954753816534        2.67896647493645        0.05433713409306
N           -1.24588775688225        1.03197852629014       -0.05659017389578
C           -2.13921470585413        2.15011081599130       -0.07345513245429
C           -1.89312658915156       -0.18343033865037       -0.09935078606353
O           -3.10494922382364       -0.33104861388670       -0.17102339059172
N           -1.03908339262293       -1.26477484394132       -0.05153387563103
C           -1.22546798780820       -2.71474024806133       -0.08593740402887
H            4.11356301182436        1.44190066356291        0.72068464444334
H            3.58490337955531        1.66984600044256       -0.97391548852717
H            2.70709782999374        2.37152018451167        0.34889006071738
H            2.86291208373890       -2.86201837997555       -0.01943829670842
H           -1.46628297193492        3.01804497864697       -0.04311528558252
H           -2.73187675753125        2.13918639969508       -0.98467889836680
H           -2.78862542951111        2.12555415749303        0.79875148184353
H           -0.80384814935915       -3.17386853626435        0.82973705855693
H           -0.66457100390752       -3.14603146524090       -0.94031876140526
H           -2.25074945760627       -3.08499471235126       -0.17459089789609
H            0.82067790590363       -2.79712880191835        0.07689386633703
25
 energy: 117.836791040102 xtb: 6.6.1 (8d0f1dd)
C            3.23624949772058        1.49742860930768        0.04388985379423
N            2.36270944854086        0.25510135606588        0.24110998310788
C            2.52033631941412       -1.86345304411084        0.32998203693420
N            1.13534337683692       -1.87589551744356        0.15618464784919
C            0.33153999064150       -0.86928511728693        0.08163380151380
C            0.97586637182063        0.37985680470709        0.06337500158911
C            0.14197994068338        1.45067907792650       -0.01565727504908
O            0.51583024393996        2.68032917988835        0.04467086961835
N           -1.23624679786328        1.05069120143306       -0.06320725271849
C           -2.14465584818268        2.14051670449184       -0.07591483193839
C           -1.85336626425097       -0.16185755641323       -0.10844542309471
O           -3.07844689705114       -0.30778339506918       -0.18148241987600
N           -1.03573618188113       -1.24558626661705       -0.05889005420557
C           -1.23579930068569       -2.69450473420397       -0.09676337096305
H            4.16573176836885        1.46018438268382        0.60675868553208
H            3.45264169657322        1.74577625823304       -1.00176681537559
H            2.74842434748928        2.39220624821912        0.43809908269597
H            2.88193144697594       -3.03428518372085       -0.09508327625357
H           -1.46668734788582        3.01433867406219       -0.04528885577629
H           -2.73749595430392        2.09928569555742       -0.98665224825285
H           -2.79316908952454        2.08636524277718        0.79646930339540
H           -0.82648372748088       -3.18159569211180        0.82364979846670
H           -0.66060963669784       -3.14148185275483       -0.94105269631409
H           -2.26790950974308       -3.09236851537314       -0.20665646703566
H            0.78023677448159       -2.79563395807571        0.07807181850375
25
 energy: 110.611630453493 xtb: 6.6.1 (8d0f1dd)
C            3.23680181839888        1.50317388182656        0.05052244038452
N            2.35396177338626        0.30721261210582        0.18180982649052
C            2.52699735277119       -1.87171327377178        0.29386229196062
N            1.16235572884455       -1.89745351413468        0.12989407396770
C            0.35454997442628       -0.88362450607541        0.05760325959733
C            0.97224929302978        0.38719746730972        0.03369395963321
C            0.10542443010609        1.45213492344297       -0.01257963651503
O            0.47782105154658        2.67091483019790        0.02306100371011
N           -1.24884160222875        1.05318018330320       -0.05695896998768
C           -2.15235612541207        2.14835841525032       -0.07225424224342
C           -1.84543156906864       -0.17526541588385       -0.10070848375905
O           -3.06711928867173       -0.33748110797544       -0.16126238698667
N           -1.02101955604713       -1.24496876272517       -0.05787382039802
C           -1.24455025012966       -2.68992457217499       -0.08844780703308
H            4.10977743057676        1.44535332216522        0.63351824392129
H            3.50508666998895        1.73115288165831       -0.93360265331561
H            2.79946158230509        2.41542351694492        0.41033582306639
H            2.90819158584462       -3.05633684416228       -0.05309379424465
H           -1.46898767329428        3.01003649371680       -0.04220267691636
H           -2.74844219200274        2.11154267684046       -0.98173827427517
H           -2.80439659424431        2.09820960911564        0.79797201877947
H           -0.83622866130276       -3.18691675338177        0.82981920331138
H           -0.69814482127878       -3.14978990895896       -0.93990470578111
H           -2.29416240155088       -3.03175218725700       -0.17967298348174
H            0.82921671194261       -2.81963536520443        0.06524218626234
25
 energy: 91.933267746363 xtb: 6.6.1 (8d0f1dd)
C            3.20964828974160        1.53688038095663        0.07623088643408
N            2.31599015581243        0.39606982259298        0.06885009713877
C            2.50054083513787       -1.97686861203318        0.15715656386266
N            1.22750001376256       -1.94067787845271        0.12262365484469
C            0.38132257241410       -0.91019724876284        0.03930778970563
C            0.99265382686855        0.37395878102889        0.05087118737810
C            0.09443303272397        1.49775855547798        0.03961327379608
O            0.44361315133052        2.65344400795625        0.00829594180151
N           -1.23140996049609        1.05877326936586       -0.05243353688672
C           -2.14710371902073        2.16850874798476       -0.08082670052654
C           -1.85430672643824       -0.21830573227911       -0.09991154635346
O           -3.05467838995037       -0.36708011918488       -0.16321121779139
N           -0.98056487665401       -1.26430479604078       -0.04075945894748
C           -1.23826696885325       -2.70400067838659       -0.08476884162645
H            4.15755594100481        1.39965781436597        0.63551660340072
H            3.46279173110192        1.77098489580917       -0.96196053350287
H            2.81898856610437        2.49854703497306        0.46555695518085
H            2.84138859126491       -3.11257946507176        0.09117555391555
H           -1.49611285529546        3.02131517235629       -0.04973364611863
H           -2.74667362385263        2.13493916581125       -0.98739426355022
H           -2.80352391589782        2.11957475061985        0.78529520982399
H           -0.85888121823145       -3.18262535879005        0.83590100919793
H           -0.72267220095617       -3.15269446888629       -0.94692769910038
H           -2.29211242109346       -2.96122074060586       -0.16403769431706
H            0.89209483740791       -2.85082869863285        0.08260430838792
25
 energy: 99.371304729327 xtb: 6.6.1 (8d0f1dd)
C            3.20184894527402        1.61648538488020        0.08313595904951
N            2.30447693123152        0.50682800408994        0.01555436205765
C            2.50683857000025       -2.15925648286017        0.11255310824223
N            1.25214902827063       -1.96406017425867        0.10611983768353
C            0.41322461991202       -0.90126914901514        0.02429058553593
C            1.01756115253335        0.38587217102265        0.04867696941724
C            0.08400739914147        1.52528544937142        0.03942571749586
O            0.43201869788837        2.65804842929498        0.00845977696163
N           -1.21826616908407        1.05994141614139       -0.05272166651440
C           -2.15480796149832        2.16639266969434       -0.07938468977437
C           -1.85200446525997       -0.24991386476162       -0.09159165211136
O           -3.04477454819585       -0.39385564130391       -0.15351931973328
N           -0.94747538832252       -1.26337274285102       -0.03290384122183
C           -1.22621285915365       -2.70571095159861       -0.07905652678048
H            4.11061301059375        1.43811619852495        0.62612873490088
H            3.47815889206115        1.83281016204259       -0.91526425331131
H            2.88305366316828        2.59559402312910        0.45549757167336
H            2.77874944343947       -3.30492773050453        0.14644528031755
H           -1.51463588434337        3.02195568594466       -0.05182584130974
H           -2.75431312247522        2.13401856960375       -0.98499979660832
H           -2.80923620482398        2.12065899200149        0.78811965892580
H           -0.85823819519911       -3.18408593829393        0.83689199131492
H           -0.73358614692023       -3.15738378567168       -0.94467291141481
H           -2.28607604976293       -2.92582705409966       -0.14881776758531
H            0.84914130946080       -2.86331503835044        0.07049260893642
25