72
 energy: 0.000000000000 xtb: 6.6.1 (8d0f1dd)
N           -1.47310934822924        2.74401318561852        2.22063942287560
C           -1.55658894218425        2.16490305624665        1.13274284460745
C           -2.74549225258129        2.05621251263064        0.23826250649470
C           -3.31377583855761        0.64333417511334        0.32332515650284
C           -4.30230195924506        0.24487112428158       -0.58026167086503
C           -4.85238808050968       -1.02286499940159       -0.53363593669082
O           -5.81420026757557       -1.48606047972767       -1.36157895357670
C           -6.39655692584623       -0.60827005826649       -2.29568495601309
C           -4.39972542350640       -1.94646120241305        0.44396933240983
O           -4.98748357557592       -3.16146026488900        0.41085995818162
C           -4.66362171172287       -4.10093865802695        1.40909140816864
C           -3.42072545213514       -1.54561399150247        1.33436558640148
C           -2.88302826362110       -0.26315802838497        1.27400162590187
C           -2.19303818453636        2.30467021687947       -1.18742988123374
C           -1.26651549989641        1.17243380322503       -1.65249445018642
C            0.01082525039567        1.09745464658138       -0.89354811789923
N            0.61779399208289       -0.02034948241203       -0.57705527866251
C            2.00145228921113       -0.02376006609561       -0.15611401051620
C            2.92554961797610       -0.53865287672537       -1.27700100652360
C            4.35756883501756       -0.43050761225877       -0.83075552032494
C            5.07346182539911        0.73206415878124       -1.03980975472950
C            6.38628045899965        0.84224449235903       -0.60344828301384
C            7.00047329721665       -0.20824758267940        0.05722314949100
O            8.26703733840855       -0.21011315050632        0.52410948507466
C            9.06912311989339        0.92943609656965        0.31863060963839
C            6.27040022445068       -1.40439766990411        0.28033468609137
O            6.94830004375713       -2.38012947787858        0.92752007684741
C            6.31537376337817       -3.61583233633369        1.15217722400438
C            4.96302840674480       -1.49347485723979       -0.16064431849589
C           -0.05511211878686       -1.29906259857679       -0.62085692079872
C           -3.86758072907722        3.07992629005348        0.58498065642721
C           -4.49286201346546        2.77383518785172        1.94313307512182
C           -3.39165211343248        4.52917708609625        0.54797528556046
H           -4.66030069703099        0.94509076131725       -1.31640581036773
H           -6.85037992114187        0.25803164586058       -1.80468862056629
H           -7.17287509152171       -1.18600121846629       -2.79318183475679
H           -5.66836870040540       -0.26952968819383       -3.04040283452035
H           -4.88416765986127       -3.71589494995018        2.40913564538747
H           -5.29223619720187       -4.96637504833431        1.20969248126828
H           -3.61139846644506       -4.39919876145526        1.35529370415983
H           -3.07077825100221       -2.21868786295666        2.10002682176568
H           -2.14562774333496        0.02067850888151        2.01001363031684
H           -3.02188903413801        2.38238034416975       -1.88813562572432
H           -1.65198546223364        3.25146730843841       -1.20556295755141
H           -1.81103391047759        0.23006526775522       -1.62116316669324
H           -0.99335697743926        1.37490224954061       -2.69443281971844
H           -0.67628070635666        1.65183902374723        0.61785732877701
H            0.63525847086258        1.98466388206871       -0.92314029755375
H            2.11132572081740       -0.65949698961381        0.72532619960637
H            2.30680494458141        0.98978260887088        0.11078973822125
H            2.76694224489122        0.06750735773687       -2.17075272340394
H            2.67954606229959       -1.57455642411728       -1.51167757545099
H            4.62170041431221        1.56295626549351       -1.56123593485311
H            6.92357738865082        1.75715832247601       -0.79119604059515
H            8.65159193263071        1.81001840117181        0.81701562739969
H            9.20136256512460        1.14042868409438       -0.74698998879646
H           10.03428931104811        0.69003246578081        0.76064945022918
H            7.05567240429544       -4.23621211097668        1.65347581279537
H            5.43848051513375       -3.50813590722545        1.79970582482858
H            6.02060097762632       -4.09420535105165        0.21253284608183
H            4.40102799328555       -2.40127288651695       -0.00490198294521
H           -0.22071301762289       -1.61775598610935       -1.65116024301020
H           -1.01972267469312       -1.24102728946113       -0.10935207845464
H            0.55899959333766       -2.04486104898380       -0.12333731565713
H           -4.63991918782192        2.95501120214274       -0.18098089750912
H           -3.76095251366987        2.90314731895452        2.73380846416528
H           -4.87457659255110        1.75695657819473        1.97884621460846
H           -5.31925601899505        3.45579242388173        2.12325583951056
H           -2.60025614255587        4.69225089676674        1.27368930043085
H           -3.03987434616939        4.81897697030947       -0.43870979129779
H           -4.22191779840287        5.18069696155015        0.80616701440619
H           -0.59832439338922        2.77744720721660        2.72959009765665
72
 energy: -5.469136208403 xtb: 6.6.1 (8d0f1dd)
N           -1.48986249401588        2.77927300143999        2.23862429049563
C           -1.56337632238008        2.15355569160941        1.15725523783002
C           -2.74741260780824        2.06013061287048        0.24626536884171
C           -3.31932804217468        0.65004800612281        0.32843650631441
C           -4.30527583384472        0.24725621735026       -0.57535092590925
C           -4.85172668314742       -1.02163557920750       -0.53163166338390
O           -5.81812214147022       -1.48860884013782       -1.36325946754406
C           -6.39605725321946       -0.60874026116399       -2.29600651532445
C           -4.40010844245064       -1.94325455278425        0.44370803084743
O           -4.98943672059086       -3.16526724057788        0.40969730106153
C           -4.66076020847663       -4.09968577076415        1.40858843376584
C           -3.42525632432644       -1.54093255974666        1.33631770209778
C           -2.89083243375240       -0.25733231629470        1.27846296649891
C           -2.19532457380702        2.29915875448051       -1.18390407318896
C           -1.26166218274012        1.18301421767522       -1.67717778747307
C            0.01004521657589        1.12077780889976       -0.89963723829628
N            0.63167713343391       -0.04106207120714       -0.56580437414963
C            2.00728369070662       -0.03823740548696       -0.15823276483922
C            2.93573954698670       -0.54263704354919       -1.28071898574885
C            4.36384023135555       -0.43516307196850       -0.84274166129994
C            5.07810360781504        0.73052937942808       -1.04413827354128
C            6.38787888085411        0.84215697906675       -0.60169923978199
C            7.00098503130242       -0.20885303289248        0.05896659377281
O            8.27532845250092       -0.21196654714505        0.52818535681340
C            9.07065786167502        0.92905642950926        0.32005620086852
C            6.27212966148299       -1.40288178536711        0.28091332223830
O            6.95276566110120       -2.38271919043529        0.93132062975481
C            6.31544338677803       -3.61551083297621        1.15266334430983
C            4.96827436951603       -1.49490121849691       -0.16544456984273
C           -0.04968837629423       -1.30808512830943       -0.61897717144122
C           -3.87419197447443        3.07859968102126        0.58198979252305
C           -4.49707350189007        2.77635063940115        1.94266224802695
C           -3.39555930239874        4.52780242176700        0.54853670740346
H           -4.65798524610247        0.94500682424098       -1.31664613082688
H           -6.84823031729089        0.25898481918258       -1.80492855281733
H           -7.17321665332605       -1.18476722029914       -2.79541784106726
H           -5.66634123730396       -0.26889108078048       -3.03883114298169
H           -4.88055411285204       -3.71342049288481        2.40886083238529
H           -5.28715373184079       -4.96768947654651        1.21143440843774
H           -3.60739508963334       -4.39458270609798        1.35595393082320
H           -3.07097436137246       -2.21718747312420        2.09830030260527
H           -2.14631449673746        0.02481840012466        2.00673375879987
H           -3.02686309517285        2.38526262281463       -1.88393691222385
H           -1.65074045103539        3.24427020584081       -1.20032453991522
H           -1.79937130710679        0.23691444352758       -1.62897191266063
H           -1.02181759603498        1.38284555734560       -2.73114399106477
H           -0.68710773209553        1.64679067008008        0.65421180627391
H            0.64828963258358        1.99267626810189       -0.96195790165260
H            2.12364023570752       -0.66905158231048        0.72745340247160
H            2.30044772404936        0.98010317000246        0.10711843958686
H            2.76567470190131        0.06735056166573       -2.16946854576086
H            2.68313231966621       -1.57699990592247       -1.51481606240072
H            4.62322666323146        1.56237459104543       -1.56118075885296
H            6.92540126432694        1.75805628744926       -0.78758828950853
H            8.65048103872249        1.80972555777051        0.81711514006799
H            9.20045659190824        1.14066227358972       -0.74636868013970
H           10.03720813154958        0.69280031129246        0.76139742429760
H            7.05376393687173       -4.23864372914472        1.65445971625137
H            5.43683801089904       -3.50685550765018        1.79789241344579
H            6.01927503230174       -4.09232551711339        0.21221607363467
H            4.40318157120297       -2.40046832687737       -0.00634913007021
H           -0.22065471000273       -1.62520100327408       -1.65243325640638
H           -1.01533609218101       -1.24293430076917       -0.10937874546261
H            0.55900742439768       -2.05764728844537       -0.12056470621112
H           -4.64935308363907        2.95901699735839       -0.18367111307668
H           -3.75633400115139        2.90249840579396        2.72609083797122
H           -4.87537179455569        1.75770525031329        1.97836798301073
H           -5.32401882743212        3.45848789382779        2.12755577697762
H           -2.60042659428896        4.68208697053899        1.27219607007511
H           -3.03981988985203        4.81402771210106       -0.43806471396015
H           -4.22370909093564        5.18417636474333        0.80722723864990
H           -0.60813328331647        2.77907983243135        2.74201858205472
72
 energy: -7.092690769397 xtb: 6.6.1 (8d0f1dd)
N           -1.51664776657718        2.82573233838902        2.24708629845372
C           -1.57173300701417        2.15388713891126        1.18096528887181
C           -2.75087909577924        2.06306173148764        0.25402554260606
C           -3.32562736822901        0.65495650163974        0.33272867666179
C           -4.31030984511847        0.24958364365905       -0.57064920455741
C           -4.85378974993536       -1.01995205729396       -0.52839813292226
O           -5.82286177237703       -1.49019991751925       -1.36463450176310
C           -6.39446100161143       -0.60821437663623       -2.29674988621434
C           -4.40304702469830       -1.93950527125273        0.44481200762756
O           -4.99071563708869       -3.16895395059805        0.40920367529780
C           -4.65409772889172       -4.09703257631171        1.40854942275618
C           -3.43205779757295       -1.53650897020254        1.34024365804816
C           -2.90103970288123       -0.25255217790821        1.28434726917842
C           -2.19557164786706        2.29920468131812       -1.17753140371143
C           -1.25913535519741        1.18880261189270       -1.68883857728075
C            0.01463112091516        1.13603378163463       -0.91052508190903
N            0.63997939657702       -0.05468097321994       -0.56067125538133
C            2.01131927203634       -0.04952274846822       -0.16441563677799
C            2.94648394319677       -0.54766407255192       -1.28732428910624
C            4.37207405157461       -0.44012453771208       -0.85337562173636
C            5.08630200750517        0.72672170120442       -1.04911017713987
C            6.39380820463072        0.84040946533804       -0.59991109671542
C            7.00473812255358       -0.21062984360431        0.06067612834903
O            8.28445858423658       -0.21352324841338        0.53314710903685
C            9.07273349151705        0.92935226236260        0.32271395592663
C            6.27753263737852       -1.40254078992041        0.28007735503636
O            6.95792035234551       -2.38568001174521        0.93573315512459
C            6.31451958387530       -3.61476673447311        1.15326642614528
C            4.97633745873223       -1.49713623592669       -0.17280573296767
C           -0.04771765297009       -1.31325926809729       -0.62123097542734
C           -3.88100700841597        3.07808817226836        0.57927769576246
C           -4.50353922275565        2.77834039906946        1.94151062234475
C           -3.40034183777548        4.52702876878949        0.54746757224030
H           -4.65703157364042        0.94528485510070       -1.31701317068434
H           -6.84531058379469        0.26100865251732       -1.80613545023118
H           -7.17240213919062       -1.18105809046216       -2.79956577416556
H           -5.66213610131988       -0.26804334235214       -3.03704934911737
H           -4.87380753338645       -3.70975890118868        2.40898139799033
H           -5.27542393520829       -4.96996561956261        1.21537845148616
H           -3.59874300436703       -4.38590111091638        1.35655720156542
H           -3.07319224654719       -2.21509422735705        2.09837463169867
H           -2.15224174787537        0.03001183538266        2.00756553484943
H           -3.03281954991590        2.39386646315953       -1.87242330525008
H           -1.64807209255446        3.24302864284976       -1.19020825843109
H           -1.78577900858798        0.23663702612348       -1.63522225820871
H           -1.05636363667315        1.39405028802022       -2.75371770369631
H           -0.70437050970967        1.62134572244308        0.71434991285637
H            0.67555106360844        1.98632268930412       -1.01527877979703
H            2.14207530721950       -0.68092215884046        0.72257482877823
H            2.29778516959364        0.97010745156963        0.10396013518412
H            2.76684691481506        0.06667435098440       -2.17105420554284
H            2.69059588057135       -1.58107461968249       -1.52472185423801
H            4.62862833919263        1.55912761442492       -1.56277111616157
H            6.92968787986772        1.75894696953393       -0.77975871249909
H            8.64956644525114        1.80985270932262        0.81833437561029
H            9.20029244154323        1.14133404451745       -0.74444478843368
H           10.04153421103678        0.69876749342874        0.76286748513002
H            7.04867611453165       -4.24247437034497        1.65619437018467
H            5.43382616951080       -3.50419141883159        1.79552348439936
H            6.01792018210799       -4.08945271387186        0.21148843818187
H            4.40786246079124       -2.40022909735975       -0.01155959029779
H           -0.22121101718510       -1.63616036874071       -1.65504326069375
H           -1.01403002590170       -1.24720613628216       -0.11328980680871
H            0.55523016153766       -2.06812733027021       -0.12044196381505
H           -4.65741804006874        2.96109081507298       -0.18678358183933
H           -3.75375981978484        2.90280721099511        2.71646416044250
H           -4.88094994458539        1.75909867258150        1.97932972050686
H           -5.32902530248449        3.46134440317009        2.13232181423880
H           -2.60244127517059        4.66924129110513        1.27022154732087
H           -3.04100208668435        4.80956694853768       -0.43895785747620
H           -4.22464340588596        5.18848346413847        0.80774678693475
H           -0.63026336809278        2.78219622774337        2.75003275663167
72
 energy: -7.364933592855 xtb: 6.6.1 (8d0f1dd)
N           -1.54501752380914        2.85878866041355        2.25294136740636
C           -1.58393313279860        2.15631288733644        1.20238697650267
C           -2.75629009618171        2.06495664816703        0.26144970098309
C           -3.33207387475628        0.65798699030817        0.33662050108028
C           -4.31538741904974        0.25178446350967       -0.56759079117115
C           -4.85800007471489       -1.01805905830094       -0.52510687811212
O           -5.82693588052382       -1.48961272519750       -1.36499416133860
C           -6.39206082456809       -0.60618678014324       -2.29814789379599
C           -4.40773858741665       -1.93634752005431        0.44733214667869
O           -4.99033581067306       -3.17109456718851        0.41039053082345
C           -4.64389972402874       -4.09366640590911        1.40986459691931
C           -3.43955220824818       -1.53289202015225        1.34558626913343
C           -2.91121012436474       -0.24874090650367        1.29099881990476
C           -2.19460626753311        2.30155288482871       -1.16783424117863
C           -1.26004620408510        1.19152556000940       -1.69043083092239
C            0.02205082412209        1.13974515753933       -0.92737717356096
N            0.64372937807309       -0.06351519147497       -0.56407203733341
C            2.01545429172187       -0.05932817246276       -0.17383665865994
C            2.95615553659935       -0.55208908487561       -1.29810823131428
C            4.38089238129655       -0.44428000943267       -0.86197769062670
C            5.09626801551585        0.72282511072082       -1.05369051508834
C            6.40190221695237        0.83807347079358       -0.59851001651960
C            7.01127209697309       -0.21330553462622        0.06220159570892
O            8.29241811368061       -0.21420983082018        0.53838241338695
C            9.07554675323884        0.93067540790179        0.32660916439882
C            6.28479603611161       -1.40448440328578        0.27826627027568
O            6.96188033104582       -2.38899398054711        0.93932430610994
C            6.31237152588993       -3.61460848031897        1.15395492186688
C            4.98528836386201       -1.50047858181200       -0.18054909711956
C           -0.04766390617338       -1.31825623126244       -0.62644070345724
C           -3.88888384114894        3.07868226261711        0.57793861148230
C           -4.51234928238393        2.78089174445262        1.94063517396316
C           -3.40559485635596        4.52678142182361        0.54535759432103
H           -4.65789592051529        0.94637034776162       -1.31698237234385
H           -6.84220830796774        0.26443642723197       -1.80889697845611
H           -7.17017903422428       -1.17556050428173       -2.80502105278262
H           -5.65612715455402       -0.26707807968252       -3.03557989139005
H           -4.86426021920063       -3.70606674961619        2.41031319433478
H           -5.25763799578845       -4.97311118597420        1.22105179519425
H           -3.58588322858599       -4.37378690512578        1.35710411817182
H           -3.07859266182844       -2.21182773271721        2.10211797802911
H           -2.16361338213713        0.03612402870262        2.01440198814900
H           -3.03467564864469        2.40484597635747       -1.85891730916072
H           -1.64283984669263        3.24286322833060       -1.17560657635579
H           -1.77832907703172        0.23513057582284       -1.63681566540294
H           -1.08349482642377        1.40493472082587       -2.76049426492342
H           -0.72193003689524        1.59403221962061        0.77706514263669
H            0.70299910210507        1.97036216630864       -1.06657177444978
H            2.15738302646905       -0.69438194476357        0.71121565785875
H            2.30038197684155        0.95929097565940        0.09943828992306
H            2.77369011558467        0.06551850937833       -2.17888830211804
H            2.70137951041146       -1.58515425960437       -1.54010660669906
H            4.63827745716288        1.55523988900309       -1.56689886522803
H            6.93548648359759        1.75938664213003       -0.77108680119455
H            8.64943551564849        1.81060610875250        0.82113391929880
H            9.20154578902502        1.14254706012761       -0.74104834598549
H           10.04647051682997        0.70627359672941        0.76576879933002
H            7.04114053073097       -4.24711666679531        1.65899634011954
H            5.42958803353833       -3.50054782011254        1.79294235957166
H            6.01646436358527       -4.08707694884409        0.21069562106174
H            4.41523893254065       -2.40259512352975       -0.02029911717853
H           -0.22017807369022       -1.64735692717066       -1.65940080295731
H           -1.01522550942381       -1.25172641965972       -0.12092409488702
H            0.55035426245611       -2.07647684313969       -0.12198845529844
H           -4.66385959086486        2.96049949435151       -0.18985457734677
H           -3.75767734524547        2.90463656094906        2.71047157164978
H           -4.89142301432495        1.76227209600421        1.98042935520003
H           -5.33527470042592        3.46558600922918        2.13499571846438
H           -2.60647837884640        4.66058298014622        1.26779559943614
H           -3.04472015271353        4.80656575509569       -0.44116837638531
H           -4.22606240742534        5.19213738033127        0.80676757118185
H           -0.65781653246358        2.79847994818699        2.75475770264554
72
 energy: -6.867195167773 xtb: 6.6.1 (8d0f1dd)
N           -1.59986380583844        2.91391739487626        2.26423375370688
C           -1.61092091171170        2.16205226379440        1.24401899592619
C           -2.76817504129750        2.06672771825655        0.27808066283383
C           -3.34637805393771        0.66243799914795        0.34604931099466
C           -4.32550727652177        0.25560888251723       -0.56190649816755
C           -4.86802371845321       -1.01459485283259       -0.51854794455579
O           -5.83482179475218       -1.48645017443820       -1.36476937345234
C           -6.38614096977966       -0.60040687859787       -2.30199904195714
C           -4.41858942213412       -1.93098835431370        0.45371854908271
O           -4.98806277189474       -3.17458181286785        0.41506903828733
C           -4.61857019634727       -4.08661144564293        1.41440676159445
C           -3.45670493891444       -1.52595257285361        1.35860721402121
C           -2.93373009152367       -0.24134114806936        1.30723168505661
C           -2.19024405962509        2.30637289573054       -1.14353903030694
C           -1.26409836052080        1.19449097023209       -1.68806480218077
C            0.04042839180483        1.13667859293982       -0.96821990789846
N            0.64920241133614       -0.07909646617136       -0.57899586198188
C            2.02484487419055       -0.07974381530037       -0.19842798586935
C            2.97629370453410       -0.56075480353727       -1.32521376182993
C            4.40007066722562       -0.45237834985731       -0.87988557537130
C            5.11817204261080        0.71501375611061       -1.06334745102110
C            6.41977936036627        0.83271162417291       -0.59590727438434
C            7.02666354700180       -0.21935526446553        0.06567095345216
O            8.30748912894343       -0.21477601756324        0.54997025659164
C            9.08223097816392        0.93432857577051        0.33652577605271
C            6.30053515151486       -1.41038445148207        0.27374571496956
O            6.96852326203411       -2.39652176737787        0.94524461135226
C            6.30645643305034       -3.61534047596604        1.15531832561199
C            5.00425307588496       -1.50811612376944       -0.19737865633781
C           -0.04803067855680       -1.32961161232012       -0.64041858347536
C           -3.90537341401506        3.08016428355493        0.57728869191522
C           -4.53465763436378        2.78823218871687        1.93917357993828
C           -3.41835020482912        4.52694735927968        0.54009122992818
H           -4.66075566576002        0.94877241514098       -1.31585256235055
H           -6.83530935671499        0.27330962249815       -1.81677829867828
H           -7.16385810345004       -1.16283347419023       -2.81764798509889
H           -5.64150891160362       -0.26495625661021       -3.03287323427024
H           -4.84102639876481       -3.69946361565329        2.41491771457060
H           -5.21364399393311       -4.98106791577236        1.23421137632171
H           -3.55423112688988       -4.34474786493777        1.35825186090108
H           -3.09458969313663       -2.20356569503955        2.11485544121893
H           -2.19359846253856        0.04901867994820        2.03592469543952
H           -3.03182052772349        2.42922961329938       -1.83037899043109
H           -1.62733412183650        3.24094277531275       -1.13910720751941
H           -1.77182791411394        0.23318024057873       -1.63456942871328
H           -1.13105263529021        1.42479341734726       -2.76383308746143
H           -0.75740297070632        1.54402293993300        0.90368755364322
H            0.75460279210772        1.93075559200668       -1.16547977638330
H            2.18128722472580       -0.72473654627285        0.67958113219784
H            2.30973091928908        0.93536571494932        0.08673698415792
H            2.79480721043678        0.06314449010089       -2.20152470027173
H            2.72714300544920       -1.59325288606960       -1.57796612664461
H            4.66236057213954        1.54747055030333       -1.57806482106058
H            6.94907510503821        1.75899959334142       -0.75425791151474
H            8.65018947992353        1.81271604895974        0.82922005718830
H            9.20595773042564        1.14570346104242       -0.73185760042784
H           10.05675110659015        0.72175764462476        0.77439400173420
H            7.02327008353131       -4.25712822464170        1.66620909852345
H            5.41925017727774       -3.49230101406230        1.78703409290299
H            6.01300884100682       -4.08406555327255        0.20932591540756
H            4.43316553865253       -2.41019614585755       -0.04257178115118
H           -0.21595961089212       -1.67002086304784       -1.67136927173732
H           -1.01890477030152       -1.26024623322121       -0.14117663888321
H            0.54065408951056       -2.09170733060487       -0.12688202905764
H           -4.67534103591678        2.95667480068599       -0.19516966126820
H           -3.77571438509758        2.91046469065062        2.70394269203425
H           -4.91924709160162        1.77177942336665        1.98183354135412
H           -5.35219078514323        3.47760791234880        2.13620309325419
H           -2.61769376402737        4.64999601752845        1.26154752827105
H           -3.05639902015970        4.80126068050966       -0.44730447483000
H           -4.23230636730339        5.19878036467082        0.80254391935845
H           -0.71633804996179        2.84515658450532        2.76890805920838
72
 energy: -4.241278491444 xtb: 6.6.1 (8d0f1dd)
N           -1.67837991002832        2.98863873617058        2.28072101660198
C           -1.65288689586872        2.17108583101611        1.30715516862751
C           -2.78590740443802        2.06770143814516        0.30559714000170
C           -3.36850304593849        0.66784992725951        0.36214265837465
C           -4.34001683959507        0.26066995078106       -0.55320314832222
C           -4.88370594168141       -1.00992448923508       -0.50867093380888
O           -5.84639841403528       -1.48020139878999       -1.36359995547800
C           -6.37615710218531       -0.59052950753503       -2.30859167504374
C           -4.43582323953951       -1.92398501102409        0.46436690016708
O           -4.98367326453679       -3.17960826626938        0.42425380655070
C           -4.57665956429958       -4.07618516314651        1.42268062551070
C           -3.48467598552778       -1.51580952005682        1.38053436244434
C           -2.96973152120446       -0.23051227978793        1.33480182298464
C           -2.18083598907970        2.31360498374222       -1.10274521336412
C           -1.27119137830602        1.19714061237140       -1.68146755075919
C            0.07215066829384        1.12449944194567       -1.03832550991605
N            0.65637501798364       -0.10034364483849       -0.60757418651506
C            2.03984744540441       -0.11078616017370       -0.24013771516792
C            3.00718593053322       -0.57354044290782       -1.37022526110427
C            4.42976815131843       -0.46425247739714       -0.90760101305976