25
 energy: -43.832437159403 gnorm: 0.098153563575 xtb: 6.6.1 (8d0f1dd)
C            3.24228911830050        1.17499468176010        0.08619626157936
N            2.30547223790626        0.08834061248367        0.04036978538275
C            2.59726172060140       -1.22036299465701        0.03245980698359
N            1.43826280369192       -1.92562529425461        0.01531760379151
C            0.39747707257421       -1.06443087753869        0.00150126286702
C            0.93310941400914        0.22540657378809        0.01772848238376
C            0.10581576473063        1.40113974697228       -0.00407573436814
O            0.50163904413662        2.55132377278095       -0.00332952867033
N           -1.25146954043208        1.05302590264133       -0.03429301470114
C           -2.21026032188251        2.15398493900615       -0.05595641662563
C           -1.81893376985335       -0.18776867891632       -0.04625128454333
O           -3.01486262392439       -0.37140237811338       -0.07371639746446
N           -0.95839852466675       -1.30653376223266       -0.02780326893960
C           -1.51363934362063       -2.64520858129126       -0.05272900518395
H            3.72902005509954        1.22272535327690        1.06533409847042
H            4.01078637399083        1.05555020848331       -0.68027177596875
H            2.70151074054061        2.10919505975219       -0.07925914312672
H            3.58239103246267       -1.64142127769335        0.04751135778665
H           -1.65681122050058        3.08797599801543       -0.02965349838850
H           -2.81345904889619        2.09775339049221       -0.96141982902237
H           -2.86883941155412        2.08503140922427        0.80731239622306
H           -1.11733372975777       -3.23211427185379        0.77518805653939
H           -1.26423080228176       -3.14297871371881       -0.95509926374205
H           -2.62830050078574       -2.68888555097871       -0.04715747147766
H            1.38637405449717       -2.93062756059464        0.00225889553207
25
 energy: -43.836366968995 gnorm: 0.035223965029 xtb: 6.6.1 (8d0f1dd)
C            3.24313592421361        1.18020374346112        0.08822476986500
N            2.30671118889100        0.09908200893277        0.03823192741290
C            2.60153271230052       -1.23590949590924        0.03295337491892
N            1.42472160915241       -1.93487800876573        0.01292897287558
C            0.39334620430517       -1.06378689511111        0.00028585787930
C            0.92277483919152        0.22589880180607        0.01662709660255
C            0.10659821405300        1.39175005367595       -0.00479022470347
O            0.49638845052590        2.56177328615475       -0.00452563124143
N           -1.26391867376704        1.04601082027210       -0.03335802664136
C           -2.21510631476365        2.14910060508001       -0.05572588212624
C           -1.82638531145246       -0.19462402183721       -0.04588936448047
O           -3.02575013457028       -0.37856672819438       -0.07487081931449
N           -0.95614574016741       -1.30580383492161       -0.02870377504328
C           -1.49276572171597       -2.64783725362599       -0.06109947570356
H            3.73260494931031        1.22502798387520        1.06655411691884
H            4.00849176888677        1.05798043736105       -0.68143088434476
H            2.69662159533162        2.10820008799362       -0.07653783612881
H            3.58010808354486       -1.65992374152098        0.04974431671797
H           -1.64559589647442        3.07543199893870       -0.03044887268422
H           -2.81784036720198        2.09850982953762       -0.96209725772274
H           -2.87423405395928        2.08512788044538        0.80898198368079
H           -1.12208209817004       -3.22605308193786        0.78799148913390
H           -1.23200960122080       -3.15179068658998       -0.98606607703636
H           -2.59204369046604       -2.61713801148742       -0.01728940721874
H            1.36571265860830       -2.93869807079917        0.00047200370115
25
 energy: -43.837432061290 gnorm: 0.013877615437 xtb: 6.6.1 (8d0f1dd)
C            3.24496842134061        1.18422371343620        0.08691859697418
N            2.30696197105118        0.10918884298466        0.03594835730712
C            2.60750313213544       -1.23364612448454        0.03334411840014
N            1.42500676007474       -1.93385965990208        0.01554709051185
C            0.39078009850056       -1.06519728490615        0.00308878420381
C            0.91827411820855        0.22545492740993        0.01717166293876
C            0.11496626664981        1.38712144431177       -0.00387043627287
O            0.50305802921538        2.56304826211225       -0.00380936345801
N           -1.26349109805422        1.04858975482717       -0.03276680445048
C           -2.21092368875913        2.15362856040653       -0.05600668498137
C           -1.82487383953089       -0.19189699201881       -0.04488283648040
O           -3.02563397044626       -0.36895484472686       -0.07218444322475
N           -0.96080723032587       -1.30815063694688       -0.02339253898340
C           -1.51047675659334       -2.65289818790992       -0.05635854764786
H            3.73187855254298        1.22587144787765        1.06636510243438
H            4.01202041910227        1.05608545737397       -0.68047506996842
H            2.70154795500304        2.11190456198500       -0.08089163849924
H            3.58632852583443       -1.64740405807191        0.04708546249569
H           -1.64865384321283        3.08523326487875       -0.03031044295804
H           -2.81318736041176        2.10084603895797       -0.96223696876228
H           -2.87026084278078        2.08744581581710        0.80821220002907
H           -1.12898646395052       -3.23627968924045        0.78339048733066
H           -1.24216034701579       -3.15429401911501       -0.98439254067863
H           -2.60446752069136       -2.66031552828351       -0.02999007474964
H            1.37549930649940       -2.93665735993918        0.00465890380667
25
 energy: -43.837510690780 gnorm: 0.008813855689 xtb: 6.6.1 (8d0f1dd)
C            3.24552270446738        1.17918776235407        0.08994826379306
N            2.30759286504055        0.10699677944530        0.03624004101155
C            2.60775372287353       -1.23586294154049        0.03323520611598
N            1.42554621354360       -1.93321986961808        0.01065068019834
C            0.39383745733540       -1.06398138894698       -0.00217163488484
C            0.91959319172310        0.22591073206103        0.01557516461590
C            0.11708514528837        1.38656822057558       -0.00574899327733
O            0.49866060259715        2.56213370367944       -0.00351426271819
N           -1.26395663171227        1.05015793574200       -0.03602924120246
C           -2.21507164625173        2.15025984964751       -0.05650159854576
C           -1.82048630945234       -0.19122081822678       -0.04993027640836
O           -3.01996017575676       -0.37250278530764       -0.07706950485767
N           -0.95619886562631       -1.30419832442308       -0.02759970883596
C           -1.51207965304122       -2.64479827481877       -0.04998670470452
H            3.73311627330787        1.21906409452096        1.06880832100756
H            4.01060469419410        1.05548630516203       -0.67993728887220
H            2.70039598689080        2.10679320880876       -0.07335350431368
H            3.58535015565081       -1.64914192908845        0.04874845972690
H           -1.65558885299991        3.08276504787181       -0.02995689306762
H           -2.81891202830072        2.09605889174979       -0.96172780337942
H           -2.87340657510990        2.08097539883668        0.80830341864081
H           -1.11627529691183       -3.22418716425636        0.78508043840578
H           -1.24969909493223       -3.14868847076399       -0.97380907650412
H           -2.60790021020342       -2.64962246197079       -0.02615089987060
H            1.37934692177160       -2.93584579465992       -0.00294022675619
25
 energy: -43.837573621645 gnorm: 0.006031610464 xtb: 6.6.1 (8d0f1dd)
C            3.24249516134516        1.17942624245467        0.08567739082133
N            2.30577485435444        0.10552313029511        0.03711998026262
C            2.60508295981953       -1.23683101471218        0.03666368270657
N            1.42342559861793       -1.93333313787890        0.01717769362665
C            0.39288758913071       -1.06465022267557        0.00281186325890
C            0.91836321006846        0.22512830421889        0.01933993419762
C            0.11640480273941        1.38559814821507       -0.00279642460771
O            0.49476930274335        2.56034843739891       -0.00365766933767
N           -1.26558855507869        1.04937318368196       -0.03168158243252
C           -2.21221933272554        2.15200180067372       -0.05549495563087
C           -1.82133215764971       -0.19286853528144       -0.04427140972100
O           -3.02065130239534       -0.37538990214012       -0.07295436789774
N           -0.95611404452507       -1.30510982535723       -0.02539482128628
C           -1.50833295416808       -2.64694105219769       -0.05596650316410
H            3.73087736049363        1.22668511939851        1.06374534589135
H            4.00804107393621        1.05580553058066       -0.68369907232817
H            2.69736162311522        2.10706918205248       -0.08163481686378
H            3.58258571280124       -1.65040980040118        0.04939973349826
H           -1.64593321045022        3.08039815996774       -0.03033816409254
H           -2.81459557599432        2.09995403292434       -0.96183038014134
H           -2.87163913133303        2.08901343893267        0.80894011970988
H           -1.11890821136889       -3.23039224757322        0.77912491583247
H           -1.24142687613779       -3.14770082851386       -0.97924396880157
H           -2.60475051443336       -2.64736972243925       -0.03630630109072
H            1.37829321148036       -2.93624071479045        0.00543215290732
25
 energy: -43.837613194455 gnorm: 0.004328546092 xtb: 6.6.1 (8d0f1dd)
C            3.24423645461009        1.18079671906802        0.08915450172452
N            2.30634362084196        0.10676292064543        0.03528680291429
C            2.60491804124783       -1.23585291653581        0.03238676917171
N            1.42260585344228       -1.93256247133950        0.01286644200081
C            0.39158605663916       -1.06453294715557        0.00036146298518
C            0.91831040350152        0.22578839910586        0.01636760610822
C            0.11754769298125        1.38682969476991       -0.00520842030927
O            0.49683639767346        2.56158286267315       -0.00531403467011
N           -1.26560183228649        1.04995277532111       -0.03367427947990
C           -2.21203642295257        2.15268237541352       -0.05640342058439
C           -1.82288365804840       -0.19241096875880       -0.04560792701716
O           -3.02310845717703       -0.37258803329923       -0.07295916362345
N           -0.95815082485773       -1.30628893278217       -0.02618013151703
C           -1.50796209903062       -2.65083328888524       -0.05468574490236
H            3.73098845077037        1.22456634973120        1.06853240362226
H            4.01286551424886        1.05784376743522       -0.67743978295749
H            2.70287382124625        2.11123496874109       -0.07721742838308
H            3.58324825408215       -1.64914931833356        0.04424022683848
H           -1.64825524619282        3.08280344768895       -0.03020019371768
H           -2.81451299950596        2.10099676849084       -0.96267463417016
H           -2.87131899460521        2.08705442589356        0.80791555698240
H           -1.12530073878119       -3.23298011957611        0.78481484362680
H           -1.24210939324457       -3.15496651416635       -0.97822034364061
H           -2.60358497565910       -2.65190249943776       -0.02670299062725
H            1.37733567544214       -2.93573975787413        0.00072425494222
25
 energy: -43.837634148560 gnorm: 0.003005697530 xtb: 6.6.1 (8d0f1dd)
C            3.24480207794408        1.18006341844159        0.08697603465331
N            2.30750381015568        0.10643565077982        0.03636673116879
C            2.60644600473558       -1.23642461192838        0.03595645369987
N            1.42366769887113       -1.93287731367243        0.01482840954477
C            0.39254041945118       -1.06458470628998        0.00099966241745
C            0.91923670694865        0.22578165295876        0.01755051117058
C            0.11938873188931        1.38718378034939       -0.00400796298182
O            0.49886728264685        2.56218357749036       -0.00247151616484
N           -1.26478868495474        1.05056665349634       -0.03390115426039
C           -2.21363261076571        2.15111990504963       -0.05575429236163
C           -1.82186683201435       -0.19145584328459       -0.04728871418443
O           -3.02213360914954       -0.37127038356724       -0.07563454532197
N           -0.95760073966315       -1.30517173924304       -0.02661501213526
C           -1.50968265349660       -2.64831219381427       -0.05550942992046
H            3.73418875532993        1.22363471462472        1.06512317517018
H            4.01007873604729        1.05558472024792       -0.68288588397420
H            2.70067708602293        2.10890279229773       -0.07867106170085
H            3.58511871520870       -1.64906408361385        0.05062953967304
H           -1.65356558843089        3.08342460240599       -0.02963119635676
H           -2.81695638431045        2.09736518941331       -0.96140540325696
H           -2.87256479683429        2.08285447222974        0.80872258537532
H           -1.12310531473284       -3.23009811696683        0.78244901962736
H           -1.24515792182995       -3.14999958863750       -0.98063708645882
H           -2.60536446252212       -2.65064250989582       -0.02802086341235
H            1.37877416783894       -2.93611233203772        0.00299437530702
25
 energy: -43.837642960973 gnorm: 0.002448559155 xtb: 6.6.1 (8d0f1dd)
C            3.24306198121061        1.17978772444959        0.08839545517580
N            2.30672041450076        0.10596282155336        0.03604819287290
C            2.60597031870554       -1.23675022067997        0.03413730238680
N            1.42354191482418       -1.93311224222189        0.01337432076400
C            0.39256719827223       -1.06493965152257        0.00096378752176
C            0.91856275589438        0.22540097316899        0.01735880733376
C            0.11863036792069        1.38636352883097       -0.00443458955564
O            0.49645785070165        2.56153632732607       -0.00437901996269
N           -1.26568608217759        1.04966765095891       -0.03348394480700
C           -2.21235753401670        2.15172228710466       -0.05639674510258
C           -1.82197878562145       -0.19245344544443       -0.04574797135605
O           -3.02189246825027       -0.37347884483180       -0.07310437623788
N           -0.95724468044025       -1.30524457454923       -0.02551630970397
C           -1.50928934130808       -2.64776521180264       -0.05370868331847
H            3.73037386236874        1.22341732258293        1.06747020167577
H            4.00934237883728        1.05658419305295       -0.68059225496222
H            2.69769694241287        2.10772752878534       -0.07736508813790
H            3.58450108234754       -1.64916982558774        0.04702713923427
H           -1.64811727807236        3.08155516639739       -0.03129083518783
H           -2.81551496564214        2.09932368786334       -0.96228198575034
H           -2.87152630112542        2.08751880350069        0.80825892031700
H           -1.11926700712072       -3.22865728699516        0.78322906830741
H           -1.24353321520217       -3.14893916506710       -0.97781758315145
H           -2.60533873938769       -2.65064530157147       -0.03068970893046
H            1.37918992475399       -2.93632453846755        0.00070827589199
25
 energy: -43.837653376105 gnorm: 0.001274808063 xtb: 6.6.1 (8d0f1dd)
C            3.24453528112999        1.17998451435260        0.08770776472848
N            2.30687604430989        0.10641648457754        0.03578702386602
C            2.60534695814231       -1.23630353774185        0.03445876353716
N            1.42301997035086       -1.93252971294306        0.01440847564842
C            0.39226168246330       -1.06450863025599        0.00089500467618
C            0.91854977672089        0.22598418665942        0.01714918269224
C            0.11836427611153        1.38687199295839       -0.00447083241310
O            0.49586481040197        2.56194011885511       -0.00412549767838
N           -1.26598014457243        1.04974152841423       -0.03369129843783
C           -2.21290723139938        2.15162341323327       -0.05571637179379
C           -1.82214249686840       -0.19257482457626       -0.04662985690718
O           -3.02205205992528       -0.37361620863619       -0.07451449385421
N           -0.95740841513129       -1.30553284989611       -0.02630158032101
C           -1.50896275031198       -2.64876887863855       -0.05461126984783
H            3.73209646456126        1.22445214390247        1.06659808865881
H            4.01174862348939        1.05593075523454       -0.68019322038478
H            2.70196306543323        2.10941039632391       -0.07902917976640
H            3.58365506553996       -1.64925402425152        0.04719464013292
H           -1.64954656601420        3.08196025165150       -0.02901283263185
H           -2.81561495178158        2.10011784792862       -0.96194830010953
H           -2.87239249870442        2.08569773807784        0.80854625649808
H           -1.12228708462236       -3.23060649839069        0.78317219609417
H           -1.24347280003777       -3.15160128554940       -0.97808008857338
H           -2.60498204077713       -2.64998687524650       -0.03019847978767
H            1.37833761587727       -2.93576033920970        0.00276828129140
25
 energy: -43.837642196356 gnorm: 0.002257971961 xtb: 6.6.1 (8d0f1dd)
C            3.24344389164972        1.18050321813512        0.08811585362036
N            2.30710841009982        0.10589555141334        0.03641334081880
C            2.60578163281965       -1.23676583865475        0.03477905806059
N            1.42330470440225       -1.93309990920849        0.01354314511030
C            0.39228953660062       -1.06504985401956        0.00101193798733
C            0.91886791023342        0.22539152761296        0.01785220851295
C            0.11994693547412        1.38694242636827       -0.00384899971647
O            0.49893979650475        2.56161668107070       -0.00344675272431
N           -1.26487010058230        1.05039183344520       -0.03308639794552
C           -2.21238156260844        2.15180466021308       -0.05679085007362
C           -1.82181916608651       -0.19163612329350       -0.04514251110314
O           -3.02204775798499       -0.37137913356371       -0.07312891695627
N           -0.95770221828745       -1.30549838825667       -0.02587007021430
C           -1.50900244571288       -2.64904786831219       -0.05534746967110
H            3.73271612887161        1.22411522222137        1.06626022790436
H            4.00895374445421        1.05820938318920       -0.68177446311147
H            2.69863574607199        2.10916094798415       -0.07641373594293
H            3.58441388841707       -1.64949011984904        0.04839887061189
H           -1.65115626804481        3.08354125725765       -0.03256367143433
H           -2.81576066081177        2.09726157564091       -0.96239006456570
H           -2.87121981245544        2.08603833833902        0.80795680155108
H           -1.12272130875790       -3.23165819058127        0.78204743511121
H           -1.24461517572834       -3.15072693174934       -0.98034401423330
H           -2.60473522773469       -2.65104887629886       -0.02698247511324
H            1.37849997358191       -2.93638368226994        0.00091388883380
25
 energy: -43.825187588184 gnorm: 0.084562068924 xtb: 6.6.1 (8d0f1dd)
C            3.24723083365257        1.18372164388303        0.08816020874092
N            2.31172792995837        0.10154920801054        0.04110037041829
C            2.61411255937750       -1.22217421467550        0.03634914422922
N            1.44734949868791       -1.91853577844289        0.02876023502492
C            0.39898155070969       -1.07430514754062        0.01536637432344
C            0.92618104833315        0.23374652976403        0.02161156164615
C            0.11658305592177        1.39608679754398       -0.00397436638486
O            0.50663753711340        2.56092851209821       -0.00319126807344
N           -1.24863731297253        1.04701046437224       -0.04183324049596
C           -2.20169057059498        2.15492097905303       -0.06209542815014
C           -1.80922513774194       -0.18447837415859       -0.04275295032247
O           -3.02262884481162       -0.35956540389596       -0.08104457317300
N           -0.98343255630377       -1.31697461491229       -0.00996869953998
C           -1.55736620121054       -2.64946805379290       -0.04498812084844
H            3.74592394740089        1.22954876710107        1.06532632810935
H            4.01081361864918        1.07693449060749       -0.68689610053606
H            2.70395579564288        2.11977720587353       -0.06653070100438
H            3.59688153064443       -1.64093329269082        0.05491549790789
H           -1.64242279985821        3.08456510569955       -0.03435503135184
H           -2.80280423359829        2.10203129966500       -0.96947175073665
H           -2.86223516690252        2.09311093538833        0.79971831015110
H           -1.06136091870568       -3.26988870566073        0.72127440953319
H           -1.38170987888225       -3.11246766953149       -0.98034565551104
H           -2.69427744209526       -2.81851625406647        0.00252016506423
H            1.40384165958397       -2.92356391578955        0.01542118884068
25
 energy: -43.829488729611 gnorm: 0.042457334995 xtb: 6.6.1 (8d0f1dd)
C            3.24299345130758        1.18493496532666        0.08975997328304
N            2.30690945371179        0.10432451384146        0.03931248615622
C            2.60666436374311       -1.23472937925200        0.03704195357199
N            1.43009241995549       -1.93049326944925        0.02565673300013
C            0.39006244409348       -1.07445627720967        0.01348743344867
C            0.91552113589101        0.22636278007499        0.02169065835386
C            0.11270869627030        1.38705988162912       -0.00333145736658
O            0.49833471480833        2.56097446504414       -0.00374465936296
N           -1.26351897578682        1.04379563203678       -0.03845241651143
C           -2.20842000761890        2.15186931120979       -0.06238165389118
C           -1.82138319175149       -0.19344846921138       -0.04339029435405
O           -3.02690413289481       -0.36895491320911       -0.08155038023786
N           -0.97477573991887       -1.31560661264119       -0.01210211367352
C           -1.51728287569319       -2.65795177453567       -0.06445925015244
H            3.74384087121134        1.22720926452497        1.06407071195213
H            4.00415936186509        1.07444757306599       -0.68688361928442
H            2.69651707334982        2.11580197695822       -0.06371461947638
H            3.58610097154151       -1.65476570025850        0.05773969543780
H           -1.63257152102531        3.07409766644935       -0.03580837080079
H           -2.80864717012562        2.10321070472465       -0.97034524059177
H           -2.86886009810771        2.09192381741643        0.80114795510133
H           -1.07302433566333       -3.26656247375891        0.73250914695671
H           -1.32869037098849       -3.12513276015602       -1.02521497059391
H           -2.62932891609517       -2.69555616004019        0.05835521030620
H            1.38193187991899       -2.93529424867844        0.01368299659035
25
 energy: -43.831832367506 gnorm: 0.013571574207 xtb: 6.6.1 (8d0f1dd)
C            3.24719724983076        1.19006970343099        0.08880972064344
N            2.30906560089707        0.11152093112583        0.03748736678945
C            2.61064204483673       -1.23051528818870        0.03682894446752
N            1.43049877919526       -1.92881997591237        0.02809077633227
C            0.38589768789305       -1.07417503342128        0.01711764051172
C            0.91515650518472        0.22445898347933        0.02177279129535
C            0.11935173870369        1.38584599149489       -0.00409565604130
O            0.50413520538266        2.56174596829759       -0.00564126662385
N           -1.26180314742498        1.04664487468862       -0.03787821869147
C           -2.20364030601266        2.15517754219858       -0.06275249496563
C           -1.82427645992479       -0.19156973226647       -0.04186135469031
O           -3.02789287354365       -0.35922757144903       -0.07707149768844
N           -0.97967122384085       -1.31764088261472       -0.00231914633583
C           -1.54079986738647       -2.66304098868274       -0.05207960470656
H            3.74692716697065        1.23086500046151        1.06326105274091
H            4.00971654075186        1.07657229872244       -0.68645409551282
H            2.70303128016979        2.12058952675427       -0.06674468445821
H            3.59176051217164       -1.64484613938505        0.05496459786931
H           -1.63209166237412        3.08061206027951       -0.03615990020666
H           -2.80378526824999        2.10508249653463       -0.97029639590585
H           -2.86391022609526        2.09465878889993        0.80086377925403
H           -1.07929455561646       -3.27315160380654        0.72761080511361
H           -1.34589990028995       -3.12142684350822       -1.01672568419882
H           -2.63788584541768       -2.75366579022739        0.02852080873381
H            1.39000052618710       -2.93270380300341        0.01782762413545
25
 energy: -43.831653933965 gnorm: 0.011834789486 xtb: 6.6.1 (8d0f1dd)
C            3.24860038732566        1.18788846671913        0.09287422202050
N            2.31234755493694        0.11130826955078        0.03760358191585
C            2.61599278798797       -1.23149739667502        0.03673162028155
N            1.43501291236434       -1.92862548648151        0.02166077563388
C            0.39050631890977       -1.07293607154284        0.00719526738359
C            0.91868054222214        0.22445010451801        0.01906872356357
C            0.12411161135816        1.38678480357868       -0.00470021305183
O            0.50324989480247        2.56361382548336        0.00044029054624
N           -1.25924189768353        1.04823760443529       -0.04225987632830
C           -2.20711779189859        2.15054536475979       -0.06313422982982
C           -1.81970678767105       -0.19153411253842       -0.05157586856156
O           -3.02197510478191       -0.36125027513937       -0.08898284911705
N           -0.97317766964566       -1.31546596855292       -0.01153111255209
C           -1.55125716269399       -2.65726240998571       -0.04286878998012
H            3.74572288415550        1.22525241961497        1.06853135928153
H            4.00925843334191        1.07575689446809       -0.68435394634169
H            2.70070476792335        2.11631861870221       -0.06089212283478
H            3.59658007174703       -1.64549967991493        0.05760543689817
H           -1.64381539504489        3.08022409904009       -0.03334915991564
H           -2.80826842686450        2.09999900972978       -0.97011946227786
H           -2.86816921739093        2.08526636282675        0.79979268184386
H           -1.06341535694919       -3.26041288200453        0.72567114101127
H           -1.36808878696552       -3.12121473423690       -1.00427240949127
H           -2.65298740137136       -2.74511568997078        0.04495756170809
H            1.39888233388400       -2.93177062248180        0.00898328605504
25
 energy: -43.832000713467 gnorm: 0.004982535119 xtb: 6.6.1 (8d0f1dd)
C            3.24626865379277        1.18764796752964        0.08850132150871
N            2.30984214157031        0.11092356790682        0.03848421401307
C            2.61284953431793       -1.23244461709907        0.03966373869217
N            1.43145736534071       -1.92881280568367        0.02940118417845
C            0.38826059935006       -1.07233739733439        0.01521261990847
C            0.91637824223842        0.22435511067568        0.02366239087232
C            0.12241151355984        1.38645254711600       -0.00291899206037
O            0.49990927427872        2.56328777631675       -0.00420066034725
N           -1.26134718349502        1.04781652000859       -0.03701406840687
C           -2.20482474506018        2.15306422793444       -0.06226235028142
C           -1.82211831233101       -0.19252905129190       -0.04273701680698
O           -3.02437576476310       -0.36287501472546       -0.08041608427847
N           -0.97359279085301       -1.31571918705882       -0.00644895066465
C           -1.54560763627842       -2.66049425333387       -0.05045073977825
H            3.74551175080389        1.22877473441907        1.06278248895074
H            4.00590853412951        1.07393453755357       -0.68944104840085
H            2.69920903568423        2.11646439147066       -0.06707634079179
H            3.59276467204947       -1.64726393575250        0.05661733186157
H           -1.63534942619436        3.07929314852559       -0.03619789318271
H           -2.80583388399252        2.10305583770333       -0.96943608404537