25
 energy: -42.013133588960 gnorm: 0.151488873873 xtb: 6.6.1 (8d0f1dd)
C            3.23720193040000        1.16630930800000        0.08434470430000
N            2.29877838710000        0.07527477770000        0.03981603410000
C            2.58028234130000       -1.21425413710000        0.03006176310000
N            1.43813971430000       -1.93419289900000        0.00098261770000
C            0.39035692070000       -1.05887482460000       -0.00790371910000
C            0.93510065040000        0.21347821430000        0.01709077650000
C            0.09450144770000        1.40504316940000       -0.00410947070000
O            0.49712756140000        2.54126737940000       -0.00342325720000
N           -1.25076651640000        1.06271889340000       -0.03085478510000
C           -2.21907232570000        2.15522119830000       -0.05001257450000
C           -1.81739503910000       -0.20012727850000       -0.04692819010000
O           -2.99983914590000       -0.37846420530000       -0.07008878880000
N           -0.92618594800000       -1.30210227680000       -0.03682761920000
C           -1.46982278550000       -2.64643126740000       -0.06029821020000
H            3.71247298800000        1.21471466430000        1.06488859030000
H            4.00791534790000        1.03430818410000       -0.67357700620000
H            2.69910032210000        2.09770137690000       -0.09130155730000
H            3.56654153700000       -1.63683007790000        0.04233140460000
H           -1.67107976570000        3.09322879970000       -0.02552707170000
H           -2.82428979800000        2.09428644210000       -0.95318091790000
H           -2.87644055860000        2.07745744900000        0.81450075090000
H           -1.17062007260000       -3.19584920310000        0.83242240160000
H           -1.14560268040000       -3.17511639750000       -0.95688284700000
H           -2.55549816150000       -2.55660008040000       -0.07459040490000
H            1.38130868000000       -2.94313879340000       -0.01389874310000
25
 energy: -42.022001158373 gnorm: 0.059948995044 xtb: 6.6.1 (8d0f1dd)
C            3.24388271378617        1.17855836797093        0.08690563033077
N            2.30845670705888        0.09600415963194        0.03746973638448
C            2.60017729260179       -1.23204395395541        0.02979517153248
N            1.42788489928066       -1.94035242798085        0.00086475373775
C            0.39665063203709       -1.05657681476463       -0.00824955993881
C            0.93061690874567        0.22233978417674        0.01500140846440
C            0.10234661929480        1.39580952082407       -0.00543331490146
O            0.49903001957435        2.56166530492444       -0.00488154378361
N           -1.25956281824720        1.05030505336099       -0.03114232499051
C           -2.21967135021798        2.14643457088235       -0.04989314412824
C           -1.82296674804942       -0.20094497925309       -0.04714205896472
O           -3.01959989080699       -0.38317266313899       -0.07020234455824
N           -0.93410093201623       -1.30150053977196       -0.03677833387997
C           -1.47414943937776       -2.64311826595646       -0.06010619748667
H            3.72075746004731        1.22552792488009        1.06949378973238
H            4.01322669853118        1.04404346705822       -0.67475791975816
H            2.69732461246604        2.10303623134785       -0.08997102897655
H            3.57894619307987       -1.65734673387220        0.04213358606146
H           -1.65802472100675        3.07765366104223       -0.02540071996364
H           -2.82499902747976        2.09289519234386       -0.95432095468557
H           -2.87716777612450        2.07626099202749        0.81601118482804
H           -1.17235637291741       -3.19605994924024        0.83092536450199
H           -1.14736170567456       -3.17362260422038       -0.95614599347813
H           -2.55922624256654       -2.55294814666805       -0.07308080440532
H            1.36210129888128       -2.94381873604893       -0.01406050157416
25
 energy: -42.024620528071 gnorm: 0.017433625619 xtb: 6.6.1 (8d0f1dd)
C            3.25228089329795        1.18988318422771        0.09067093603459
N            2.31839660234028        0.10910479463495        0.03284948301598
C            2.61307553416533       -1.24682234393340        0.02905918065056
N            1.41566599812918       -1.93919527653512        0.00090578518662
C            0.40095954515506       -1.05233995960583       -0.00924388737311
C            0.92891693635210        0.23052181916768        0.01094044142175
C            0.10962778209633        1.38261099815473       -0.00899060815085
O            0.48642577912782        2.56554361743292       -0.00968238452287
N           -1.26938207620810        1.03593535243893       -0.03208554422775
C           -2.21840162738399        2.13596814682156       -0.04974740057648
C           -1.82632728040192       -0.20429308531390       -0.04701861241639
O           -3.02789320528754       -0.39244252852989       -0.06931418983362
N           -0.94046161101171       -1.29923425065241       -0.03627787881679
C           -1.47958963769533       -2.63803882241308       -0.05956682876320
H            3.73436161205951        1.24468027360232        1.07294314873259
H            4.02397752794071        1.06725688157697       -0.67289880463114
H            2.69843256687329        2.11087652512865       -0.08407375792283
H            3.58508063089942       -1.68062654120020        0.04148363580166
H           -1.63351923813601        3.05367562700370       -0.02538672798143
H           -2.82478390133091        2.09168751306462       -0.95467960530491
H           -2.87595947277421        2.07539246203785        0.81756676162271
H           -1.17754240151219       -3.19622481629460        0.82904716010926
H           -1.15476490450832       -3.17048480325677       -0.95610345327122
H           -2.56456676814326       -2.54420707921832       -0.06971627449491
H            1.33820574685651       -2.94019927273908       -0.01364669418824
25
 energy: -42.025488126689 gnorm: 0.019329442753 xtb: 6.6.1 (8d0f1dd)
C            3.25778881973789        1.19939627110885        0.09528211937001
N            2.32724700331554        0.11244628281341        0.02722107865429
C            2.61783908876553       -1.25574515177093        0.02713750494376
N            1.40979138428337       -1.93687229306090        0.00064847886196
C            0.40330587130393       -1.05031850294065       -0.01113898627986
C            0.93209211272739        0.23388983427973        0.00533878213518
C            0.11252876940985        1.37515851356349       -0.01567932501448
O            0.46875371431602        2.56454211234268       -0.01952917488745
N           -1.27559471621602        1.02475300972814       -0.03424429175521
C           -2.21451538410990        2.12828509582919       -0.04982065761379
C           -1.82836928216062       -0.21125777579823       -0.04631965344282
O           -3.02990598547955       -0.40560793842129       -0.06648532685085
N           -0.94135882598555       -1.29954644087122       -0.03537323503440
C           -1.48522343399724       -2.63507670834049       -0.05846260001598
H            3.74444070537241        1.26236917515926        1.07615343969879
H            4.03424057066125        1.09900487194117       -0.66817347091955
H            2.69788643258126        2.11918314372835       -0.07258763933666
H            3.58481435635199       -1.70095085217053        0.03984102385607
H           -1.60638521415720        3.03135083631442       -0.02629091892813
H           -2.82280478677986        2.09212502487131       -0.95394898496847
H           -2.87055843984386        2.07628613524879        0.81936028853144
H           -1.18538456971932       -3.19805873343119        0.82784150437838
H           -1.16939460150792       -3.16791862747968       -0.95793266072869
H           -2.57005298900247       -2.53106662454773       -0.06346869947712
H            1.32103443103307       -2.93734224249595       -0.01233471507644
25
 energy: -42.027965921077 gnorm: 0.044430310728 xtb: 6.6.1 (8d0f1dd)
C            3.26731678064678        1.23085958974936        0.11454258547030
N            2.35511501330669        0.11669164695223        0.00629746877169
C            2.63010960416539       -1.27746097718341        0.01713707669206
N            1.40159273344990       -1.93185987103065       -0.00204271201751
C            0.41110024286670       -1.04785571323380       -0.02007232048965
C            0.94691320107829        0.23865482322397       -0.01742824287584
C            0.12004667688493        1.35592220127951       -0.04583006061141
O            0.41745704785559        2.55884966369561       -0.06475408804426
N           -1.28820836709523        0.99094918587572       -0.04477407547123
C           -2.19639320206101        2.10744976526707       -0.05080595610840
C           -1.83233863783037       -0.23687655896336       -0.04287104341379
O           -3.03212244075520       -0.44874031476092       -0.05142897435286
N           -0.93812725326993       -1.30595495737810       -0.03224991492346
C           -1.50566980227764       -2.62963639575048       -0.05321017773295
H            3.76438621136982        1.30957042427246        1.09217684949745
H            4.05948491048033        1.21399839032792       -0.64840614996830
H            2.68234461042294        2.14477505641227       -0.02192101369746
H            3.58150907170240       -1.75947850488996        0.03180025632775
H           -1.51987577391684        2.96629504669052       -0.03269513111720
H           -2.81384237245264        2.09680141845436       -0.94962850089885
H           -2.84336813595435        2.08298364750562        0.82690204191347
H           -1.21324366992222       -3.21006668125154        0.82372778919726
H           -1.23196785589896       -3.16330334330318       -0.96637652239291
H           -2.58923576686254       -2.48255922107157       -0.03433226513233
H            1.27923220496710       -2.93097990528962       -0.00672303852158
25
 energy: -42.032011550844 gnorm: 0.094999990734 xtb: 6.6.1 (8d0f1dd)
C            3.27777186391698        1.29047693337880        0.15506917056251
N            2.40658412626419        0.12091299427618       -0.03566246048935
C            2.65253557479749       -1.31411068492214       -0.00436852860384
N            1.39385940136775       -1.92472204558266       -0.00846639492016
C            0.42633277622558       -1.04648066649479       -0.03930445232456
C            0.97720013619162        0.24322380571017       -0.06411640472648
C            0.13652385102674        1.32234209140467       -0.10989938763378
O            0.33219770725729        2.54452923342050       -0.16167881132951
N           -1.30600700558671        0.93110410790505       -0.06808939817403
C           -2.15917657933482        2.07239369959048       -0.05328296736146
C           -1.83677696769047       -0.28434186655083       -0.03563999149850
O           -3.03260045876847       -0.52563033393810       -0.01784872780181
N           -0.92838810869991       -1.32147157677329       -0.02657891513733
C           -1.54514798357267       -2.62260333055619       -0.04193232632692
H            3.79172127528171        1.38796059440060        1.12764427040022
H            4.09665885121694        1.43744064486418       -0.60721860008008
H            2.64033304969878        2.19063799559994        0.08473846173714
H            3.57514274173639       -1.86355388755418        0.01433651028390
H           -1.36613443611008        2.85296407166982       -0.04791455489316
H           -2.79616607848676        2.10755199600815       -0.93961007762937
H           -2.78504430728031        2.09719403728252        0.84244133383586
H           -1.26472374753396       -3.23791735014328        0.81477823668458
H           -1.36049141097313       -3.15729645767374       -0.98359084221855
H           -2.62534654847394       -2.39029346689055        0.02862408380080
H            1.21135730842965       -2.92128212283127        0.00460465394383
25
 energy: -42.038167687298 gnorm: 0.098252928310 xtb: 6.6.1 (8d0f1dd)
C            3.27529920408640        1.32164497854484        0.18180557225598
N            2.43420115318592        0.11529182831398       -0.05937570611190
C            2.66056304071056       -1.32870561684756       -0.01529806559595
N            1.40036320570165       -1.92310398871671       -0.01084196644848
C            0.43355705905112       -1.04908993510739       -0.05170705485810
C            0.99922769821334        0.23946312341944       -0.09267422422901
C            0.15373102968289        1.31192264955626       -0.15535824446624
O            0.31306768660005        2.52714119286719       -0.23224630840209
N           -1.30686169811119        0.91114680863706       -0.08636336107234
C           -2.14051185156310        2.06080390069119       -0.05379626761686
C           -1.83458914970463       -0.30426409282219       -0.03163955911025
O           -3.02602306500140       -0.55414519120205        0.00643677653632
N           -0.91777981325380       -1.33290398683378       -0.02422286641351
C           -1.56460804460044       -2.62374091830549       -0.03514434188731
H            3.79882902499627        1.41733427786913        1.15035229621273
H            4.09824139727347        1.55799301939426       -0.57800677459128
H            2.60709320450358        2.21041175269737        0.15222091774045
H            3.56684009875102       -1.91430747748512        0.00249516785306
H           -1.32014958193043        2.81168959091291       -0.05640903270672
H           -2.78842538766667        2.11405945564297       -0.93006377192606
H           -2.74867273515066        2.09943434561411        0.85241191332200
H           -1.28927205473135       -3.26000600303248        0.80665524416244
H           -1.43926732027995       -3.15414614183196       -0.99416817900428
H           -2.64006453711462       -2.34704217535866        0.06992995309759
H            1.18742646725174       -2.91785298101725        0.01204176335979
25
 energy: -42.045597821192 gnorm: 0.224564460774 xtb: 6.6.1 (8d0f1dd)
C            3.24753033418095        1.35186255128577        0.21496474953515
N            2.46724964089094        0.07443594640617       -0.09531103101880
C            2.64455539395244       -1.31425583756145       -0.02318091570361
N            1.45564826804395       -1.92412179114208       -0.00682332551838
C            0.43280946545481       -1.05984363572476       -0.06828951251026
C            1.05049137515304        0.21363701294012       -0.12768241783019
C            0.18512820162419        1.33806409710640       -0.21835505086300
O            0.35578047191361        2.47257239944875       -0.33194785839032
N           -1.28261701890435        0.92788715985112       -0.11640345696022
C           -2.11986689978048        2.07740779617539       -0.05339335755440
C           -1.82563726935449       -0.31976913942088       -0.02875974828551
O           -2.99808970011406       -0.55836239406249        0.04221789259936
N           -0.87920804636373       -1.36264122699505       -0.02147085281577
C           -1.57774595906760       -2.64816526879798       -0.02666467567633
H            3.77871589018532        1.40653923740269        1.17509352488488
H            4.04192288558221        1.68742129072121       -0.52813051244108
H            2.54253084685142        2.21573952912565        0.24027259989092
H            3.52893790641547       -1.94927812081830       -0.01742614162789
H           -1.37113043225065        2.81864906288064       -0.06918147116320
H           -2.77195597409832        2.13188591161237       -0.91164446879109
H           -2.69307332910217        2.10133197227155        0.86090917721099
H           -1.31597817560047       -3.30477759866667        0.79268555669483
H           -1.55126722850854       -3.15764305034052       -1.00774547689167
H           -2.63779129248053       -2.31375482097784        0.12775212145623
H            1.20527567627675       -2.91579266711970        0.02554853186932
25
 energy: -42.061233713604 gnorm: 0.140772483830 xtb: 6.6.1 (8d0f1dd)
C            3.24683224287821        1.38959920590949        0.24790001857608
N            2.49866198436138        0.08077879003261       -0.12774145032115
C            2.66607757589625       -1.33655054331481       -0.03991780747487
N            1.44979641442490       -1.92292373068593       -0.01085104503872
C            0.44618982156820       -1.06223209368258       -0.08178330948220
C            1.06670820470885        0.21543717809309       -0.16075846185967
C            0.20148217813942        1.30935649297964       -0.25780923940045
O            0.30383015250005        2.48175151739135       -0.42958882948123
N           -1.28666648484967        0.88507883802991       -0.12967074497207
C           -2.09109969963484        2.05526231975366       -0.05528723417398
C           -1.82242522857226       -0.34791843131402       -0.02254348950731
O           -2.99675087927030       -0.60042606516935        0.07116725315170
N           -0.87525590789677       -1.37499048860897       -0.01673619137245
C           -1.60501186516432       -2.64532691430079       -0.01941815916704
H            3.78560201739157        1.44017106699498        1.20713413084653
H            4.05158589586566        1.83605371833850       -0.49821376200236
H            2.49911866363521        2.23910622831762        0.32537282106250
H            3.53239765919823       -2.00654002747724       -0.03227259971181
H           -1.26887198552218        2.75876784244863       -0.08441014083143
H           -2.76256989647358        2.14009345950637       -0.90344379208338
H           -2.64811666970583        2.11374464588608        0.87527740369469
H           -1.34549479136882       -3.33312661664330        0.78135090211982
H           -1.64315936539926       -3.15415275510753       -1.02127427226917
H           -2.66059398773247       -2.26035769828138        0.17577238536291
H            1.16994898192204       -2.91162752349588        0.03477949443498
25
 energy: -42.074644083614 gnorm: 0.124483066069 xtb: 6.6.1 (8d0f1dd)
C            3.22864269811379        1.42428200044058        0.28530639648922
N            2.51661781900855        0.08288768090709       -0.16013438258304
C            2.67581895199734       -1.33604103483057       -0.05289708574939
N            1.45367472723762       -1.92015088967998       -0.01176515378699
C            0.45022255311931       -1.06689378302538       -0.09536338140162
C            1.07908191164155        0.21167163429396       -0.19725150984538
C            0.21613744070737        1.28946013841242       -0.30268239275941
O            0.27661706121576        2.47292091116848       -0.55794843647264
N           -1.27906053321245        0.85553738091592       -0.13607341633340
C           -2.05691779241297        2.04543590780278       -0.04975903942486
C           -1.81856887081217       -0.36611628881441       -0.01579935958109
O           -2.99455713029176       -0.61263735019718        0.10686228182167
N           -0.87318744425974       -1.39283844289614       -0.01225939216393
C           -1.62770186700199       -2.65433330010285       -0.01525203954724
H            3.77363590655021        1.45342873515797        1.24115070460073
H            4.02618927165863        1.94333825087891       -0.45042863911083
H            2.45552346693364        2.25292325399922        0.39869472894001
H            3.52915512299925       -2.02738324366536       -0.05082263767889
H           -1.18524367637440        2.71818902641059       -0.09994273747490
H           -2.74538835764929        2.15412247218798       -0.88573670031328
H           -2.59134542635461        2.13517193573670        0.89686563778955
H           -1.37046498013806       -3.37097739744388        0.76305606067051
H           -1.71341395007224       -3.14767675721925       -1.02527559757262
H           -2.67195504309606       -2.25047225336054        0.21095014491753
H            1.15870317139229       -2.90482017147687        0.04353982667017
25
 energy: -42.097526344685 gnorm: 0.180207486970 xtb: 6.6.1 (8d0f1dd)
C            3.17915457409902        1.44116884220443        0.32554570666883
N            2.49199727209111        0.10902213507621       -0.19205100369890
C            2.69136072917751       -1.28679512825226       -0.05004327904688
N            1.44264927342826       -1.92429544468267       -0.00228812140055
C            0.44755096769573       -1.07668924725606       -0.10728049768812
C            1.05056789741461        0.20700368310622       -0.23862602787374
C            0.21563962377927        1.24673022505818       -0.32600169854743
O            0.28954016634598        2.48736392456694       -0.76397014712659
N           -1.23756923833075        0.82787230074064       -0.10216995901338
C           -2.01540955380265        2.04082917050575       -0.02413858101365
C           -1.79915601146330       -0.35360125329258       -0.01384416979876
O           -2.99861585229410       -0.55367454631854        0.14486949262640
N           -0.89896505291540       -1.41366394693339       -0.01267727132726
C           -1.64820263305876       -2.67136103592048       -0.02551042510444
H            3.72093991186627        1.40620758541417        1.27793839480883
H            3.93015106713222        1.91804575709614       -0.38059870463225
H            2.41548040411688        2.22288030752715        0.43265594945417
H            3.55105406440730       -1.93403364942608       -0.06908361030382
H           -1.11340077066955        2.73737985433110       -0.10791879429737
H           -2.71852519519983        2.16879064377454       -0.85593131722196
H           -2.53279492562681        2.16369407326142        0.93349168075693
H           -1.37639252688108       -3.41717003707532        0.72315233618926
H           -1.71708111122596       -3.12971735085353       -1.00357120652154
H           -2.66241481101052       -2.32774632086922        0.21303140176965
H            1.20465676182406       -2.89921212618256        0.05205373244250
25
 energy: -42.135974327931 gnorm: 0.173673347934 xtb: 6.6.1 (8d0f1dd)
C            3.14528333448851        1.47492163554297        0.37215756094044
N            2.51138619888659        0.10891628018900       -0.22596987381848
C            2.70875883878280       -1.27406495174383       -0.04594166480138
N            1.46411924044909       -1.93065621642718        0.00390683782809
C            0.45926942405314       -1.09126731394246       -0.13501911144442
C            1.06764779456867        0.19043964688736       -0.30518139988783
C            0.23213075367735        1.22837224188668       -0.45123991589808
O            0.31295636601650        2.45800285884283       -0.88866876027824
N           -1.20948718735743        0.81628919943081       -0.13837192282266
C           -1.98036177332810        2.03491997581832       -0.01584697976358
C           -1.77924103415185       -0.36170726951021       -0.00830139828798
O           -2.97987089326714       -0.54794993305950        0.19102080134926
N           -0.88784665835889       -1.43862740436950       -0.01834146372036
C           -1.67604498536378       -2.68121556872094       -0.01897499697191
H            3.69793393225310        1.39170786406972        1.31778778546199
H            3.86143615718699        2.05511202543591       -0.32112345984461
H            2.32510527268945        2.20923053980313        0.55254299559650
H            3.55500619600763       -1.94093616178852       -0.08987357406060
H           -1.07374513582024        2.72676067183619       -0.12589618638153
H           -2.70380813738366        2.17822262540846       -0.82892866120771
H           -2.45942494236401        2.15980466647089        0.96176819182275
H           -1.38606043983336       -3.46563900342725        0.69100335728078
H           -1.84704897224971       -3.11621827549482       -1.02131459637060
H           -2.67024663549655       -2.29318112609859        0.30249511994856
H            1.22436831681428       -2.90220859143923        0.07334519543148
25
 energy: -42.185874349412 gnorm: 0.133449299840 xtb: 6.6.1 (8d0f1dd)
C            3.09595157982685        1.46067229095520        0.38237920309378
N            2.48991970015559        0.12627899157524       -0.21397607510766
C            2.71638898189369       -1.22162043267446        0.00054116414337
N            1.51721668940625       -1.95080390572693        0.01565011205045
C            0.46717319874001       -1.11717483527009       -0.15580771536030
C            1.06037766552675        0.15299021938925       -0.35634689060434
C            0.17814126700496        1.24874797290610       -0.68626967927008
O            0.42182072875358        2.40464067102937       -0.86403228462518
N           -1.16448663518857        0.87332477171552       -0.21648818216544
C           -1.95619613642508        2.06245008464725       -0.00729871975981
C           -1.75573776639582       -0.33841216415443        0.02255266322775
O           -2.94692938931048       -0.49395670902430        0.21942043989189
N           -0.87240335527923       -1.46198896516883       -0.04052366857401
C           -1.68066173536885       -2.69487820389085       -0.01423067605819
H            3.64525006963052        1.31238216365064        1.32596359956907
H            3.73272689412583        2.07172418535512       -0.27368545423142
H            2.23109188103008        2.13007834379679        0.64002297847229
H            3.57202383559371       -1.87101409827356       -0.11568743850047
H           -1.13718134823347        2.80077106819583       -0.13209894407286
H           -2.68839852358749        2.17854633853152       -0.79806587389974
H           -2.39697620279971        2.12437724316810        0.98326403971964
H           -1.35448571817319       -3.49250285472124        0.65751593258010
H           -1.93493668718205       -3.09773655165921       -1.03542448026004
H           -2.64917945054526       -2.28715108421323        0.39071613192117
H            1.32170548770070       -2.93071612453850        0.09894369791990
25
 energy: -42.234747224473 gnorm: 0.114702757277 xtb: 6.6.1 (8d0f1dd)
C            3.02806346014960        1.47029140811276        0.43798890519380
N            2.48204338302822        0.12881345299864       -0.26019651302874
C            2.73720096242867       -1.19845073477159        0.02200274183394
N            1.53897491478951       -1.96091240663250        0.02942759363927
C            0.48305262470729       -1.14005495752913       -0.19388518621594
C            1.05494810350817        0.13158345429882       -0.44297871838950
C            0.19560149165406        1.20732401388936       -0.78419048576823
O            0.46655598147315        2.38074215962740       -1.04500758106107
N           -1.12176515310146        0.86358153044963       -0.24821749202127
C           -1.90901987942169        2.06513575612845        0.00237318427947
C           -1.71753393290228       -0.33224720867248        0.00653195978599
O           -2.91515804574359       -0.46289206420109        0.27356044571848
N           -0.86503615053377       -1.48097412803367       -0.05455449780832
C           -1.70738159737311       -2.69731213019470       -0.00915441896725
H            3.59181093880594        1.25247533933236        1.36862874903549
H            3.62466327726632        2.19848328701670       -0.21655554351754
H            2.10968794827587        2.08388851626960        0.77801470194375
H            3.59561060975213       -1.82866143768890       -0.13952545443573
H           -1.10806917521017        2.82444683988548       -0.14417314185647
H           -2.67656456525513        2.19715584032921       -0.76248109171992
H           -2.30464060866510        2.11339050488379        1.01629187067714
H           -1.34202166380595       -3.54102842636491        0.61217736239117
H           -2.05733069054290       -3.07532558908297       -1.04780770495132
H           -2.65141017519715       -2.26888208978930        0.49166091832043
H            1.37993297281255       -2.94154251466061        0.13710327702223
25
 energy: -42.276087142710 gnorm: 0.147764362192 xtb: 6.6.1 (8d0f1dd)
C            2.93820728443933        1.45660560266074        0.48918587773573
N            2.44478414781457        0.14853545553516       -0.29439022867026
C            2.74320164854325       -1.17936164829278        0.05255903939582
N            1.55917894120953       -1.96001269096719        0.02748109044162
C            0.49497181922263       -1.15979320724742       -0.22596295691743
C            1.03161529896276        0.10779247352650       -0.51003837523379
C            0.18715813189611        1.16175986602296       -0.80917481081895
O            0.52789732062350        2.33183181128410       -1.26373766130514
N           -1.09410935385361        0.86570223411470       -0.26048854420775
C           -1.85921887908121        2.07257000079543        0.01106637505780
C           -1.68346694631490       -0.32167601226601       -0.00164638200360
O           -2.87120623721538       -0.43422649710983        0.31693513426958
N           -0.85870615244769       -1.47983254036196       -0.07182484349262
C           -1.72945580806229       -2.68119654807847       -0.00274056973402
H            3.52309300558169        1.21606631142418        1.39109360016346
H            3.51725052810617        2.26163458655926       -0.13700166305664
H            2.04036754926795        2.03695195985503        0.86374572529832
H            3.61897979004024       -1.77771611177887       -0.18208800304144
H           -1.08904056182411        2.83740038713810       -0.13996570073226
H           -2.66932085458485        2.21511395479272       -0.71455391734475