72
 energy: 0.000000000000 xtb: 6.6.1 (8d0f1dd)
N           -1.47310921155849        2.74401293103706        2.22063921685122
C           -1.55658879776851        2.16490285539332        1.13274273951491
C           -2.74549199786261        2.05621232186130        0.23826248438941
C           -3.31377553111525        0.64333411542669        0.32332512650568
C           -4.30230156009016        0.24487110156316       -0.58026161703006
C           -4.85238763031941       -1.02286490450319       -0.53363588718165
O           -5.81419972815119       -1.48606034185536       -1.36157882725342
C           -6.39655633239252       -0.60827000183299       -2.29568474302620
C           -4.39972501531283       -1.94646102182611        0.44396929121966
O           -4.98748311285188       -3.16145997157803        0.41085992006324
C           -4.66362127904578       -4.10093827755394        1.40909127743729
C           -3.42072513477031       -1.54561384810496        1.33436546260297
C           -2.88302799614223       -0.26315800396994        1.27400150770375
C           -2.19303798107274        2.30467000305896       -1.18742977106749
C           -1.26651538239283        1.17243369445008       -1.65249429687285
C            0.01082524939134        1.09745454476277       -0.89354803499847
N            0.61779393476578       -0.02034948052406       -0.57705522512502
C            2.00145210352228       -0.02376006389122       -0.15611399603240
C            2.92554934655222       -0.53865282675074       -1.27700088804721
C            4.35756843073516       -0.43050757231754       -0.83075544324989
C            5.07346135469827        0.73206409086248       -1.03980965825901
C            6.38627986649936        0.84224441421807       -0.60344822702769
C            7.00047264773336       -0.20824756335880        0.05722314418200
O            8.26703657141718       -0.21011313101264        0.52410943644933
C            9.06912227848686        0.92943601033931        0.31863058007678
C            6.27039964270142       -1.40439753960823        0.28033466008274
O            6.94829939911432       -2.38012925705718        0.92751999079483
C            6.31537317745639       -3.61583200086742        1.15217711710877
C            4.96302794628964       -1.49347471867959       -0.16064430359178
C           -0.05511211367372       -1.29906247805359       -0.62085686319744
C           -3.86758037025447        3.07992600430699        0.58498060215443
C           -4.49286159663096        2.77383493050346        1.94313289484366
C           -3.39165179876499        4.52917666589254        0.54797523472093
H           -4.66030026466202        0.94509067363451       -1.31640568823548
H           -6.85037928558380        0.25803162192116       -1.80468845313260
H           -7.17287442604349       -1.18600110843259       -2.79318157561361
H           -5.66836817451085       -0.26952966318766       -3.04040255244073
H           -4.88416720672258       -3.71589460520039        2.40913542187496
H           -5.29223570620378       -4.96637458756866        1.20969236903657
H           -3.61139813139015       -4.39919835331056        1.35529357841967
H           -3.07077796610445       -2.21868765711333        2.10002662693138
H           -2.14562754426994        0.02067850696302        2.01001344383370
H           -3.02188875377605        2.38238012313952       -1.88813545054866
H           -1.65198530896729        3.25146700677685       -1.20556284570283
H           -1.81103374245520        0.23006524641044       -1.62116301628650
H           -0.99335688527853        1.37490212198123       -2.69443256973690
H           -0.67628064361333        1.65183887049447        0.61785727145403
H            0.63525841192517        1.98466369793744       -0.92314021190751
H            2.11132552493482       -0.65949692842762        0.72532613231274
H            2.30680473056284        0.98978251704176        0.11078972794250
H            2.76694198818247        0.06750735147374       -2.17075252200790
H            2.67954581369920       -1.57455627803457       -1.51167743520200
H            4.62169998552446        1.56295612048703       -1.56123579000624
H            6.92357674630170        1.75715815945204       -0.79119596719031
H            8.65159112996149        1.81001823324363        0.81701555159939
H            9.20136171144928        1.14042857828877       -0.74698991949293
H           10.03428838009630        0.69003240176163        0.76064937965836
H            7.05567174969094       -4.23621171795340        1.65347565939075
H            5.43848001056755       -3.50813558175093        1.79970565785717
H            6.02060041905269       -4.09420497120334        0.21253282636366
H            4.40102758497114       -2.40127266373392       -0.00490198249042
H           -0.22071299714579       -1.61775583601871       -1.65116008982042
H           -1.01972258008625       -1.24102717432227       -0.10935206830928
H            0.55899954147532       -2.04486085926761       -0.12333730421426
H           -4.63991875734388        2.95501092798550       -0.18098088071825
H           -3.76095216473977        2.90314704960906        2.73380821053058
H           -4.87457614030224        1.75695641518947        1.97884603101694
H           -5.31925552549014        3.45579210326349        2.12325564252114
H           -2.60025590131176        4.69225046143352        1.27368918226171
H           -3.03987406413880        4.81897652321898       -0.43870975059559
H           -4.22191740670577        5.18069648090034        0.80616693961239
H           -0.59832433787845        2.77744694953323        2.72958984441332
72
 energy: -5.693994354910 xtb: 6.6.1 (8d0f1dd)
N           -1.49938829874262        2.78080273572259        2.23906789884184
C           -1.55108760914382        2.15371074151322        1.15238501185760
C           -2.74445182039425        2.05867015182955        0.24653315966939
C           -3.30413978730831        0.64324332445184        0.32246954054183
C           -4.28717091578290        0.23594605797341       -0.58248045578082
C           -4.83543009395198       -1.03129567904423       -0.53230032982357
O           -5.79752944121675       -1.50105007190907       -1.37533043114032
C           -6.36986751138597       -0.62168490524291       -2.30946191008777
C           -4.40352934812575       -1.94525857096673        0.45885041539338
O           -5.05697014024385       -3.14254978036346        0.47058195959727
C           -4.71814666403366       -4.09178327048306        1.44773771312565
C           -3.41052821206974       -1.54920846636965        1.33365863690568
C           -2.87196357535228       -0.26724195280824        1.26943860572532
C           -2.19186605973808        2.30888613647744       -1.18086500365096
C           -1.25981654788161        1.18865414897627       -1.67223314254383
C            0.00857801289107        1.13508019592482       -0.90033115890985
N            0.63891858053379       -0.04281456910406       -0.56848631533326
C            2.00705174031791       -0.03089834836170       -0.16583512303241
C            2.94166606950745       -0.53426432176841       -1.28663068226643
C            4.36508986305419       -0.42962371592896       -0.84326734917799
C            5.08357012061591        0.73439190232731       -1.04445435386306
C            6.39375628189161        0.84381307318971       -0.60254710283254
C            7.00193004881791       -0.20944867197614        0.05640643594427
O            8.27975874078008       -0.21445019680687        0.52880884923945
C            9.07565645730888        0.92358728423864        0.32307207300567
C            6.27307733095939       -1.40035541394995        0.27627555523084
O            6.95412393915956       -2.38527546155618        0.92690050517530
C            6.31412434268033       -3.61529649144952        1.14639956772360
C            4.96881146735209       -1.49119684753139       -0.16886119029600
C           -0.04460857730550       -1.29944958652585       -0.63978930857393
C           -3.87492466707448        3.06807884791344        0.58488233707039
C           -4.50083520467998        2.75916235281525        1.94363667663745
C           -3.40859420312198        4.52280526427745        0.55438713418219
H           -4.63855113294707        0.93348983239901       -1.32521349342362
H           -6.82887108942093        0.24354956456975       -1.81995508575333
H           -7.14255596137209       -1.19975029693545       -2.81413268656334
H           -5.63934452701292       -0.27669470378165       -3.05041848616174
H           -4.92428285153366       -3.73147323814806        2.46182753511686
H           -5.35315406585935       -4.95865176924287        1.25638425523417
H           -3.66494313391140       -4.36431392879776        1.34645230317683
H           -3.05380285586352       -2.22385414406383        2.09602531738657
H           -2.13043630174162        0.01936378368925        2.00010822214091
H           -3.02336110509009        2.39908164740941       -1.88075757707772
H           -1.64645967669941        3.25433794505300       -1.18990966666278
H           -1.79756298723834        0.24210679472240       -1.63221111959114
H           -1.01370908149841        1.39358089414704       -2.72270228246942
H           -0.68392465966480        1.65226635207077        0.65583920378613
H            0.65203787408881        1.99658798422064       -0.94978933698289
H            2.12585129920237       -0.66542283236387        0.71923314349830
H            2.30266910930019        0.98630795914307        0.10396634258559
H            2.77379746670107        0.07842809770291       -2.17453480161250
H            2.68600168413931       -1.56745091181299       -1.52463129196701
H            4.63124810134824        1.56707350956008       -1.56280220124082
H            6.93287229986963        1.75924828046301       -0.78661504148419
H            8.65892789472295        1.80572024759361        0.82107609854158
H            9.20927792644580        1.13729799551896       -0.74289908398374
H           10.04170784151556        0.68457505805299        0.76529085039004
H            7.05133291285363       -4.23990644355361        1.64858820238699
H            5.43518547161883       -3.50706900743013        1.79163370413529
H            6.01836498331402       -4.09263809693913        0.20586327742974
H            4.40272397366201       -2.39684024078591       -0.01360445212234
H           -0.21461786194093       -1.61201341895428       -1.67630533194470
H           -1.01120076995383       -1.23962695310237       -0.13029665139601
H            0.56451428216946       -2.05246959515382       -0.14538035375882
H           -4.64897575689857        2.94411991995746       -0.18227910733330
H           -3.76367573690002        2.88855092648434        2.72943759925514
H           -4.87281695702288        1.73810912312321        1.97611471958201
H           -5.33257504699018        3.43560856899336        2.12643705318398
H           -2.61645478442005        4.68198940239744        1.27984973192867
H           -3.05373362610583        4.81356362616939       -0.43122993413433
H           -4.24331473828757        5.17085966046749        0.81267771343595
H           -0.60800466043376        2.77841368215236        2.73173589409573
72
 energy: -5.291974423176 xtb: 6.6.1 (8d0f1dd)
N           -1.50774792472850        2.79089502262757        2.24506609333552
C           -1.55326082592695        2.15508485099302        1.16278599633295
C           -2.74211593906478        2.05721316678353        0.25033462617619
C           -3.29329213239324        0.63812880142487        0.31993923397430
C           -4.27138169456382        0.22577240971597       -0.58811685154671
C           -4.82246821151898       -1.04064459345430       -0.53394498014091
O           -5.77475598657732       -1.51334879004441       -1.38722847027743
C           -6.34297792451816       -0.63397672501020       -2.32366092568467
C           -4.41085686377252       -1.94759645830505        0.47551375743337
O           -5.12107633117962       -3.11475117900182        0.53165101292965
C           -4.77166993454819       -4.08375536192435        1.48658995538189
C           -3.39990151812583       -1.55572777961297        1.33164612652558
C           -2.85715125099266       -0.27477728190469        1.26246365167654
C           -2.18774974253197        2.31558582789160       -1.17572669422608
C           -1.25539158376424        1.19972864209152       -1.67952803837482
C            0.01370935283827        1.14349637388041       -0.90666624046234
N            0.64438798413809       -0.03835381455485       -0.57471898319574
C            2.01277500366654       -0.02893709585696       -0.17303234085326
C            2.94941303122460       -0.52818646781169       -1.29392250035193
C            4.37208707602659       -0.42617030134715       -0.84902056070143
C            5.09213115308817        0.73768067500761       -1.04621109841492
C            6.40164610180982        0.84498417320551       -0.60157619518367
C            7.00791084820322       -0.21043310387744        0.05581323080634
O            8.28531124110421       -0.21787218409375        0.52935735938733
C            9.08286721575814        0.91918039160150        0.32549940946818
C            6.27713996791500       -1.40042147742113        0.27295777667166
O            6.95620920460810       -2.38802065545229        0.92279392618392
C            6.31272228392433       -3.61673277071994        1.13916558399785
C            4.97338474603791       -1.48891193188704       -0.17456448608920
C           -0.03823359175189       -1.29504962256322       -0.65751263461591
C           -3.88132260698479        3.05834386358091        0.58526166970045
C           -4.50897951625548        2.74440570825915        1.94213266203340
C           -3.42422007199606        4.51611129874046        0.55803884422051
H           -4.61938289634870        0.92218690487018       -1.33330694284756
H           -6.80814712958741        0.22608712819180       -1.83178569876736
H           -7.11000352211977       -1.21407008544578       -2.83477601844790
H           -5.60978203324158       -0.28100392155705       -3.05982356942697
H           -4.96423438576734       -3.74982898125018        2.51310451116561
H           -5.41450741877262       -4.94968396447715        1.29989339361583
H           -3.71970491478564       -4.33057858248908        1.33597685970641
H           -3.03735402263482       -2.23083052860773        2.09079973678843
H           -2.11553285867361        0.01379027013594        1.99265173777609
H           -3.01973351451733        2.41392815920195       -1.87470589912962
H           -1.64035863100579        3.25970969175855       -1.17691161533746
H           -1.78995844211647        0.25222719943825       -1.64154344852813
H           -1.02043282656522        1.40978432705751       -2.73334318596679
H           -0.68359904901523        1.65328491767891        0.67519891885976
H            0.65750408615888        2.00508387658561       -0.95715291807813
H            2.13383659893871       -0.66444367166048        0.71150333752425
H            2.30421055403602        0.98899198052607        0.09755192333229
H            2.78256422228136        0.08896465849904       -2.17901058229523
H            2.69347291953843       -1.56002235689507       -1.53616226389394
H            4.64153539174759        1.57265308279772       -1.56235950213589
H            6.94206690455205        1.76016437178188       -0.78332275726852
H            8.66655271200026        1.80077214357858        0.82464852664601
H            9.21711967712721        1.13456510454161       -0.74007463644227
H           10.04881296342144        0.67865547955186        0.76758022675267
H            7.04739728092225       -4.24447685104295        1.64127934747501
H            5.43293471620446       -3.50711250297759        1.78311243382971
H            6.01644610503940       -4.09180191023096        0.19770125288508
H            4.40491788121886       -2.39312007122709       -0.02080005905401
H           -0.20606434235814       -1.60175275922136       -1.69662243775365
H           -1.00630575587852       -1.23690340772053       -0.15058194459729
H            0.56807138629196       -2.05218111542802       -0.16571143231795
H           -4.65291580653066        2.93054498811035       -0.18429910277593
H           -3.77266300052229        2.87719789258564        2.72792720583711
H           -4.87321543896093        1.72059963760006        1.97285801068241
H           -5.34562493281053        3.41525446475802        2.12466541434945
H           -2.63453619359623        4.67712382064847        1.28563940981725
H           -3.06763537696281        4.80907587917540       -0.42618642306787
H           -4.26370492590138        5.15931595390760        0.81440330683383
H           -0.61979836073037        2.78899281184941        2.74320561455511
72
 energy: -4.258071466226 xtb: 6.6.1 (8d0f1dd)
N           -1.51669251573481        2.80181420012112        2.24958987973561
C           -1.55525150723491        2.15741481623516        1.17187558590945
C           -2.73995822297024        2.05599934590954        0.25363751835624
C           -3.28315529349358        0.63327905235832        0.31685200357180
C           -4.25642592810155        0.21565073022845       -0.59382918969691
C           -4.81106556541622       -1.04979814701630       -0.53511736157078
O           -5.75242385336804       -1.52579847208101       -1.39928629413307
C           -6.31661294855907       -0.64630078394318       -2.33743128700393
C           -4.42231001202561       -1.94804479698975        0.49373010129120
O           -5.18399658774947       -3.08456791065088        0.59389531385400
C           -4.82403542491719       -4.07651641311927        1.52428052802188
C           -3.39107417398904       -1.56171998583788        1.32950518780259
C           -2.84364045860996       -0.28209308656692        1.25532087865905
C           -2.18379939889513        2.32290442444002       -1.17071065173628
C           -1.25097095563585        1.21129734362881       -1.68578327816705
C            0.01920587420877        1.15242698315048       -0.91286878211823
N            0.65038217169728       -0.03355780116287       -0.58211891712799
C            2.01853361709258       -0.02616632624681       -0.18038068482482
C            2.95724522710059       -0.52165648590534       -1.30091201131788
C            4.37915231488387       -0.42246113432769       -0.85441492140034
C            5.10079814930878        0.74107214959145       -1.04752878583514
C            6.40948062326803        0.84617431810634       -0.60009186241256
C            7.01366083643195       -0.21140679779875        0.05566049963377
O            8.29054379247779       -0.22130984410875        0.53050307675039
C            9.09007131981589        0.91437937966629        0.32811496979216
C            6.28111833591404       -1.40050884513926        0.26983876796164
O            6.95827726091393       -2.39048062544906        0.91914170029280
C            6.31211763803704       -3.61829434775062        1.13233776512274
C            4.97796849651762       -1.48657897739358       -0.18022054804773
C           -0.03192330568106       -1.28974827357232       -0.67614052808962
C           -3.88766263546533        3.04874797036492        0.58520333204446
C           -4.51680026426808        2.72951737612435        1.94013512099442
C           -3.44031399995716        4.50979341684013        0.56074449809429
H           -4.60009160790925        0.91013341769969       -1.34257802928130
H           -6.78836411690176        0.20746777553803       -1.84206029945338
H           -7.07796483416713       -1.22839716797545       -2.85479089799616
H           -5.58096818366524       -0.28461949176616       -3.06885262059476
H           -5.00143831416535       -3.77224792326872        2.56353414320069
H           -5.47653783823979       -4.94062783750016        1.34243430306238
H           -3.77501120349755       -4.29686982850961        1.32265359593144
H           -3.02202759371328       -2.23707188620926        2.08549472322831
H           -2.10056872517477        0.00768987967576        1.98407780323005
H           -3.01666670302434        2.42825693209789       -1.86830654570608
H           -1.63506339955652        3.26625259468269       -1.16423019514797
H           -1.78214068665185        0.26236437659088       -1.65123216618929
H           -1.02631877118196        1.42787852631791       -2.74187944241726
H           -0.68364871599237        1.65339035435564        0.69422790561660
H            0.66481715555759        2.01279935133921       -0.96559132929697
H            2.14123833088898       -0.66365782905505        0.70313027178970
H            2.30695656951541        0.99217757863844        0.09218910207688
H            2.79119116628860        0.09986743451087       -2.18307197143092
H            2.70049320383643       -1.55208000117653       -1.54734936011124
H            4.65181435199182        1.57831182963328       -1.56122003663204
H            6.95086598511170        1.76137993951337       -0.77875164850874
H            8.67473747514486        1.79590907621758        0.82814364694211
H            9.22505865659171        1.13091692207051       -0.73715051060062
H           10.05583396026203        0.67191854889216        0.76994640890287
H            7.04483649631734       -4.24855487813210        1.63425368720048
H            5.43147318499872       -3.50821559787817        1.77505097188799
H            6.01578306911541       -4.09119060695708        0.18987450897289
H            4.40711249528983       -2.38939259731907       -0.02816843617276
H           -0.19832275460552       -1.59056877022450       -1.71776127063968
H           -1.00101282695792       -1.23425114940361       -0.17068297980379
H            0.57245138488943       -2.05099891651165       -0.18806913891472
H           -4.65672821434958        2.91675495405868       -0.18658481071421
H           -3.78168866601310        2.86599500299930        2.72612480010679
H           -4.87321475103607        1.70293087468202        1.96937735687797
H           -5.35822979544560        3.39473555546787        2.12237958955350
H           -2.65294152979907        4.67305215499598        1.29018511313748
H           -3.08271131066355        4.80526893039670       -0.42229768796835
H           -4.28442589004850        5.14794817888481        0.81569726570817
H           -0.63220971610973        2.80063662104529        2.75233473070721
72
 energy: -2.695239058271 xtb: 6.6.1 (8d0f1dd)
N           -1.52564980254917        2.81323112765407        2.25329416192400
C           -1.55723568394243        2.15979415915959        1.18062966030510
C           -2.73787368746877        2.05464946741038        0.25678752603436
C           -3.27324731262082        0.62840142764741        0.31380772845813
C           -4.24175417376308        0.20541797928903       -0.59928002710900
C           -4.80012108505347       -1.05909616119430       -0.53573406528632
O           -5.73021773066473       -1.53825629166802       -1.41088383315530
C           -6.29035759635372       -0.65866180762761       -2.35086829037141
C           -4.43382994208442       -1.94800421663442        0.51205210948067
O           -5.24354031813136       -3.05236852125466        0.65692152427073
C           -4.87742167100784       -4.06931943244865        1.56205904004693
C           -3.38256725987422       -1.56761451767424        1.32754455606002
C           -2.83054977951000       -0.28937473553859        1.24842000094817
C           -2.17994520061889        2.33039082024772       -1.16574343451324
C           -1.24634826579619        1.22336369031968       -1.69162707506418
C            0.02492370263174        1.16205093563532       -0.91901081306176
N            0.65674439861708       -0.02785468525019       -0.59039249422645
C            2.02453864282592       -0.02279200680885       -0.18766537451917
C            2.96515246505063       -0.51486622498360       -1.30783703267971
C            4.38628132225060       -0.41850271188852       -0.85948496135312
C            5.10943009821071        0.74467654973919       -1.04852587363053
C            6.41732257859616        0.84743132556522       -0.59851578121439
C            7.01936012146848       -0.21236155596093        0.05559327054986
O            8.29577289082608       -0.22477289442678        0.53163079967123
C            9.09730141846903        0.90953430347291        0.33067998568485
C            6.28512884180321       -1.40070086052787        0.26672917226782
O            6.96034157752196       -2.39298874072061        0.91539194148837
C            6.31166368440886       -3.61993479318343        1.12559451633575
C            4.98257333937756       -1.48419729756029       -0.18576990467820
C           -0.02535155692243       -1.28394881948356       -0.69484374729065
C           -3.89389512774054        3.03915807495017        0.58517773496356
C           -4.52445151139447        2.71449391590293        1.93817749128044
C           -3.45635314233801        4.50345853727894        0.56314359215987
H           -4.58098281836378        0.89760206404606       -1.35200565074571
H           -6.76911404216010        0.18859619782399       -1.85214340673377
H           -7.04586611299959       -1.24278554654064       -2.87455169719660
H           -5.55219350909839       -0.28819242223090       -3.07737656563230
H           -5.03908430993903       -3.79676962167038        2.61345133953521
H           -5.54142842868924       -4.92947290339287        1.38290062164116
H           -3.83406105005519       -4.26698091156018        1.31476905927964
H           -3.00675317564671       -2.24310707374306        2.08041281002177
H           -2.08580960388199        0.00127427584580        1.97558088668457
H           -3.01343728492551        2.44254470065449       -1.86218315636992
H           -1.62998973115595        3.27301189745955       -1.15161700549314
H           -1.77395389335900        0.27274005526296       -1.66091240300435
H           -1.03165683243647        1.44701426061685       -2.74952998074163
H           -0.68375964216459        1.65337246584367        0.71317719531211
H            0.67314860958896        2.02056473372852       -0.97363862669749
H            2.14841671310990       -0.66251476376415        0.69466639266710
H            2.31096612045884        0.99562120980595        0.08734865013057
H            2.80005957952624        0.11063007092660       -2.18737365115060
H            2.70755342261886       -1.54392504906584       -1.55835096834677
H            4.66204849017978        1.58401110018289       -1.56005982314680
H            6.95968207138105        1.76261021997209       -0.77418053623863
H            8.68301265948524        1.79105642435462        0.83156731598060
H            9.23304801058242        1.12715060251549       -0.73428114734642
H           10.06284725694272        0.66507411373200        0.77225989548839
H            7.04250245035237       -4.25254331998053        1.62737858459089
H            5.43020091172555       -3.50938658266369        1.76709077554495
H            6.01535691644426       -4.09077716674504        0.18217316691413
H            4.40945714553957       -2.38577402145987       -0.03570247980596
H           -0.19022280037060       -1.57890925532168       -1.73883760005859
H           -0.99556545554278       -1.23144219791312       -0.19090531406512
H            0.57704199362866       -2.04939818709738       -0.21060909951842
H           -4.66032288571359        2.90293208942271       -0.18883943689452
H           -3.79103356515512        2.85486059627725        2.72477940879438
H           -4.87309716746661        1.68517081243810        1.96579814145840
H           -5.37065256198953        3.37401108758098        2.11995245337059
H           -2.67141274283426        4.66964382112488        1.29442150817302
H           -3.09790802402793        4.80156008685725       -0.41876512670368
H           -4.30515877975662        5.13637126690950        0.81649687462715
H           -0.64443524787639        2.81292680140782        2.76044217300432
72
 energy: -0.674778715351 xtb: 6.6.1 (8d0f1dd)
N           -1.53466031776777        2.82477210025412        2.25661157113070
C           -1.55926255700012        2.16219391908420        1.18920911323108
C           -2.73582413355106        2.05317918128207        0.25983856060420
C           -3.26347821035383        0.62345643510444        0.31075999788941
C           -4.22727316201350        0.19512843203088       -0.60452771606609
C           -4.78967952447620       -1.06839049881748       -0.53559299805866
O           -5.70794435537353       -1.55086984520276       -1.42188784122996
C           -6.26406715690199       -0.67131628328305       -2.36386379714180
C           -4.44577310157381       -1.94693435228849        0.53090005124596
O           -5.30027769538127       -3.01774343997849        0.72041745804061
C           -4.93220725354771       -4.06154098198057        1.59956490665487
C           -3.37445964826399       -1.57335960085100        1.32609324475710
C           -2.81779233588922       -0.29666228917183        1.24177838589525
C           -2.17609865514334        2.33800774087059       -1.16086681188800
C           -1.24172048576063        1.23573538345096       -1.69742880362801
C            0.03072536383507        1.17192471956666       -0.92561052458563
N            0.66317044796875       -0.02176773951672       -0.59965049958237
C            2.03052672836407       -0.01882769485310       -0.19492701849988
C            2.97300953454271       -0.50781293178899       -1.31469248684699
C            4.39339342789510       -0.41443723878590       -0.86429406516303