72
 energy: 61.317009522069 xtb: 6.6.1 (8d0f1dd)
N           -1.57463895739527        2.94236323275061        2.25250646235883
C           -1.55646961018172        2.19430489884356        1.24710479340005
C           -2.70663233229584        2.00819624602576        0.30344185953845
C           -3.20746747167608        0.57719331684463        0.38608630777183
C           -4.06164520014569        0.10370194972400       -0.59100745821387
C           -4.65807123285994       -1.16679194331675       -0.62691239052904
O           -5.45474854895190       -1.35139153277048       -1.65260688125186
C           -6.84221525993904        0.03326936631893       -2.79493354821607
C           -4.27737094488104       -2.02738180397968        0.51090176086689
O           -4.78895513994563       -3.30191031118509        0.55942493936328
C           -4.50076429282650       -4.12403712086283        1.66064167516443
C           -3.42229079846190       -1.53693762932955        1.49342363465761
C           -2.88559487455210       -0.25474415029315        1.44085742135779
C           -2.14651265593348        2.28380544761737       -1.11650658817221
C           -1.24405920512273        1.17390442388579       -1.69404003602075
C            0.08487001768786        1.06429904448980       -1.04985704655757
N            0.65095562943513       -0.07632457421613       -0.62225864382098
C            2.02401867188544       -0.07732583361038       -0.19239459845792
C            2.96624707374719       -0.57384287559876       -1.30757438574414
C            4.39296395425445       -0.46056271851855       -0.86082663773174
C            5.10466721531112        0.70599559973924       -1.06233724765119
C            6.41404855521215        0.82523755539151       -0.61544153588026
C            7.02887607580237       -0.22225435177564        0.04743807835338
O            8.29946809779360       -0.21643199714106        0.52966815104138
C            9.09163310420409        0.92686208626846        0.32923808268301
C            6.30632971450702       -1.41859067423945        0.26534722769728
O            6.98751279923168       -2.39234833203819        0.92674960916765
C            6.35805415405450       -3.62675610718590        1.15403542250017
C            5.00254990953970       -1.51764916041917       -0.18585901685262
C           -0.04230552839137       -1.33852859786075       -0.66595163852507
C           -3.91288827205755        2.94902491475439        0.58900614527392
C           -4.54346729798674        2.65527199941735        1.95024034226708
C           -3.54862997702473        4.42833633466255        0.50267896322087
H           -4.36509666460501        0.73957132252025       -1.41074596081659
H           -7.22550600116383        0.78939904258723       -2.15350343282881
H           -7.57485457699804       -0.66370733548472       -3.14093386276510
H           -6.14871190078474        0.33179507410597       -3.53680108988636
H           -4.84791137024817       -3.69232530728348        2.60577943477172
H           -5.04405328339934       -5.05179543617938        1.48379109162719
H           -3.43188860465326       -4.35870342377529        1.75054837364547
H           -3.14597357894112       -2.14095579571959        2.34691941339409
H           -2.24361696101138        0.09568647392663        2.23610195116336
H           -2.98982375277389        2.42206287282423       -1.79461092023542
H           -1.58686713267579        3.21884713668670       -1.09957523855999
H           -1.77564974420741        0.22569244985431       -1.65700577509661
H           -1.07282001799184        1.41870884809673       -2.75197855637888
H           -0.66930811304554        1.62824925071938        0.90970772226648
H            0.69478283470892        1.95687554576210       -1.00422608558913
H            2.14459163511492       -0.71571829881066        0.68962463024004
H            2.31376011879955        0.93799791589027        0.08325113460926
H            2.80124096777315        0.03539711668019       -2.19813052419654
H            2.72151108902696       -1.60944969818661       -1.55057880186631
H            4.64606289058959        1.53309219159687       -1.58342731281814
H            6.94575069021649        1.74592993943221       -0.79562458880997
H            8.66765717159973        1.80565759307372        0.82655259422764
H            9.22924307215184        1.14348802576180       -0.73556518017311
H           10.05701106549635        0.69463918846242        0.77565188659813
H            7.09792847657500       -4.24028076534242        1.66592974976032
H            5.47544871359461       -3.51955993102463        1.79336974522796
H            6.07162936884852       -4.11574763639838        0.21679844476875
H            4.44342473611800       -2.42804098008666       -0.03175786944273
H           -0.23279315614453       -1.65084677626658       -1.69635835831151
H           -0.99946044915298       -1.27178351213095       -0.14289000877514
H            0.56380653398444       -2.09797697329047       -0.17648935094417
H           -4.66511562298285        2.73142071852228       -0.17952847116299
H           -3.82815533117626        2.85167866076513        2.74078222860988
H           -4.86346915839495        1.61927791510303        2.01652902686913
H           -5.41356371216740        3.29111735441567        2.09743464205574
H           -2.78083906441979        4.66062109593852        1.23234438150661
H           -3.19420223809915        4.69864674837649       -0.48869482685526
H           -4.42774040711472        5.02952272802455        0.72293095428393
H           -0.70949467335834        3.00772490433724        2.78188835526661
