72
 energy: -99.264065653331 gnorm: 0.003497312124 xtb: 6.6.1 (8d0f1dd)
N           -2.05136854066894        2.54914328865142        2.31326671895806
C           -1.88252521498005        1.96728729771475        1.21961533706943
C           -3.00030067271619        1.71721044142023        0.21919555663040
C           -3.45779296485965        0.26252923084182        0.32431139565338
C           -4.46211252640443       -0.17218975637688       -0.54207805007022
C           -4.93278808827054       -1.47306301275350       -0.50145004248335
O           -5.88879301509968       -1.98181693579090       -1.30644661524665
C           -6.48443503913976       -1.15009448424505       -2.27359733512947
C           -4.39605243604942       -2.37943011741026        0.45246137926302
O           -4.92189396392065       -3.62135881776597        0.42979959693919
C           -4.50952493566671       -4.55803050689640        1.39723565305618
C           -3.40641818001694       -1.93472705651138        1.31316607669256
C           -2.93815573958967       -0.62635675011067        1.24715712687434
C           -2.43656670187033        2.00745178438448       -1.19491030458155
C           -1.46475036726657        0.94246517621946       -1.72792383962894
C           -0.12828071633716        0.98078631802874       -1.09185149021059
N            0.56034295315146       -0.08431407651886       -0.68530369287155
C            1.94221613142268        0.04596501387686       -0.29058554820341
C            2.90674250958580       -0.38376808178613       -1.41320024499584
C            4.32540305439594       -0.17400437485132       -0.96442014208751
C            4.96154996771017        1.03758735825698       -1.17475057014423
C            6.25606665473735        1.24664803757940       -0.72402797144036
C            6.93832774868028        0.24672817957388       -0.04699900284925
O            8.19245408813514        0.34055360395581        0.43653561576854
C            8.91205329374001        1.53661193726989        0.24606161066239
C            6.29330553902334       -1.00049902958471        0.17404885275136
O            7.02819499693397       -1.91870118122563        0.83575206300076
C            6.48260556825511       -3.19420460442476        1.07157865590590
C            4.99932780594258       -1.18613914584609       -0.28461405220851
C            0.01030390685194       -1.41703163841531       -0.73830916128483
C           -4.15041666279851        2.62238994315470        0.49406274979537
C           -4.91619700374580        2.51558929429281        1.73540303516979
C           -4.21997765708715        6.19901710961154        0.66275065191536
H           -4.88735883283154        0.53138365411908       -1.23858318813162
H           -7.00890244655693       -0.30786805707439       -1.81230876376682
H           -7.20254052134333       -1.77893142968505       -2.79575742901133
H           -5.74619177576441       -0.77377055466474       -2.98920261876963
H           -4.71381268966660       -4.20298077195459        2.41163623407408
H           -5.09640284770554       -5.45384675244621        1.20392145197563
H           -3.44521785831181       -4.79522367311507        1.30016486006793
H           -2.99215969350661       -2.59857776545399        2.05467764388561
H           -2.18056550647640       -0.31084161102559        1.94788787208879
H           -3.27549239552033        2.06989578850346       -1.88741875359319
H           -1.94737433600294        2.98319285520616       -1.18176724128099
H           -1.92469691731725       -0.04022610080343       -1.63741141557258
H           -1.32772536071762        1.14703108669027       -2.79810724421862
H           -0.91359137074511        1.59785189542967        0.84410181019342
H            0.39321322988993        1.92589157964072       -1.07791159555988
H            2.12170191673905       -0.56901335408950        0.59561975065581
H            2.14719442258903        1.08644309040947       -0.03057356252254
H            2.70181649972304        0.21583746601463       -2.30161439875475
H            2.73969214357902       -1.43335152458185       -1.65783348185581
H            4.45480152890269        1.82960214895380       -1.70502963711064
H            6.72771724057922        2.19756015169995       -0.90956614566875
H            8.41816540594910        2.38340695626377        0.73254747636447
H            9.05095567650441        1.75565509684866       -0.81692730205740
H            9.88236337729800        1.37046417108315        0.70987191374335
H            7.25748867753569       -3.75162691586826        1.59411097444920
H            5.58997956976714       -3.13911601506174        1.70334278954386
H            6.23813796835459       -3.70584494749483        0.13538021414378
H            4.50261901268930       -2.13099931295014       -0.12842271159578
H           -0.13077084962379       -1.74729238589931       -1.77000457295948
H           -0.95286716850582       -1.45411636784869       -0.22381025264321
H            0.69244511197945       -2.10445243207104       -0.24476966838028
H           -4.27575912037613        3.49568637546798       -0.12572231190553
H           -4.28128025964643        2.86487599754369        2.56157000444585
H           -5.16705028002647        1.48012860344962        1.96917801709849
H           -5.81462351847273        3.12377746449800        1.70640020893609
H           -3.52821156245490        5.80493370192938        1.37240439231879
H           -3.87328266271281        6.55095858205000       -0.28093126321037
H           -5.24923301724541        6.30514954389371        0.92549479947688
H           -1.23720898561918        2.68025884057602        2.90469397503499
