25
 energy: -42.102164871345 gnorm: 0.003986118210 xtb: 6.6.1 (8d0f1dd)
C            3.19559237554127        1.16576076183206        0.01414945803864
N            2.19871313343808        0.13351857314526       -0.00468833487509
C            2.41759041321749       -1.20888743267470       -0.00989496440406
N            1.31407228243867       -1.91574867211427       -0.00955029238210
C            0.30863486910582       -1.00397722775682       -0.00325101204564
C            0.85465097907096        0.29465990067703        0.00240000785879
C            0.02076611814254        1.47923969573751       -0.00266081791928
O            0.41966299817517        2.61968171412922       -0.01107303222117
N           -1.33277946221350        1.14870618288620        0.00078526294471
C           -2.29256647450919        2.24317600687943        0.00175445352156
C           -1.89442315514389       -0.11658595153815        0.00060901212388
O           -3.08273976758391       -0.28464834061177        0.00383595558620
N           -1.01214241288189       -1.22215364739798       -0.00488890862956
C           -1.56273678482787       -2.55175493310428       -0.00771630233167
H            3.70686073932643        1.17578938225482        0.97896942277853
H            3.93414561692178        0.98497434607347       -0.76710475719869
H            2.71660789364649        2.13092449603503       -0.14385557092212
H            3.39793551621423       -1.64275161682551       -0.01588690086524
H           -1.74124304657388        3.18034454609613        0.01152031797132
H           -2.92349353416021        2.18346326126785       -0.88541318659790
H           -2.93502230021051        2.17071855977787        0.87953861206717
H           -1.22011198241536       -3.09684172982739        0.87257489053701
H           -1.22732679038380       -3.09021569957488       -0.89507119346306
H           -2.64875542285701       -2.47410337592419       -0.00374841393347
H            2.54853971262208       -4.48505025784194        0.02983791226126
