72
 energy: 34.538211609748 xtb: 6.6.1 (8d0f1dd)
N           -1.65348080915754        2.73858807356137        2.32955803322886
C           -1.59524584676346        2.12317889756410        1.23592542400411
C           -2.74721042288679        2.07709349330709        0.28495992604633
C           -3.36327232467471        0.62590048498153        0.39188892571287
C           -4.33787670212322        0.18980147464804       -0.51632059774974
C           -4.86262124097720       -1.09186775004137       -0.49705464021912
O           -5.83680328275472       -1.56018365046731       -1.33162532057853
C           -6.39869340737259       -0.69042267474151       -2.27960855656896
C           -4.40311764366090       -2.02611822719002        0.45552828585211
O           -5.00382053143690       -3.24983136814119        0.42208575110406
C           -4.66532783029438       -4.20079656957565        1.40045863354487
C           -3.40651596865383       -1.62945085513138        1.32562228885140
C           -2.88912389377418       -0.33458172090947        1.28234432584619
C           -2.18490051988485        2.22014455878548       -1.15317862057319
C           -1.27056581037670        1.08156684581311       -1.67717999056263
C            0.05244828240000        1.01942468663755       -1.01701127651757
N            0.66348380602400       -0.12589894874065       -0.56565142654483
C            2.03862277895650       -0.08753818495173       -0.19319497569490
C            2.98106122779885       -0.57495934291993       -1.31737571658170
C            4.40318271407230       -0.46212636420350       -0.87267385570473
C            5.11954859271814        0.70366594932175       -1.07209354612079
C            6.42630952290295        0.82092603059521       -0.62076165501276
C            7.03537036057156       -0.22703733905168        0.04630021785598
O            8.30705197493461       -0.22045569034906        0.53415284388413
C            9.09563716312558        0.92421282356489        0.33802738891004
C            6.31207655356835       -1.42122666518439        0.26205999338632
O            6.99106297902715       -2.39925143345657        0.92676328647879
C            6.35713469349887       -3.63188192510308        1.14541389741251
C            5.01143480644505       -1.51950210286533       -0.19407445672766
C            0.00411055293054       -1.39336369841648       -0.65766405193733
C           -3.77824524570803        3.38129895148571        0.57189784301635
C           -4.57075969715595        2.94508544988975        1.80289864698092
C           -3.56133295682545        5.15299251536010        0.67322266419869
H           -4.70773696608615        0.88105682397664       -1.25399597021343
H           -6.86574995695900        0.17774225032967       -1.80385573284549
H           -7.16173423168065       -1.27662715969784       -2.79284154079381
H           -5.65404363070934       -0.35061400878722       -3.00764573286262
H           -4.86689643043606       -3.83476902335907        2.41263245843116
H           -5.30091559316287       -5.06312109654159        1.20347229488439
H           -3.61626005434834       -4.50953323847057        1.32797836665311
H           -3.03596133278661       -2.32383564518933        2.06672428739089
H           -2.11977855880998       -0.08080627884289        1.99564806486357
H           -3.01981587504920        2.30907610176766       -1.85160212370495
H           -1.62421808975277        3.15640907484945       -1.18435357493911
H           -1.78927691817888        0.12776661299622       -1.60055988021423
H           -1.10805598019213        1.29055150455384       -2.74978405661280
H           -0.70219257868587        1.61572571116743        0.82554959587497
H            0.66481991959430        1.91162117345576       -1.02242750239545
H            2.18195375041121       -0.71129169617575        0.69652188651381
H            2.31099450238002        0.93730481110640        0.06704228318991
H            2.81118948167491        0.03649577887558       -2.20576821646614
H            2.73656458391833       -1.61047319566120       -1.56310086997808
H            4.66516964180684        1.53028470585460       -1.59701807642629
H            6.96183899781043        1.73973762495293       -0.80022693891996
H            8.66386552824524        1.80269696967838        0.82964736721483
H            9.24285933222065        1.13961588384085       -0.72593120820010
H           10.05863290035867        0.69720591033779        0.79313130143590
H            7.09042706370594       -4.25019397988971        1.66137160370296
H            5.46955157769527       -3.52418652766828        1.77794807604315
H            6.07547722828339       -4.11769257695065        0.20463846314413
H            4.45073918709538       -2.42921414730626       -0.04275048764446
H           -0.15891463395275       -1.71087974801199       -1.69602231645833
H           -0.96525243654753       -1.35106322296781       -0.15426959599650
H            0.61852424579365       -2.13875350546933       -0.15881641892665
H           -4.39709594432931        3.40494812154355       -0.31791190437154
H           -3.93667134245494        3.07820904202361        2.67394124199150
H           -4.85662764637257        1.89292204333485        1.78877734297304
H           -5.48361227092332        3.51493507340284        1.90726278301476
H           -2.82282937135303        5.37815024685373        1.42756354319204
H           -3.21840098335376        5.62520682896863       -0.25859120775026
H           -4.48672888947041        5.70508805547554        0.92615412031946
H           -0.80417231626899        2.70810237001939        2.88645912912316
