25
 energy: 0.000000000000 xtb: 6.6.1 (8d0f1dd)
C            3.23720163006194        1.16630919979326        0.08434469647475
N            2.29877817382611        0.07527477071623        0.03981603040599
C            2.58028210190900       -1.21425402444508        0.03006176031096
N            1.43813958087363       -1.93419271955128        0.00098261760884
C            0.39035688448383       -1.05887472636071       -0.00790371836672
C            0.93510056364412        0.21347819449412        0.01709077491437
C            0.09450143893243        1.40504303904423       -0.00410947031874
O            0.49712751527797        2.54126714362870       -0.00342325688240
N           -1.25076640035757        1.06271879480407       -0.03085478223738
C           -2.21907211982101        2.15522099834493       -0.05001256985998
C           -1.81739487048744       -0.20012725993278       -0.04692818574614
O           -2.99983886758376       -0.37846417018721       -0.07008878229737
N           -0.92618586207120       -1.30210215599479       -0.03682761578324
C           -1.46982264913417       -2.64643102187190       -0.06029820460571
H            3.71247264356769        1.21471455160235        1.06488849150277
H            4.00791497605742        1.03430808813993       -0.67357694370751
H            2.69910007168542        2.09770118228144       -0.09130154882931
H            3.56654120610678       -1.63682992603973        0.04233140067262
H           -1.67107961066214        3.09322851271934       -0.02552706933167
H           -2.82428953597071        2.09428624779827       -0.95318082946668
H           -2.87644029173232        2.07745725625962        0.81450067533302
H           -1.17061996399332       -3.19584890659852        0.83242232437030
H           -1.14560257411436       -3.17511610292205       -0.95688275822323
H           -2.55549792440841       -2.55659984320617       -0.07459039797972
H            1.38130855184625       -2.94313852034425       -0.01389874181052
25
 energy: -5.399348107152 xtb: 6.6.1 (8d0f1dd)
C            3.24418057889836        1.17727738453054        0.08676210755791
N            2.30806727075935        0.09555870628574        0.03772460623301
C            2.59946062199755       -1.23260843607430        0.03001466714833
N            1.42730002036267       -1.94009603628131        0.00078306670619
C            0.39630043038002       -1.05591776450208       -0.00824530445376
C            0.93018278239113        0.22276661442860        0.01529288408016
C            0.10152727280611        1.39616100077679       -0.00523823666095
O            0.49811338331709        2.56203402977873       -0.00468806730053
N           -1.26051274171803        1.05074789407454       -0.03110572826166
C           -2.22076506610770        2.14686826933045       -0.04985695673019
C           -1.82376612709390       -0.20056114270071       -0.04730972727076
O           -3.02040062073663       -0.38300944123575       -0.07042917444635
N           -0.93422999821142       -1.30070428505425       -0.03702577520295
C           -1.47166360734931       -2.64282643707834       -0.06017180616695
H            3.72236117908138        1.22311407406591        1.06885312951393
H            4.01229080111361        1.04222285826931       -0.67615311378828
H            2.69766234995889        2.10201727425550       -0.08890622907428
H            3.57761695396733       -1.65906712559543        0.04257980687502
H           -1.65921925692356        3.07813282698933       -0.02521716565855
H           -2.82608119936309        2.09352818838546       -0.95431370867750
H           -2.87844680623375        2.07673096388549        0.81591919486003
H           -1.16805782747923       -3.19392748027393        0.83195249479173
H           -1.14295485720656       -3.17341574820766       -0.95593831527890
H           -2.55697872627924       -2.55221090654382       -0.07458116370342
H            1.36022785760512       -2.94378667933679       -0.01366758894401
25
 energy: -6.572401342116 xtb: 6.6.1 (8d0f1dd)
C            3.25166677288247        1.18367370823799        0.08924204066651
N            2.31480554559463        0.10701418290451        0.03408902009596
C            2.60893832111728       -1.24613082222345        0.03010539215825
N            1.41466478826687       -1.93848887579150        0.00103168282105
C            0.39944223116563       -1.05115974526231       -0.00889832566265
C            0.92669222655910        0.23103683888114        0.01259895078976
C            0.10718196429316        1.38467653747300       -0.00742774690510
O            0.48581607011233        2.56568571263997       -0.00769323407607
N           -1.27103993545526        1.03987057380328       -0.03174341997940
C           -2.22170475171229        2.13988401775739       -0.04964957777464
C           -1.82667940663774       -0.20185408597765       -0.04773935389915
O           -3.02737943948451       -0.39044863244860       -0.07055708381674
N           -0.94017353214410       -1.29708086072790       -0.03723338908095
C           -1.47141838479983       -2.63818590837610       -0.05987929648769
H            3.73692873301260        1.23260432221764        1.06988978701048
H            4.01919977929734        1.05671653404512       -0.67763476799906
H            2.70048079444083        2.10660675024719       -0.08201290185398
H            3.58016174198156       -1.67955524108144        0.04303428064328
H           -1.64267013203978        3.06117413425147       -0.02472189494706
H           -2.82793753009560        2.09437475609558       -0.95450659714551
H           -2.88007292448310        2.07737079595810        0.81677072735806
H           -1.16538791417171       -3.19072215110463        0.83175612535952
H           -1.14002276065379       -3.17074076541689       -0.95473893530501
H           -2.55676513675767       -2.54728805431135       -0.07452678084633
H            1.33748754764778       -2.94000511961856       -0.01252080497625
25
 energy: -6.658229706897 xtb: 6.6.1 (8d0f1dd)
C            3.25571570295579        1.18497771044375        0.09070019561580
N            2.31808258433236        0.10805500934062        0.03092976637131
C            2.60900111991073       -1.25196252909342        0.03005479092448
N            1.40895771707882       -1.93617135053479        0.00164490839306
C            0.39970964271266       -1.04871128347644       -0.00954597645824
C            0.92688807299340        0.23449478444619        0.01031557178437
C            0.10842960227726        1.38204058993301       -0.00998089101583
O            0.47308834334180        2.56636085034769       -0.01135783853584
N           -1.27701904484943        1.03618582754032       -0.03275136045249
C           -2.22222768453713        2.13813034570753       -0.04958773852846
C           -1.82828818655710       -0.20397338589495       -0.04821007550128
O           -3.02837265197944       -0.39774531542081       -0.07059982359380
N           -0.94117002148018       -1.29519708878434       -0.03737678696048
C           -1.46926907569347       -2.63649066251266       -0.05941653186386
H            3.74694656414595        1.23406109966373        1.06900152053514
H            4.02275894603940        1.06871780727332       -0.67900339374435
H            2.70383444923747        2.10953312496075       -0.07320543552807
H            3.57710189586817       -1.69172254897025        0.04324057888227
H           -1.63276799856891        3.05272318118047       -0.02443505146382
H           -2.82924797785196        2.09697714003348       -0.95412868992605
H           -2.88048846879913        2.07939778666111        0.81718232335269
H           -1.16298859256677       -3.18832990071094        0.83261026899609
H           -1.13722432251087       -3.16916161514854       -0.95402400545545
H           -2.55480206589731       -2.54554118486532       -0.07435183799479
H            1.32556611833409       -2.93761978994748       -0.01067059168510
25
 energy: -6.632921006798 xtb: 6.6.1 (8d0f1dd)
C            3.26034232538946        1.18494192325719        0.09320326689118
N            2.32230972131313        0.10666247511274        0.02549566391640
C            2.60641472195181       -1.25760606527991        0.02952210650678
N            1.40329786344424       -1.93293578251662        0.00289262285963
C            0.39893672636282       -1.04517242326629       -0.01084121874574
C            0.92861548789204        0.23852714883722        0.00608270947007
C            0.10906741416492        1.38213069511856       -0.01533939087074
O            0.45570442184734        2.56855379631893       -0.01888659442450
N           -1.28385691643824        1.03302631669698       -0.03517014675601
C           -2.22296804165723        2.13761102864285       -0.04966712984690
C           -1.83115763632634       -0.20718209623414       -0.04929507266496
O           -3.02968767094602       -0.40779883583170       -0.07059350300168
N           -0.94113776430699       -1.29305430468608       -0.03767393318891
C           -1.46453692036557       -2.63568037109251       -0.05826384699945
H            3.76117551371477        1.22748419488664        1.06744527903050
H            4.02435337799779        1.08660206325778       -0.68288686895759
H            2.70727355365958        2.11246077632848       -0.05468605912142
H            3.57042684131977       -1.70698160988004        0.04324640930258
H           -1.62215574714296        3.04455363145875       -0.02426486715011
H           -2.83164751925245        2.10272976669639       -0.95328580726565
H           -2.88044432848727        2.08360644871615        0.81793249630829
H           -1.15787441439152       -3.18509336149978        0.83491970897909
H           -1.13122914529681       -3.16794226339975       -0.95244234775097
H           -2.55038663540655       -2.54600112210229       -0.07382523921154
H            1.31137943889649       -2.93441342736752       -0.00658434116106
25
 energy: -6.474690748324 xtb: 6.6.1 (8d0f1dd)
C            3.26529343438828        1.18321883821425        0.09805290719193
N            2.32704457141377        0.10393124310819        0.01650208266832
C            2.60154527013875       -1.26252319282514        0.02758376590126
N            1.39705950132769       -1.92886017614636        0.00478566496652
C            0.39673113282563       -1.03963695374429       -0.01339313045811
C            0.93110181276009        0.24378592796016       -0.00163052419368
C            0.10945639936541        1.38468278212828       -0.02569509693103
O            0.43659559882657        2.57300666064684       -0.03331563873124
N           -1.29109196502501        1.03026790732779       -0.04030348578123
C           -2.22408999340376        2.13846232623825       -0.05014820097592
C           -1.83583400568098       -0.21051256408159       -0.05151894659580
O           -3.03246776953272       -0.41869843927675       -0.07042259280860
N           -0.94093713269032       -1.29040974750682       -0.03834855899819
C           -1.45633716788954       -2.63617083435867       -0.05570896745931
H            3.78236193572433        1.20532032421021        1.06531941862310
H            4.02040111398369        1.11269725854917       -0.69149700820428
H            2.70924731121887        2.11489583558901       -0.01846203910295
H            3.56012834819225       -1.72460802134451        0.04264023783901
H           -1.61270046143919        3.03806823858386       -0.02461174867604
H           -2.83596239709205        2.11222792618006       -0.95186447100484
H           -2.87932254396891        2.08977734518027        0.81940991039399
H           -1.14784643505119       -3.18059490709921        0.83966787323475
H           -1.11952187708624       -3.16798372827196       -0.94859458612616
H           -2.54266276685091       -2.55132039686322       -0.07248241674210
H            1.29402275348162       -2.92999505022574        0.00106944811790
25
 energy: -4.612264087971 xtb: 6.6.1 (8d0f1dd)
C            3.28099974778272        1.17475829881845        0.11911499697972
N            2.34133047641656        0.09478947119866       -0.01892355898128
C            2.58330293285257       -1.27665692635861        0.01776331591657
N            1.37516867572604       -1.91486212717932        0.01120168665544
C            0.38738502756860       -1.01885859288192       -0.02438217097865
C            0.93852604603050        0.26251483304315       -0.03341336587885
C            0.11059953132649        1.39559840777850       -0.06897872387708
O            0.37805525477245        2.58994271856896       -0.09375853190473
N           -1.31421639354276        1.02288791519165       -0.06258178246245
C           -2.22870746407164        2.14331227606742       -0.05276345037801
C           -1.85324878721649       -0.21941355189951       -0.06097860209951
O           -3.04383256158386       -0.45138872849273       -0.06939476061645
N           -0.94148057030076       -1.28084352649054       -0.04149583108796
C           -1.42482222880353       -2.63954001090289       -0.04431739984478
H            3.86461313436903        1.10265622867512        1.05679118406305
H            3.99426056610791        1.21185941910652       -0.72767994078819
H            2.71272396199594        2.12149950268179        0.13481009753782
H            3.52305775584795       -1.78180658616581        0.03918528117499
H           -1.58682602999334        3.02156700355774       -0.02732365548384
H           -2.85375920664512        2.14701837194731       -0.94632728589168
H           -2.87328276568543        2.11026724510499        0.82558078283594
H           -1.10681359458413       -3.16309527211567        0.86002249051084
H           -1.07157873779450       -3.17097235321267       -0.93067565588227
H           -2.51295109609128       -2.57814012732305       -0.06609285635421
H            1.23371099345213       -2.91406528654548        0.03165163298283
25
 energy: 0.089336033197 xtb: 6.6.1 (8d0f1dd)
C            3.29633214512591        1.16228104027821        0.14594510994511
N            2.35414486397461        0.08530145080643       -0.06016040853556
C            2.56251689257130       -1.28820268489505        0.00543656511985
N            1.35208563915214       -1.89980212041650        0.01764390897946
C            0.37592204996292       -0.99539368280639       -0.03881649474573
C            0.94539351464109        0.28259762706025       -0.07286271795541
C            0.11182373303957        1.40971008061803       -0.12283939202329
O            0.32421549383954        2.60824178057977       -0.16974335595658
N           -1.33714843808414        1.01810664636173       -0.09065271213593
C           -2.23536151939537        2.15024981234923       -0.05505509650930
C           -1.87274251047247       -0.22601941879244       -0.07275254004878
O           -3.05706601449733       -0.48123047681046       -0.06741213598185
N           -0.94312963766065       -1.27006233335845       -0.04629671997365
C           -1.38859442823337       -2.64408749275312       -0.03019689970179
H            3.95561799336544        0.97517029619653        1.04334553351595
H            3.95630925952237        1.32112840981695       -0.76180431495294
H            2.71943669265437        2.12078008907410        0.31633090432868
H            3.48229974272423       -1.83672362381549        0.03402920281553
H           -1.56887292068467        3.01033547686650       -0.03013967910948
H           -2.87648464933260        2.18537023779230       -0.93792068217408
H           -2.86505371961406        2.12913340435951        0.83476509042657
H           -1.05772349852118       -3.14180368920702        0.88495644708836
H           -1.01408571158233       -3.17616813567000       -0.90763726743104
H           -2.47857706517172       -2.61414065345477       -0.05780455193877
H            1.17095676061236       -2.89574343800771        0.06667610310197
25
 energy: -1.224911686507 xtb: 6.6.1 (8d0f1dd)
C            3.29355409501865        1.15439958589053        0.15441442640080
N            2.34994899489287        0.08462108686780       -0.06742361566285
C            2.55850687982945       -1.27997717816419        0.00393382129960
N            1.35340334725361       -1.89903230616463        0.01754046989477
C            0.37226585592359       -0.99189093914361       -0.04473319899958
C            0.94429561409145        0.28312410512911       -0.08527696026744
C            0.11163615126283        1.41640845274681       -0.13932945797004
O            0.34022888838014        2.60990241954683       -0.19422470066854
N           -1.33342552915660        1.02427781201846       -0.09894703687588
C           -2.23881054391226        2.15427920900286       -0.05212622500167
C           -1.87546669551062       -0.22082055737963       -0.07598260510636
O           -3.05977879158315       -0.47207596422192       -0.06510839773557
N           -0.94460756153314       -1.26904129739375       -0.04971444695640
C           -1.38203147844796       -2.64670750114637       -0.02724567867905
H            3.95459190625195        0.94520446317537        1.03637400362841
H            3.94098554640685        1.32113330255429       -0.74629235615052
H            2.72687450273708        2.10185269769389        0.34080307046810
H            3.47795867518757       -1.82508234098881        0.03128778745323
H           -1.58892965798201        3.02405505873419       -0.02750033658518
H           -2.88440319839894        2.19015119764733       -0.93066591316507
H           -2.86111532945891        2.12362023581168        0.84214461186576
H           -1.04569694590920       -3.13704474517015        0.89029253650313
H           -0.99989624453292       -3.17982997848121       -0.90115069351570
H           -2.47171737163979       -2.63024296273803       -0.05570082829402
H            1.17384355876541       -2.89225525365471        0.07166562026734
25
 energy: -2.235382955623 xtb: 6.6.1 (8d0f1dd)
C            3.29152629034918        1.12566766481379        0.19184963051895
N            2.33669488087715        0.09047792367934       -0.10694095098182
C            2.54694294312295       -1.25775406798841       -0.00099603429758
N            1.34514374693266       -1.89364864696465        0.01783299514670
C            0.36002752116381       -0.97551595343345       -0.07079560593546
C            0.93565497352056        0.29082333915346       -0.14088499517047
C            0.10634943559795        1.43277553206025       -0.21173992970814
O            0.37717114549492        2.62236304052015       -0.31174121231484
N           -1.32724757575482        1.03859936643667       -0.13563082750416
C           -2.24947629577070        2.16417446284458       -0.04178204198087
C           -1.88697877879647       -0.20314260124501       -0.09012354462406
O           -3.07287747716662       -0.44248777852329       -0.05547506378226
N           -0.95591087033346       -1.26284754124389       -0.06516238674294
C           -1.35582831394352       -2.65196910836719       -0.01299021369554
H            3.97214471435182        0.81191812096648        1.00204360006271
H            3.88218245224081        1.36148929230608       -0.69663721354738
H            2.75626436910289        2.03001426319716        0.48628849217619
H            3.46399876812329       -1.79510807065730        0.01935162477541
H           -1.63639499373569        3.06099567086538       -0.01794637271623
H           -2.91886148657412        2.21026328156353       -0.90077962122596
H           -2.84272482698601        2.09999650628710        0.87180027341708
H           -0.99718798192898       -3.10940146741129        0.91585979048097
H           -0.93997118816440       -3.19181095893075       -0.87004350890063
H           -2.44295752643140       -2.69010747280888       -0.04580960035518
H            1.16453074264403       -2.87673619494767        0.09748661305277
25
 energy: 0.369237798386 xtb: 6.6.1 (8d0f1dd)
C            3.29240239096309        1.09175557973243        0.23984211682938
N            2.32284906485978        0.09879495595427       -0.16519881141118
C            2.53274544532554       -1.23987086322620       -0.00608080138029
N            1.32938209116051       -1.88557852567240        0.01764295221921
C            0.34696891634840       -0.95621433451052       -0.10490607680893
C            0.92420546383084        0.30141281724286       -0.21410042038959
C            0.09674477873534        1.44767487934692       -0.30926800781627
O            0.40585386540228        2.63034909765610       -0.46342164130547
N           -1.32600448887496        1.05453988479049       -0.18493227258816
C           -2.26098693588377        2.17462357803214       -0.03284648014488
C           -1.89935133915811       -0.18338773110984       -0.10953892757632
O           -3.08656630226466       -0.41216052961890       -0.04367891907435
N           -0.96957268177443       -1.25333620775629       -0.08602341684588
C           -1.32317888232430       -2.65421645194549        0.00850132960586
H            4.01876056431484        0.62458498944131        0.94973019238056
H            3.80636439402329        1.46142114934470       -0.65612426118391
H            2.78596415528931        1.94974149986219        0.72303955533609
H            3.44745814765142       -1.77283684006218        0.00292872023867
H           -1.67805483507886        3.09365578476815       -0.01089273981277
H           -2.96232169952627        2.23359532528696       -0.86534941512250
H           -2.81761576191697        2.07250061680958        0.90376880152406
H           -0.94209260348700       -3.06800177215286        0.95352060455196
H           -0.86862845218817       -3.20523728714457       -0.82572779280094
H           -2.40588089347058       -2.75590445483163       -0.03021725802013
H            1.14277026597914       -2.85887655806497        0.13636686574306
25
 energy: 2.627523464909 xtb: 6.6.1 (8d0f1dd)
C            3.28602861579428        1.06555107625208        0.27561344698406
N            2.29283288361334        0.13598270236607       -0.21270603011705
C            2.54436727939746       -1.22717900616192        0.01166393825905
N            1.31434929098477       -1.88989346614432        0.00554462059335
C            0.35082609159179       -0.96127550994285       -0.13732252050509
C            0.89184877142939        0.29583248078652       -0.27308547655353
C            0.06403028612077        1.42842057695001       -0.38832800608375
O            0.45801488299546        2.60724713676316       -0.58302974326660
N           -1.31251482008740        1.07190674662132       -0.22342464475827
C           -2.25989641438627        2.17331052399992       -0.02581687210027
C           -1.88537862798129       -0.15370173339372       -0.12483558592848
O           -3.08397690265990       -0.34487986947307       -0.03080034067251
N           -0.99046606804212       -1.25007702770398       -0.11452278033530
C           -1.32341014242764       -2.63962277594385        0.02695432111152
H            4.01436109417991        0.50322846825406        0.86227767354691
H            3.74931523134278        1.57356264443301       -0.59218194860705
H            2.80914938229683        1.84020002508022        0.93048086173111
H            3.48476151468634       -1.71191701418615       -0.01930905129167
H           -1.69499913553161        3.11517862753258       -0.00598912330868
H           -2.99456304803037        2.21443411360597       -0.82913340044972
H           -2.78617814187928        2.01779235477364        0.92448298483367
H           -0.93751451382967       -3.02086274180772        0.98307631932268
H           -0.84675751623472       -3.21012838934290       -0.78210879527237
H           -2.39218701884913       -2.78289628818617       -0.01251857922086
H            1.16017169344187       -2.86118505295964        0.16205262823613
25
 energy: 8.957887727631 xtb: 6.6.1 (8d0f1dd)
C            3.28210295403365        1.04622707740313        0.32730306402215
N            2.29313937535499        0.13223119684273       -0.25154041620900
C            2.52348095178045       -1.21876270190592        0.00070082467887
N            1.30418539851414       -1.87673951831107       -0.00164930953488
C            0.33961546383420       -0.94503263927304       -0.17138305439230
C            0.89460220850125        0.30723245919287       -0.33607748567332
C            0.05801299148814        1.44545959317653       -0.48754466193956
O            0.43366892496934        2.61450384515491       -0.68862811742062
N           -1.32098158304576        1.08256289854969       -0.27282533504501
C           -2.26697505509086        2.18419330075872       -0.01930694321156
C           -1.89693927523967       -0.14965724828156       -0.14607464623014
O           -3.09068132975410       -0.34416533358011       -0.02001783623906
N           -0.99210883928574       -1.23859944022351       -0.13973063096934
C           -1.29210777290525       -2.64158999277687        0.04840239185219
H            4.07317603002239        0.36026750570138        0.83047395835856
H            3.69244011891688        1.66564808159418       -0.53735896507740
H            2.83309192631362        1.77764710362026        1.10604508023591
H            3.45748533263482       -1.71888312610485       -0.05243934603640
H           -1.70930584775840        3.12460679186552       -0.00104491899548
H           -3.03585525459096        2.24509640727964       -0.79655349736210
H           -2.75713505063749        2.01397190419770        0.95154059447670
H           -0.89286160619417       -2.97817981323565        1.02401799242858
H           -0.79089542752569       -3.22523230254958       -0.74062479891181
H           -2.36205004238142       -2.82853268809319        0.00380496067056
H            1.13511007598110       -2.84524475882957        0.19754499267173
25
 energy: 4.149742652416 xtb: 6.6.1 (8d0f1dd)
C            3.26662339524263        1.05811343600543        0.35348992689077
N            2.30052592320102        0.13053456132890       -0.22531644798454
C            2.51691864362394       -1.22526778254705       -0.00008592642654
N            1.30898768711137       -1.87052836517905       -0.02296328726012
C            0.34489806629259       -0.95580785031407       -0.18863224944797
C            0.90302863380038        0.30347509729934       -0.34181444398330
C            0.04777141665840        1.43940955205209       -0.53276266772642
O            0.37406092196822        2.59962626172480       -0.67950034654669
N           -1.32759109583875        1.08713828205157       -0.29217995186301
C           -2.25836284368844        2.18508177175846       -0.01586514737056
C           -1.88537446304102       -0.16004568701452       -0.15445578182954
O           -3.07380164121064       -0.35449063265684       -0.01271104896090
N           -0.98152044685273       -1.23209550230242       -0.16667857126383
C           -1.29625348754073       -2.63249265349963        0.05579384804935
H            4.07243488368360        0.40296030754550        0.83317360864819
H            3.70376284144036        1.66237037554257       -0.45904743482811
H            2.83113475930182        1.74933415347129        1.07153656589572
H            3.45983360426356       -1.72686956256103       -0.10633057640091
H           -1.67982524114082        3.10051265316929        0.00307372044313
H           -3.04799989474739        2.24531502618300       -0.77683031718945
H           -2.73154458699717        2.02062636737600        0.95682776000771
H           -0.90904635498688       -2.94921677275348        1.04206819574381
H           -0.80579917479193       -3.23027197776154       -0.72334946048845
H           -2.37062586343829       -2.80887924444640        0.01242307146793
H            1.14997898562235       -2.84950321229983        0.19717085857100
25
 energy: 3.084625294389 xtb: 6.6.1 (8d0f1dd)
C            3.26036865574785        1.04362339608860        0.37850866632391
N            2.30362345579574        0.13496134678839       -0.23331580243535
C            2.51976497764402       -1.22847899975440        0.00563499428303
N            1.30947208453301       -1.87238036800322       -0.04015624588153
C            0.34998831099617       -0.96302717348854       -0.21561248725336
C            0.90345575343996        0.29777491454972       -0.36388687076722
C            0.03802700310786        1.42613564546106       -0.56771884651464
O            0.36010303680325        2.59068318092808       -0.77110599171791
N           -1.32510221030745        1.08820806626041       -0.31225994406763
C           -2.24654407195508        2.18148069250116       -0.01219945567905
C           -1.87616716337163       -0.16130564876042       -0.16174580536262
O           -3.06450186328220       -0.34360511958577        0.00165302149806
N           -0.98193037221488       -1.22981892516961       -0.19691118856057
C           -1.30185841037734       -2.61986060449866        0.06885411551163
H            4.03988239471849        0.41663081571877        0.79688789904487
H            3.69395208768842        1.71724726417728       -0.38239181385335
H            2.81739441476878        1.66861866656644        1.18102352126718
H            3.46749671311501       -1.71542607113132       -0.16829400449445
H           -1.66769535182393        3.09644174061324        0.00236967304590
H           -3.05666814458068        2.24174843831491       -0.74879093248582
H           -2.69562220564913        2.00348256609165        0.96798125478436
H           -0.92455870741775       -2.90542815348220        1.06588897822643
H           -0.80797798374163       -3.23841450989500       -0.68971442248838
H           -2.37055450186545       -2.79409329894654        0.02733449852113
H            1.16786676616399       -2.84616925917169        0.19500108520263
25