25
 energy: 0.000000000000 xtb: 6.6.1 (8d0f1dd)
C            3.23720163006194        1.16630919979326        0.08434469647475
N            2.29877817382611        0.07527477071623        0.03981603040599
C            2.58028210190900       -1.21425402444508        0.03006176031096
N            1.43813958087363       -1.93419271955128        0.00098261760884
C            0.39035688448383       -1.05887472636071       -0.00790371836672
C            0.93510056364412        0.21347819449412        0.01709077491437
C            0.09450143893243        1.40504303904423       -0.00410947031874
O            0.49712751527797        2.54126714362870       -0.00342325688240
N           -1.25076640035757        1.06271879480407       -0.03085478223738
C           -2.21907211982101        2.15522099834493       -0.05001256985998
C           -1.81739487048744       -0.20012725993278       -0.04692818574614
O           -2.99983886758376       -0.37846417018721       -0.07008878229737
N           -0.92618586207120       -1.30210215599479       -0.03682761578324
C           -1.46982264913417       -2.64643102187190       -0.06029820460571
H            3.71247264356769        1.21471455160235        1.06488849150277
H            4.00791497605742        1.03430808813993       -0.67357694370751
H            2.69910007168542        2.09770118228144       -0.09130154882931
H            3.56654120610678       -1.63682992603973        0.04233140067262
H           -1.67107961066214        3.09322851271934       -0.02552706933167
H           -2.82428953597071        2.09428624779827       -0.95318082946668
H           -2.87644029173232        2.07745725625962        0.81450067533302
H           -1.17061996399332       -3.19584890659852        0.83242232437030
H           -1.14560257411436       -3.17511610292205       -0.95688275822323
H           -2.55549792440841       -2.55659984320617       -0.07459039797972
H            1.38130855184625       -2.94313852034425       -0.01389874181052
25
 energy: -5.399741042990 xtb: 6.6.1 (8d0f1dd)
C            3.24431309093001        1.17720950966447        0.08676561254012
N            2.30809252061763        0.09557966051492        0.03773234614926
C            2.59945947633895       -1.23259151850497        0.02999907115589
N            1.42728463111887       -1.94004274123370        0.00077388733090
C            0.39628920784381       -1.05585760398017       -0.00822882899125
C            0.93018044904491        0.22282714912524        0.01532125167630
C            0.10146664521637        1.39618975293658       -0.00522223070596
O            0.49802344838728        2.56207045845796       -0.00470396551299
N           -1.26057841323878        1.05075580090323       -0.03110249757951
C           -2.22086582727969        2.14685099104792       -0.04986082933028
C           -1.82381088729090       -0.20056090401104       -0.04730982563807
O           -3.02044131926032       -0.38304269316073       -0.07043973231827
N           -0.93423960649624       -1.30066990142352       -0.03701216018913
C           -1.47163391983607       -2.64280608249032       -0.06015812009423
H            3.72248911431635        1.22303832161024        1.06886051549588
H            4.01244398505261        1.04205466735245       -0.67611255279956
H            2.69789637911170        2.10198637975746       -0.08895620464155
H            3.57760812541301       -1.65908230571851        0.04252856959219
H           -1.65935668308306        3.07812957240080       -0.02514706202739
H           -2.82613879387017        2.09354799645710       -0.95434607336447
H           -2.87859962552807        2.07666660528661        0.81586838829959
H           -1.16802368259727       -3.19388930880107        0.83197505742687
H           -1.14288992495362       -3.17338446442480       -0.95591682727476
H           -2.55695097134431       -2.55222992302820       -0.07458631372211
H            1.36019724932319       -2.94372081656592       -0.01368757933022
25
 energy: -6.574933812391 xtb: 6.6.1 (8d0f1dd)
C            3.25279576210908        1.18405283291655        0.08948627995377
N            2.31562615653887        0.10734445400712        0.03404591703246
C            2.60932276530836       -1.24683564300062        0.02999743455515
N            1.41394633563321       -1.93826370840670        0.00097357093521
C            0.39941992474148       -1.05047700720571       -0.00893836589923
C            0.92699588831295        0.23167366850577        0.01249593646395
C            0.10697245517890        1.38466517587142       -0.00763422754614
O            0.48477246361422        2.56633922317589       -0.00804199760743
N           -1.27165938802454        1.03922401355578       -0.03182599191201
C           -2.22217028891513        2.13906309311019       -0.04964600361401
C           -1.82749905873388       -0.20212410577914       -0.04779952398693
O           -3.02841129529798       -0.39101677172510       -0.07058281683649
N           -0.94048723940183       -1.29668566133536       -0.03723360127398
C           -1.47135699042704       -2.63778686563271       -0.05980497729938
H            3.73864359424393        1.23339987931924        1.06998862261857
H            4.02026095901283        1.05760014957222       -0.67765929982104
H            2.70141923786189        2.10695991244375       -0.08154544540247
H            3.58021601155572       -1.68162635058399        0.04289586183186
H           -1.64163111986097        3.05938829833228       -0.02443818132036
H           -2.82827351683847        2.09421786449023       -0.95467759950823
H           -2.88068574689420        2.07689769015229        0.81674423153259
H           -1.16504849300663       -3.19016907794279        0.83185162864656
H           -1.13957372129941       -3.17029357951745       -0.95456991999541
H           -2.55672977572854       -2.54684627523642       -0.07452638074850
H            1.33534974825338       -2.93967260691473       -0.01252125465121
25
 energy: -6.618965511715 xtb: 6.6.1 (8d0f1dd)
C            3.25844330473625        1.18590915974695        0.09141015224900
N            2.32000874635704        0.10878637379843        0.03064094891785
C            2.60942170823570       -1.25375844595262        0.02973273415351
N            1.40678013015115       -1.93539949055351        0.00155374169629
C            0.39954477468702       -1.04688851266639       -0.00976973134208
C            0.92761430803632        0.23610501625015        0.00979776742455
C            0.10774066496402        1.38169538937643       -0.01090359351840
O            0.46955689581119        2.56747870084626       -0.01277904910772
N           -1.27870449942383        1.03433537779165       -0.03315199559670
C           -2.22302497867090        2.13624462385739       -0.04957561584124
C           -1.83007976468034       -0.20492932081065       -0.04843147165114
O           -3.03038986588131       -0.39972999155241       -0.07061863311224
N           -0.94177435845275       -1.29423881728689       -0.03745122499581
C           -1.46877354071142       -2.63558553603112       -0.05918086026325
H            3.75188189577951        1.23563981088183        1.06892865092132
H            4.02517942098718        1.07234795944613       -0.67931662483543
H            2.70612778190449        2.11064729853577       -0.07064186039584
H            3.57622422017750       -1.69725284438474        0.04304185670608
H           -1.62932464401672        3.04813711389209       -0.02381958325261
H           -2.82997081264760        2.09693507349563       -0.95435302353609
H           -2.88152755267715        2.07856338827052        0.81718836126531
H           -1.16196273336756       -3.18688542728673        0.83302271249259
H           -1.13593552407296       -3.16815278865609       -0.95358044798789
H           -2.55434267425594       -2.54442275369291       -0.07429679777082
H            1.31950176496731       -2.93655275514314       -0.01041251647196
25
 energy: -6.389039374911 xtb: 6.6.1 (8d0f1dd)
C            3.26740081714732        1.18659647988683        0.09567991154933
N            2.32712684079283        0.10783108282869        0.02349148797369
C            2.60572036674649       -1.26258422703131        0.02829929630785
N            1.39675838278127       -1.93021083133735        0.00294232430052
C            0.39815778720706       -1.03994419806321       -0.01188006430460
C            0.93053491116165        0.24313551781813        0.00354194466424
C            0.10696598030904        1.38141757947637       -0.01959234234640
O            0.44282671358021        2.57112238310881       -0.02526511397339
N           -1.28928372981113        1.02827169559561       -0.03717886864033
C           -2.22464403492258        2.13392150768167       -0.04971029867577
C           -1.83549242574060       -0.21033101598865       -0.05026283714879
O           -3.03376128024539       -0.41517529278077       -0.07056180309975
N           -0.94212429824085       -1.29052845717591       -0.03807466476900
C           -1.46144568499736       -2.63382839826660       -0.05722815285917
H            3.77688208459833        1.22701089505403        1.06643703823703
H            4.02922780502572        1.10042825888122       -0.68520237441876
H            2.71349463306005        2.11592424895801       -0.04143087473409
H            3.56523346447470       -1.72297077600357        0.04292367467191
H           -1.61192059258271        3.03310650175596       -0.02282241985187
H           -2.83382215662677        2.10480873024867       -0.95335422196491
H           -2.88218768520161        2.08307007550594        0.81816060754893
H           -1.15368961580790       -3.18098708507316        0.83694149575126
H           -1.12616957402292       -3.16587527609450       -0.95077182798069
H           -2.54741866269604       -2.54424294269969       -0.07340571128632
H            1.29384462194738       -2.93093785411318       -0.00464230880362
25
 energy: -5.107348585029 xtb: 6.6.1 (8d0f1dd)
C            3.28413429651620        1.18457329365308        0.10747192848481
N            2.33973505003547        0.10460014196238        0.00641201985917
C            2.59525755569904       -1.27632667654805        0.02257879050699
N            1.37796673686167       -1.91971676243202        0.00577748144257
C            0.39332515667249       -1.02398090788857       -0.01780544469783
C            0.93654220917594        0.25769090945181       -0.01280300176295
C            0.10400108870337        1.38515121875478       -0.04373429705699
O            0.39436572472058        2.58090893538157       -0.05996239356049
N           -1.30831150254643        1.01890911920911       -0.04933394833913
C           -2.22872200506189        2.13237855554117       -0.05069805621609
C           -1.84784726584831       -0.21967396197820       -0.05564616931223
O           -3.04207309542563       -0.44292763023504       -0.07016736322650
N           -0.94248700592362       -1.28310108108457       -0.04006941824650
C           -1.44236255714821       -2.63296827697639       -0.05111611027330
H            3.83387562524842        1.18416862743391        1.06088260736662
H            4.02646829481647        1.16190990254142       -0.70358555450305
H            2.72560431022585        2.12455181969076        0.04085392373253
H            3.53947897464742       -1.77124249934277        0.04171322903015
H           -1.58540993282594        3.01047435919960       -0.02132011560364
H           -2.84403534298687        2.12481069612006       -0.95081644862616
H           -2.88210995172878        2.09288030493670        0.82083050668714
H           -1.13039844646947       -3.16812100268043        0.84851727533314
H           -1.09883626138316       -3.16450651304878       -0.94139439009326
H           -2.52930820070027       -2.55258334499088       -0.07021492966882
H            1.24336121266183       -2.91883062449862        0.01066377489111
25
 energy: 4.232761702748 xtb: 6.6.1 (8d0f1dd)
C            3.32544232444688        1.17685323316335        0.13944922276494
N            2.37086232853877        0.09481990395198       -0.03955289231999
C            2.56655825886620       -1.30852829131265        0.00672680685313
N            1.33170919457870       -1.89267782448800        0.01271625459548
C            0.37980326666919       -0.98222022943566       -0.03397769472463
C            0.95237570645587        0.29480214907961       -0.05709037156700
C            0.09697903550115        1.39784953754688       -0.10877591394178
O            0.27542308217823        2.60648884071710       -0.15351205488943
N           -1.35509849524062        0.99766229194161       -0.08226830106481
C           -2.23988971047088        2.13068754792887       -0.05346779522945
C           -1.87984990632982       -0.24204225773160       -0.06980026569698
O           -3.06329426706068       -0.51116816138235       -0.06834711418839
N           -0.94289150046403       -1.26405124774935       -0.04548747695682
C           -1.39106475149253       -2.63227881114669       -0.03420109059638
H            3.98115303074444        1.05997545740685        1.04574647329448
H            4.01250665698553        1.32075411300571       -0.75202362126260
H            2.75530236531658        2.14349255963399        0.26277514869511
H            3.47142372569241       -1.89133853267449        0.03768416503538
H           -1.52577720749877        2.95882033794610       -0.01851431426526
H           -2.87165169407183        2.17706397664075       -0.94360663339303
H           -2.88110786320631        2.11791853527148        0.82823543583394
H           -1.06881069072218       -3.13417284504754        0.88103525496117
H           -1.02339945160182       -3.16339090857997       -0.91439852578175
H           -2.48061556866025       -2.57922789274409       -0.06297937352543
H            1.11612679878178       -2.88706287976977        0.05066857351737
25
 energy: 1.505927773033 xtb: 6.6.1 (8d0f1dd)
C            3.32029858889360        1.17123469716862        0.13907730586282
N            2.36770372938878        0.09026061828092       -0.03862608059125
C            2.56343782643043       -1.29955340086363        0.01013662238887
N            1.34054671092589       -1.89349770234680        0.01276604516383
C            0.37848494444025       -0.98293553894021       -0.03499617051105
C            0.95431697597262        0.29150100409588       -0.05888050611375
C            0.10005467677650        1.40531093559692       -0.11033515426097
O            0.29572418776503        2.60344762859937       -0.15641019686251
N           -1.34830649762530        1.00597316034794       -0.08175788156290
C           -2.24284086309439        2.13509342107920       -0.04976462800985
C           -1.87847976868962       -0.23796795183835       -0.06883891229074
O           -3.06051920360945       -0.50334640136338       -0.06604162556705
N           -0.94012636787691       -1.26501966973184       -0.04651757569390
C           -1.38959772221986       -2.63455696892829       -0.03535344332113
H            3.95855173487092        1.06106479975071        1.04413004675503
H            4.01117879738367        1.29640849499315       -0.73190517945921
H            2.75988052641881        2.12769470433692        0.23924312793908
H            3.46918873230106       -1.87568167716428        0.03609226090059
H           -1.55364633627128        2.97573500871398       -0.01585298648978
H           -2.87370081954480        2.17574941189871       -0.93858311523506
H           -2.88143378888534        2.11360033148319        0.83246066915398
H           -1.07098531919546       -3.13482883030688        0.88142844712003
H           -1.01931209248197       -3.16581562357026       -0.91398880466165
H           -2.47888426580712       -2.58508685355281       -0.06748057784308
H            1.13068028166991       -2.88575499556670        0.04703220933693
25
 energy: 3.774902874102 xtb: 6.6.1 (8d0f1dd)
C            3.33634708798338        1.15117383680760        0.15999535785327
N            2.37709203857464        0.08085568491551       -0.06439103512995
C            2.54427429671197       -1.29787447718346        0.01026020021714
N            1.32773448223870       -1.87866640677385        0.01843016891610
C            0.36841391557986       -0.95821939486916       -0.04894122181558
C            0.96330895899332        0.30867581431430       -0.09248059837467
C            0.10470741795081        1.42601506173019       -0.15956256674377
O            0.27650228491271        2.61755445606097       -0.23944551638605
N           -1.36094692105717        1.01058143210468       -0.10320716469993
C           -2.25926964618087        2.14046945319781       -0.03972838749311
C           -1.89399082634134       -0.23756845897395       -0.07682929641761
O           -3.06946526365002       -0.51904279402065       -0.05845393248999
N           -0.93938811355943       -1.25402411861794       -0.05468800701429
C           -1.35661965238204       -2.63652360209821       -0.02795172472120
H            3.99357126499657        0.98338675551349        1.03173698045889
H            4.00137585827394        1.32580788421122       -0.70643741626791
H            2.79375866204189        2.09509193371364        0.32237108388068
H            3.42937801843666       -1.90330181908874        0.02766523335360
H           -1.58610299754499        2.98525405310375       -0.00188643785916
H           -2.90098933074165        2.20232197156413       -0.91837045408372
H           -2.88263029411164        2.10793060574972        0.85199252259715
H           -1.03658559448649       -3.11141064841895        0.90222615603825
H           -0.95891300007444       -3.16996608016126       -0.89389648100214
H           -2.44626163373417       -2.61826447974817       -0.07506555376668
H            1.08691365510574       -2.86122806086056        0.06369198709796
25
 energy: 7.061552246975 xtb: 6.6.1 (8d0f1dd)
C            3.35902237175611        1.10845034456709        0.19724366254390
N            2.38273922662784        0.07497161222147       -0.10731900022832
C            2.52194095300461       -1.28044086187481        0.02077780082630
N            1.31037205806326       -1.85665574111627        0.03289479299806
C            0.35337314223646       -0.91890283214435       -0.07476207587140
C            0.96922651459917        0.33490153576244       -0.15164752716325
C            0.11777426410458        1.45936974861271       -0.24967020613603
O            0.28291726724358        2.64535878950663       -0.41869483086509
N           -1.37196517519996        1.02361917122048       -0.14133209164847
C           -2.29103653455569        2.14715289950134       -0.01603481345732
C           -1.91616867652588       -0.22362006123160       -0.09083926546735
O           -3.08571465830429       -0.51888468175984       -0.04308585257551
N           -0.94591674586313       -1.23662630008416       -0.07355987210874
C           -1.30741390829568       -2.63711312787446       -0.01720507759679
H            4.02876372295103        0.83207955309823        1.00321778372800
H            3.97304363403825        1.34172797585459       -0.64199253088129
H            2.85394626963468        2.01001919419880        0.46220442001417
H            3.37874365369028       -1.90570711483934        0.00664226923806
H           -1.67126422406000        3.02422367782652        0.03303829984359
H           -2.95244510816771        2.23904181993584       -0.87575819087215
H           -2.88597457989838        2.07227659132936        0.89392832492818
H           -0.98350946899316       -3.06737404231216        0.93626433132882
H           -0.85206526235243       -3.17784954965227       -0.85541673658010
H           -2.39477517922680       -2.68415699490951       -0.09322065370699
H            1.03860111142911       -2.81683300366456        0.09136093585700
25
 energy: 11.700734070666 xtb: 6.6.1 (8d0f1dd)
C            3.37503072503614        1.06693744691479        0.23132441312195
N            2.38387958011933        0.07231131113147       -0.15587322817089
C            2.50401846911915       -1.25945098061470        0.03512152854891
N            1.29811139296975       -1.83815479129287        0.05016712242605
C            0.34039950174398       -0.88563580784488       -0.09777670815609
C            0.97137395587940        0.35573572923791       -0.20768314925949
C            0.12938156616686        1.48842717215679       -0.33463165737573
O            0.30145229130365        2.66072730541531       -0.58839789729548
N           -1.37925782167903        1.03797541472924       -0.17882637752272
C           -2.31666998961904        2.15386920368635       -0.00129820315931
C           -1.93486217226103       -0.20728775635761       -0.10519384603966
O           -3.09965245254741       -0.51065052012930       -0.03153840817240
N           -0.95294740525703       -1.22323435872299       -0.09146200578012
C           -1.26573116863501       -2.63664657896260       -0.00355115090998
H            4.08210446668621        0.64496180017462        0.95484445556349
H            3.91932277536494        1.40524111330786       -0.61423239861118
H            2.89554919489140        1.92865842267653        0.66440283148786
H            3.33884558924780       -1.89799569091777       -0.01630274007413
H           -1.74888793376765        3.06438003584050        0.05902600857332
H           -2.99469806866437        2.26691691100007       -0.84300767244146
H           -2.88721089150004        2.03497519461707        0.92265669222826
H           -0.94085869717463       -3.02574874874134        0.97073051407861
H           -0.76076642177308       -3.18476091983179       -0.81418955760478
H           -2.34747998918331       -2.74439856241919       -0.10426915678862
H            1.00176817146872       -2.77812374288121        0.12699448748092
25
 energy: 12.442737923547 xtb: 6.6.1 (8d0f1dd)
C            3.35843559719548        1.03237055316406        0.24196321566979
N            2.34765278657963        0.10627225200979       -0.19290069311157
C            2.52477789740314       -1.20960768428377        0.07579499231661
N            1.30838476424824       -1.84692342394299        0.06900349173575
C            0.34217141921782       -0.88770946700722       -0.10842043699745
C            0.93862471363820        0.34746283880782       -0.23410954121453
C            0.12533573665289        1.48668813408285       -0.37206868130689
O            0.41871765655112        2.64182019950589       -0.69408949344245
N           -1.35465429437831        1.05784256986686       -0.19889105076420
C           -2.32029557737378        2.15541908493894       -0.00630100818145
C           -1.92948607659888       -0.16789550859744       -0.11575614507773
O           -3.10772872517471       -0.43366705926545       -0.03169249690598
N           -0.97446436579232       -1.23253559805210       -0.10953626394560
C           -1.27220888695697       -2.63198800658920        0.00740258264987
H            4.09935829070055        0.43509070340396        0.85790866497615
H            3.81071495383788        1.49188216861603       -0.64752624525861
H            2.88619275996331        1.83190896766706        0.90652602414723
H            3.37670496412897       -1.78842749751880       -0.03948806341597
H           -1.81714188611701        3.13069292824241        0.06592017900882
H           -3.00372625906141        2.24748165174199       -0.83689763847615
H           -2.88213615129000        1.97660605558752        0.91912031874584
H           -0.94379310296980       -3.00719045264788        0.98383489315873
H           -0.74304457749282       -3.18809916972918       -0.77884377400226
H           -2.33406892370120       -2.78650394249629       -0.09643685697912
H            1.05789195472557       -2.77196169533257        0.16251792281848
25
 energy: 14.238741144729 xtb: 6.6.1 (8d0f1dd)
C            3.37968718179600        1.01223857889981        0.28238914169439
N            2.33574817002166        0.12289002153530       -0.21868977745950
C            2.50439572818382       -1.21471961429453        0.08507943525809
N            1.27162531000662       -1.83657523573921        0.05631567092839
C            0.33207719227395       -0.86547784046993       -0.13260031047483
C            0.92297877252100        0.36901571946349       -0.29028998055015
C            0.08460136770575        1.49827068277594       -0.46511606330470
O            0.38321968601559        2.65333777479202       -0.76121020723680
N           -1.37261437742308        1.06834569948802       -0.24276291099260
C           -2.33662601731110        2.16363751155932        0.00809729477803
C           -1.93964144074926       -0.15930265301101       -0.13800836481470
O           -3.12136083440320       -0.43146846101244       -0.02158398810671
N           -0.98119962591762       -1.21943639247485       -0.13242325252586
C           -1.23126241133469       -2.63289311262774        0.02013194746743
H            4.13365281165946        0.37026218712615        0.85001281074959
H            3.82073358476285        1.53623103795837       -0.60167988421999
H            2.95481732441684        1.79415557065659        0.98751937208673
H            3.35531864619515       -1.83205614668395       -0.06379374394181
H           -1.80997794432905        3.12187570026226        0.09039113356101
H           -3.05561291422047        2.28298447852445       -0.80401856946175
H           -2.87051838209262        1.97385152505196        0.95054481471686
H           -0.88459141878793       -2.97193468306391        1.01411589151589
H           -0.66437771110493       -3.19647321846340       -0.74552369196659
H           -2.29280569521246       -2.84007459697180       -0.09902382414367
H            0.99394766526326       -2.77765593110857        0.19916095259054
25
 energy: 11.446092195102 xtb: 6.6.1 (8d0f1dd)
C            3.36434926800442        1.00161844127703        0.30918499313559
N            2.28828846724449        0.16419495325175       -0.19491176095402
C            2.51060413738232       -1.20701129132119        0.10490021147096
N            1.25737629510276       -1.84287757710190        0.02575978920116
C            0.33751246072082       -0.89482426499924       -0.14245614513683
C            0.87790827618473        0.35657334427865       -0.30816953358972
C            0.00801640199183        1.47300684245497       -0.53917231562633
O            0.37680759930173        2.63902329422867       -0.77354791835318
N           -1.35819532259004        1.09325406892093       -0.28031236503889
C           -2.32503693537739        2.16959317176288        0.01943566612228
C           -1.90951698383747       -0.13614981530225       -0.15404231604952
O           -3.10554504185201       -0.35841731284771       -0.02316931500471
N           -0.99210119159936       -1.22004560401765       -0.16316818157675
C           -1.23949566713172       -2.62398186670249        0.02618753907886
H            4.07891508302454        0.39322613641090        0.84864759923431
H            3.84849372832886        1.49774981300395       -0.53282782529797
H            2.98137744219796        1.75845454589719        0.97057002096660
H            3.41073400069697       -1.78335236474894       -0.12766170195246
H           -1.77010182293425        3.11644733915993        0.11806663079797
H           -3.09014626209082        2.27102260682273       -0.76783210088472
H           -2.83808903459538        1.94037206000627        0.96709319638019
H           -0.88453663730435       -2.94339608018942        1.02689399592356
H           -0.66245135999517       -3.19478267748770       -0.72229704020882
H           -2.29076145642758       -2.86106860432042       -0.09083498001741
H            1.03780922348970       -2.81960055626462        0.23069775352712
25
 energy: 14.318401431273 xtb: 6.6.1 (8d0f1dd)
C            3.36732811242669        0.97445849502199        0.34486245300037
N            2.30179343703601        0.13995481585941       -0.21741235128592
C            2.48114982768090       -1.20597709332316        0.09784682920771
N            1.25555019504040       -1.81481654068095        0.03255012876628
C            0.32449759430358       -0.88305361435436       -0.16613945441434
C            0.89652284117021        0.36738935754570       -0.35087060622811
C            0.01507478273271        1.48921806016521       -0.62790799472546
O            0.31028380460166        2.65183709271993       -0.92244052572823
N           -1.36708698239815        1.10885560360660       -0.32307119021240
C           -2.33392495591896        2.17737899280849        0.03566434813221
C           -1.91503910443927       -0.13874017960232       -0.16743642483412
O           -3.09370586693090       -0.36020993537263       -0.01831838164648
N           -0.98748271272827       -1.19896872813464       -0.18887121657914
C           -1.20980774583418       -2.61776331797015        0.04129337668339
H            4.11848546872614        0.27676594626617        0.81701483448278
H            3.82797782031145        1.53534377873721       -0.45520701694329
H            3.01487209244993        1.70365741921700        1.11647237130729
H            3.36363306396759       -1.78349289424139       -0.19136042595726
H           -1.80458393301166        3.11936907812897        0.14543167173419
H           -3.12552477076445        2.29423348039548       -0.72373877422740
H           -2.82072911766986        1.90710075477014        0.99037925443707
H           -0.87065413064037       -2.88507012104616        1.06845540820850
H           -0.59950732788624       -3.19597388538467       -0.68275476583110
H           -2.26065706255891       -2.89392143510067       -0.09609685995567
H            1.02374933826940       -2.77854652785890        0.26868920875639
25