25
 energy: -42.143278453940 gnorm: 0.005107222457 xtb: 6.6.1 (8d0f1dd)
C            2.95571392708002        1.29683581539040       -0.32953590619038
N            2.22958209032326        0.06984528666759       -0.14484960695792
C            2.78586507772271       -1.10956088266812        0.02418655618697
N            1.85260217024001       -2.04589602131313        0.17027609586497
C            0.56711871265794       -1.48935392014786        0.10415202237727
C            0.82611491047957       -0.07011816870196       -0.12365811085189
C            0.06428435326038        1.08947515075683       -0.25350728637782
O            0.38452046983089        2.24511966728554       -0.32280274634924
N           -1.50291569552305        0.87033029075767       -0.31058144425623
C           -2.16901437554363        1.29134860596173        0.92402200936527
C           -2.02617957935307        0.89253234369274       -1.44205420182132
O           -2.37896544051557        0.86212863235372       -2.53457855730856
N           -0.39136648130208       -2.30354645970085        0.28071872608439
C           -1.79841561288895       -2.13634878227761        0.26452225670806
H            2.74093721237250        1.99276048617706        0.48246702906380
H            4.02102596289210        1.08005886673389       -0.34976139984526
H            2.66506732237984        1.77659977817549       -1.26446917634229
H            3.84507132560648       -1.28732756776009        0.04092375240311
H           -2.02605566868866        2.36379005319502        1.07025729503156
H           -3.23246028751966        1.06766268139280        0.87260363735970
H           -1.71217911801528        0.75613643258554        1.75546064775880
H           -2.14345565446302       -1.46844945447789        1.05707626976038
H           -2.22817512008000       -3.12302139639154        0.44030966043764
H           -2.16279982159678       -1.76899125068694       -0.69884301306404
H            1.99451083473662       -3.03377164540398        0.31883710886213
