25
 energy: -42.088432183255 gnorm: 0.000873962919 xtb: 6.6.1 (8d0f1dd)
C            3.15760032072581        1.25240974992314        0.01517621398058
N            2.21963184088394        0.16437308166570       -0.00666353845520
C            2.52872053556083       -1.13490343183519       -0.02202465364184
N            1.37182375950875       -1.83617944823211       -0.01822827632734
C            0.31477229775146       -0.97579987646826       -0.00126921543534
C            0.85225849356466        0.30558139466177        0.00784313724955
C            0.00795700630866        1.47893016439708        0.00351778193119
O            0.38409700591246        2.62745899012509       -0.00718817340650
N           -1.34538113894866        1.13295358370130        0.00692049623749
C           -2.31409096432163        2.21757788517441        0.00435092397617
C           -1.89730916186518       -0.13719162207162        0.00787929729488
O           -3.08477062721379       -0.31627024415400        0.01066798329479
N           -1.00565062429847       -1.22556476478698        0.00317126536085
C           -1.53767774123479       -2.57141497995753        0.00010710807200
H            3.60014761862804        1.34720681141172        1.00903234843863
H            3.95751169762545        1.06400317631157       -0.69940307964803
H            2.64194319216654        2.17973463857632       -0.23083192498129
H            4.70679119319808       -3.64725198240535       -0.03167739448242
H           -1.77207258364392        3.16087894656465        0.01172297541018
H           -2.94481505821677        2.15001616651529       -0.88312446235995
H           -2.95731249882868        2.14202972734900        0.88205607918476
H           -1.21115316235500       -3.11109785186362        0.89008835190894
H           -1.21700916709005       -3.10565413355148       -0.89525585529448
H           -2.62473237541651       -2.49940140387935        0.00377825073334
H            1.32915165569862       -2.84418603557188       -0.02947402114101
