      -----------------------------------------------------------      
     |                   =====================                   |     
     |                           x T B                           |     
     |                   =====================                   |     
     |                         S. Grimme                         |     
     |          Mulliken Center for Theoretical Chemistry        |     
     |                    University of Bonn                     |     
      -----------------------------------------------------------      

   * xtb version 6.6.1 (8d0f1dd) compiled by 'conda@1efc2f54142f' on 2023-08-01

   xtb is free software: you can redistribute it and/or modify it under
   the terms of the GNU Lesser General Public License as published by
   the Free Software Foundation, either version 3 of the License, or
   (at your option) any later version.
   
   xtb is distributed in the hope that it will be useful,
   but WITHOUT ANY WARRANTY; without even the implied warranty of
   MERCHANTABILITY or FITNESS FOR A PARTICULAR PURPOSE.  See the
   GNU Lesser General Public License for more details.
   
   Cite this work as:
   * C. Bannwarth, E. Caldeweyher, S. Ehlert, A. Hansen, P. Pracht,
     J. Seibert, S. Spicher, S. Grimme, WIREs Comput. Mol. Sci., 2020, 11,
     e01493. DOI: 10.1002/wcms.1493
   
   for GFN2-xTB:
   * C. Bannwarth, S. Ehlert and S. Grimme., J. Chem. Theory Comput., 2019,
     15, 1652-1671. DOI: 10.1021/acs.jctc.8b01176
   for GFN1-xTB:
   * S. Grimme, C. Bannwarth, P. Shushkov, J. Chem. Theory Comput., 2017,
     13, 1989-2009. DOI: 10.1021/acs.jctc.7b00118
   for GFN0-xTB:
   * P. Pracht, E. Caldeweyher, S. Ehlert, S. Grimme, ChemRxiv, 2019, preprint.
     DOI: 10.26434/chemrxiv.8326202.v1
   for GFN-FF:
   * S. Spicher and S. Grimme, Angew. Chem. Int. Ed., 2020, 59, 15665-15673.
     DOI: 10.1002/anie.202004239
   
   for ALPB and GBSA implicit solvation:
   * S. Ehlert, M. Stahn, S. Spicher, S. Grimme, J. Chem. Theory Comput.,
     2021, 17, 4250-4261. DOI: 10.1021/acs.jctc.1c00471
   
   for DFT-D4:
   * E. Caldeweyher, C. Bannwarth and S. Grimme, J. Chem. Phys., 2017,
     147, 034112. DOI: 10.1063/1.4993215
   * E. Caldeweyher, S. Ehlert, A. Hansen, H. Neugebauer, S. Spicher,
     C. Bannwarth and S. Grimme, J. Chem. Phys., 2019, 150, 154122.
     DOI: 10.1063/1.5090222
   * E. Caldeweyher, J.-M. Mewes, S. Ehlert and S. Grimme, Phys. Chem. Chem. Phys.
     2020, 22, 8499-8512. DOI: 10.1039/D0CP00502A
   
   for sTDA-xTB:
   * S. Grimme and C. Bannwarth, J. Chem. Phys., 2016, 145, 054103.
     DOI: 10.1063/1.4959605
   
   in the mass-spec context:
   * V. Asgeirsson, C. Bauer and S. Grimme, Chem. Sci., 2017, 8, 4879.
     DOI: 10.1039/c7sc00601b
   * J. Koopman and S. Grimme, ACS Omega 2019, 4, 12, 15120-15133.
     DOI: 10.1021/acsomega.9b02011
   
   for metadynamics refer to:
   * S. Grimme, J. Chem. Theory Comput., 2019, 155, 2847-2862
     DOI: 10.1021/acs.jctc.9b00143
   
   for SPH calculations refer to:
   * S. Spicher and S. Grimme, J. Chem. Theory Comput., 2021, 17, 1701-1714
     DOI: 10.1021/acs.jctc.0c01306
   
   with help from (in alphabetical order)
   P. Atkinson, C. Bannwarth, F. Bohle, G. Brandenburg, E. Caldeweyher
   M. Checinski, S. Dohm, S. Ehlert, S. Ehrlich, I. Gerasimov, C. Hölzer
   A. Katbashev, J. Koopman, C. Lavigne, S. Lehtola, F. März, M. Müller,
   F. Musil, H. Neugebauer, J. Pisarek, C. Plett, P. Pracht, F. Pultar,
   J. Seibert, P. Shushkov, S. Spicher, M. Stahn, M. Steiner, T. Strunk,
   J. Stückrath, T. Rose, and J. Unsleber
   
 * started run on 2024/04/06 at 11:16:57.900     

           -------------------------------------------------
          |                Calculation Setup                |
           -------------------------------------------------

          program call               : xtb struc.xyz --opt loose --input .xc1 --gfn2
          hostname                   : n-62-30-23
          coordinate file            : struc.xyz
          omp threads                :                     1

   ID    Z sym.   atoms
    1    7 N      1, 17
    2    6 C      2-6, 8, 9, 11-16, 18-23, 25, 26, 28-33
    3    8 O      7, 10, 24, 27
    4    1 H      34-72
constraining bond 22 61 to    4.7133300 Å, actual value:    3.8496617 Å

           -------------------------------------------------
          |                 G F N 2 - x T B                 |
           -------------------------------------------------

        Reference                      10.1021/acs.jctc.8b01176
      * Hamiltonian:
        H0-scaling (s, p, d)           1.850000    2.230000    2.230000
        zeta-weighting                 0.500000
      * Dispersion:
        s8                             2.700000
        a1                             0.520000
        a2                             5.000000
        s9                             5.000000
      * Repulsion:
        kExp                           1.500000    1.000000
        rExp                           1.000000
      * Coulomb:
        alpha                          2.000000
        third order                    shell-resolved
        anisotropic                    true
        a3                             3.000000
        a5                             4.000000
        cn-shift                       1.200000
        cn-exp                         4.000000
        max-rad                        5.000000


          ...................................................
          :                      SETUP                      :
          :.................................................:
          :  # basis functions                 171          :
          :  # atomic orbitals                 171          :
          :  # shells                          105          :
          :  # electrons                       180          :
          :  max. iterations                   250          :
          :  Hamiltonian                  GFN2-xTB          :
          :  restarted?                      false          :
          :  GBSA solvation                  false          :
          :  PC potential                    false          :
          :  electronic temp.         5000.0000000     K    :
          :  accuracy                    1.0000000          :
          :  -> integral cutoff          0.2500000E+02      :
          :  -> integral neglect         0.1000000E-07      :
          :  -> SCF convergence          0.1000000E-05 Eh   :
          :  -> wf. convergence          0.1000000E-03 e    :
          :  Broyden damping             0.4000000          :
          ...................................................

 iter      E             dE          RMSdq      gap      omega  full diag
   1   -100.5973919 -0.100597E+03  0.374E+00    3.20       0.0  T
   2   -100.7362642 -0.138872E+00  0.221E+00    1.08       1.0  T
   3   -100.7049001  0.313641E-01  0.141E+00    3.29       1.0  T
   4   -100.7721690 -0.672689E-01  0.526E-01    1.50       1.0  T
   5   -100.7894292 -0.172602E-01  0.190E-01    1.98       1.0  T
   6   -100.7911978 -0.176856E-02  0.792E-02    1.77       1.0  T
   7   -100.7914750 -0.277198E-03  0.375E-02    1.83       1.0  T
   8   -100.7914914 -0.164582E-04  0.140E-02    1.83       1.0  T
   9   -100.7914976 -0.616739E-05  0.474E-03    1.82       2.5  T
  10   -100.7914988 -0.118227E-05  0.172E-03    1.82       6.8  T
  11   -100.7914989 -0.139928E-06  0.766E-04    1.82      15.4  T
  12   -100.7914989 -0.773143E-08  0.318E-04    1.82      37.0  T

   *** convergence criteria satisfied after 12 iterations ***

         #    Occupation            Energy/Eh            Energy/eV
      -------------------------------------------------------------
         1        2.0000           -0.8078051             -21.9815
       ...           ...                  ...                  ...
        84        1.9966           -0.5157491             -14.0342
        85        1.9959           -0.5128261             -13.9547
        86        1.9840           -0.4911498             -13.3649
        87        1.9795           -0.4872543             -13.2589
        88        1.9640           -0.4782114             -13.0128
        89        1.8920           -0.4602041             -12.5228
        90        1.8557           -0.4553147             -12.3897 (HOMO)
        91        0.3166           -0.3884132             -10.5693 (LUMO)
        92        0.0218           -0.3434697              -9.3463
        93        0.0041           -0.3169887              -8.6257
        94        0.0034           -0.3139726              -8.5436
        95        0.0029           -0.3112618              -8.4699
       ...           ...                  ...                  ...
       171                          0.5822580              15.8440
      -------------------------------------------------------------
                  HL-Gap            0.0669015 Eh            1.8205 eV
             Fermi-level           -0.4148687 Eh          -11.2892 eV

 SCC (total)                   0 d,  0 h,  0 min,  0.190 sec
 SCC setup                      ...        0 min,  0.001 sec (  0.652%)
 Dispersion                     ...        0 min,  0.002 sec (  0.987%)
 classical contributions        ...        0 min,  0.001 sec (  0.286%)
 integral evaluation            ...        0 min,  0.018 sec (  9.638%)
 iterations                     ...        0 min,  0.098 sec ( 51.624%)
 molecular gradient             ...        0 min,  0.069 sec ( 36.471%)
 printout                       ...        0 min,  0.001 sec (  0.335%)

         :::::::::::::::::::::::::::::::::::::::::::::::::::::
         ::                     SUMMARY                     ::
         :::::::::::::::::::::::::::::::::::::::::::::::::::::
         :: total energy             -99.537317834478 Eh    ::
         :: gradient norm              0.233536440062 Eh/a0 ::
         :: HOMO-LUMO gap              1.820481192090 eV    ::
         ::.................................................::
         :: SCC energy              -100.791498925389 Eh    ::
         :: -> isotropic ES            0.109302908418 Eh    ::
         :: -> anisotropic ES          0.005415138735 Eh    ::
         :: -> anisotropic XC          0.042392697176 Eh    ::
         :: -> dispersion             -0.075527661009 Eh    ::
         :: repulsion energy           1.386151658689 Eh    ::
         :: add. restraining          -0.133186920284 Eh    ::
         :: total charge               1.000000000108 e     ::
         :::::::::::::::::::::::::::::::::::::::::::::::::::::

      ----------------------------------------------------------- 
     |                   =====================                   |
     |                        A N C O P T                        |
     |                   =====================                   |
     |               Approximate Normal Coordinate               |
     |                Rational Function Optimizer                |
      ----------------------------------------------------------- 

          ...................................................
          :                      SETUP                      :
          :.................................................:
          :   optimization level             loose          :
          :   max. optcycles                   200          :
          :   ANC micro-cycles                  20          :
          :   degrees of freedom               210          :
          :.................................................:
          :   RF solver                   davidson          :
          :   write xtbopt.log                true          :
          :   linear?                        false          :
          :   energy convergence         0.5000000E-04 Eh   :
          :   grad. convergence          0.4000000E-02 Eh/α :
          :   maxmium RF displ.          1.0000000          :
          :   Hlow (freq-cutoff)         0.1000000E-01      :
          :   Hmax (freq-cutoff)         5.0000000          :
          :   S6 in model hess.         20.0000000          :
          ...................................................

generating ANC from model Hessian ...
Using Lindh-Hessian (1995)
 Shifting diagonal of input Hessian by    9.9368923293151092E-003
 Lowest  eigenvalues of input Hessian
    0.000000    0.000000    0.000000    0.000000    0.000000    0.000000
    0.010000    0.010065    0.010264    0.010395    0.010439    0.010698
    0.010844    0.011081    0.011147    0.011681    0.011929    0.012778
 Highest eigenvalues
    2.035899    2.045895    2.047565    2.179380    2.186992    2.187243


........................................................................
.............................. CYCLE    1 ..............................
........................................................................

 iter      E             dE          RMSdq      gap      omega  full diag
   1   -100.7914989 -0.100791E+03  0.114E-04    1.82       0.0  T
   2   -100.7914989 -0.678995E-10  0.713E-05    1.82     165.2  T
   3   -100.7914989  0.665210E-10  0.496E-05    1.82     237.5  T
     SCC iter.                  ...        0 min,  0.026 sec
     gradient                   ...        0 min,  0.069 sec
 * total energy  :   -99.5373178 Eh     change       -0.4035485E-08 Eh
   gradient norm :     0.2335376 Eh/α   predicted     0.0000000E+00 (-100.00%)
   displ. norm   :     0.8160909 α      lambda       -0.1590755E+00
   maximum displ.:     0.3603150 α      in ANC's #50, #55, #53, ...

........................................................................
.............................. CYCLE    2 ..............................
........................................................................

 iter      E             dE          RMSdq      gap      omega  full diag
   1   -100.8301578 -0.100830E+03  0.573E-01    1.85       0.0  T
   2   -100.8304514 -0.293617E-03  0.338E-01    1.92       1.0  T
   3   -100.8288485  0.160291E-02  0.145E-01    1.73       1.0  T
   4   -100.8304256 -0.157705E-02  0.491E-02    1.93       1.0  T
   5   -100.8306465 -0.220907E-03  0.100E-02    1.88       1.2  T
   6   -100.8306463  0.194264E-06  0.493E-03    1.88       2.4  T
   7   -100.8306470 -0.738176E-06  0.175E-03    1.88       6.7  T
   8   -100.8306472 -0.130653E-06  0.509E-04    1.88      23.1  T
   9   -100.8306472 -0.401663E-08  0.218E-04    1.88      54.1  T
     SCC iter.                  ...        0 min,  0.072 sec
     gradient                   ...        0 min,  0.069 sec
 * total energy  :   -99.6787922 Eh     change       -0.1414744E+00 Eh
   gradient norm :     0.2153411 Eh/α   predicted    -0.1325188E+00 (  -6.33%)
   displ. norm   :     0.8530122 α      lambda       -0.1369344E+00
   maximum displ.:     0.3828333 α      in ANC's #50, #55, #53, ...

........................................................................
.............................. CYCLE    3 ..............................
........................................................................

 iter      E             dE          RMSdq      gap      omega  full diag
   1   -100.7455361 -0.100746E+03  0.612E-01    1.82       0.0  T
   2   -100.7459678 -0.431643E-03  0.365E-01    1.92       1.0  T
   3   -100.7402768  0.569094E-02  0.240E-01    1.63       1.0  T
   4   -100.7460972 -0.582037E-02  0.688E-02    1.93       1.0  T
   5   -100.7465091 -0.411930E-03  0.106E-02    1.86       1.1  T
   6   -100.7465108 -0.172544E-05  0.464E-03    1.86       2.5  T
   7   -100.7465117 -0.858716E-06  0.197E-03    1.86       6.0  T
   8   -100.7465119 -0.157736E-06  0.686E-04    1.86      17.2  T
   9   -100.7465119 -0.977319E-08  0.261E-04    1.86      45.2  T
     SCC iter.                  ...        0 min,  0.072 sec
     gradient                   ...        0 min,  0.069 sec
 * total energy  :   -99.7960135 Eh     change       -0.1172213E+00 Eh
   gradient norm :     0.2748931 Eh/α   predicted    -0.1182863E+00 (   0.91%)
   displ. norm   :     0.7581013 α      lambda       -0.1239518E+00
   maximum displ.:     0.3080904 α      in ANC's #50, #53, #55, ...

........................................................................
.............................. CYCLE    4 ..............................
........................................................................

 iter      E             dE          RMSdq      gap      omega  full diag
   1   -100.4183156 -0.100418E+03  0.697E-01    0.30       0.0  T
   2   -100.2419524  0.176363E+00  0.132E+00    1.19       1.0  T
   3   -100.4944886 -0.252536E+00  0.487E-01    1.78       1.0  T
   4   -100.5105630 -0.160744E-01  0.267E-01    1.41       1.0  T
   5   -100.5167749 -0.621192E-02  0.998E-02    1.09       1.0  T
   6   -100.5172690 -0.494049E-03  0.615E-02    1.13       1.0  T
   7   -100.5175087 -0.239759E-03  0.300E-02    1.17       1.0  T
   8   -100.5175602 -0.514901E-04  0.118E-02    1.19       1.0  T
   9   -100.5175671 -0.686235E-05  0.647E-03    1.18       1.8  T
  10   -100.5175693 -0.225821E-05  0.239E-03    1.19       4.9  T
  11   -100.5175696 -0.248161E-06  0.109E-03    1.19      10.9  T
  12   -100.5175697 -0.970909E-07  0.300E-04    1.19      39.3  T
  13   -100.5175697 -0.313227E-08  0.109E-04    1.19     107.7  T
     SCC iter.                  ...        0 min,  0.104 sec
     gradient                   ...        0 min,  0.070 sec
 * total energy  :   -99.8915875 Eh     change       -0.9557394E-01 Eh
   gradient norm :     0.2483090 Eh/α   predicted    -0.9759456E-01 (   2.11%)
   displ. norm   :     0.8919205 α      lambda       -0.1387528E+00
   maximum displ.:     0.3490945 α      in ANC's #50, #53, #55, ...

........................................................................
.............................. CYCLE    5 ..............................
........................................................................

 iter      E             dE          RMSdq      gap      omega  full diag
   1   -100.2514395 -0.100251E+03  0.159E+00    0.40       0.0  T
   2   -100.0122780  0.239162E+00  0.158E+00    0.63       1.0  T
   3   -100.1123967 -0.100119E+00  0.117E+00    0.27       1.0  T
   4   -100.2666514 -0.154255E+00  0.779E-01    0.72       1.0  T
   5   -100.3141040 -0.474525E-01  0.376E-01    0.69       1.0  T
   6   -100.3384308 -0.243269E-01  0.117E-01    0.64       1.0  T
   7   -100.3396303 -0.119950E-02  0.591E-02    0.66       1.0  T
   8   -100.3397686 -0.138285E-03  0.364E-02    0.65       1.0  T
   9   -100.3399012 -0.132546E-03  0.102E-02    0.65       1.2  T
  10   -100.3399099 -0.875040E-05  0.380E-03    0.65       3.1  T
  11   -100.3399100 -0.883552E-07  0.255E-03    0.65       4.6  T
  12   -100.3399104 -0.446710E-06  0.952E-04    0.65      12.4  T
  13   -100.3399105 -0.580106E-07  0.235E-04    0.65      50.3  T
     SCC iter.                  ...        0 min,  0.105 sec
     gradient                   ...        0 min,  0.069 sec
 * total energy  :  -100.0455872 Eh     change       -0.1539997E+00 Eh
   gradient norm :     0.5460638 Eh/α   predicted    -0.1245668E+00 ( -19.11%)
   displ. norm   :     0.4638150 α      lambda       -0.1193303E+00
   maximum displ.:     0.2613179 α      in ANC's #78, #82, #24, ...

........................................................................
.............................. CYCLE    6 ..............................
........................................................................

 iter      E             dE          RMSdq      gap      omega  full diag
   1   -100.3020599 -0.100302E+03  0.517E-01    0.56       0.0  T
   2   -100.1708474  0.131213E+00  0.998E-01    0.30       1.0  T
   3   -100.3165577 -0.145710E+00  0.289E-01    0.55       1.0  T
   4   -100.3140746  0.248309E-02  0.268E-01    0.55       1.0  T
   5   -100.3192620 -0.518743E-02  0.107E-01    0.54       1.0  T
   6   -100.3199410 -0.678980E-03  0.403E-02    0.57       1.0  T
   7   -100.3201778 -0.236766E-03  0.149E-02    0.58       1.0  T
   8   -100.3201952 -0.174052E-04  0.708E-03    0.57       1.7  T
   9   -100.3201980 -0.286810E-05  0.310E-03    0.57       3.8  T
  10   -100.3201988 -0.789023E-06  0.113E-03    0.57      10.4  T
  11   -100.3201989 -0.100584E-06  0.562E-04    0.57      21.0  T
  12   -100.3201989 -0.117640E-07  0.269E-04    0.57      43.9  T
     SCC iter.                  ...        0 min,  0.096 sec
     gradient                   ...        0 min,  0.069 sec
 * total energy  :  -100.1613147 Eh     change       -0.1157276E+00 Eh
   gradient norm :     0.4561324 Eh/α   predicted    -0.7250081E-01 ( -37.35%)
   displ. norm   :     0.8879998 α      lambda       -0.2789831E+00
   maximum displ.:     0.5106792 α      in ANC's #78, #58, #82, ...

........................................................................
.............................. CYCLE    7 ..............................
........................................................................

 iter      E             dE          RMSdq      gap      omega  full diag
   1   -100.1840170 -0.100184E+03  0.738E-01    0.83       0.0  T
   2    -99.9866348  0.197382E+00  0.133E+00    0.51       1.0  T
   3   -100.2155942 -0.228959E+00  0.432E-01    0.75       1.0  T
   4   -100.1989818  0.166124E-01  0.489E-01    0.36       1.0  T
   5   -100.2201974 -0.212156E-01  0.156E-01    0.61       1.0  T
   6   -100.2221877 -0.199032E-02  0.453E-02    0.63       1.0  T
   7   -100.2223855 -0.197816E-03  0.180E-02    0.65       1.0  T
   8   -100.2223793  0.623589E-05  0.138E-02    0.66       1.0  T
   9   -100.2223876 -0.832540E-05  0.826E-03    0.65       1.4  T
  10   -100.2223948 -0.718508E-05  0.244E-03    0.65       4.8  T
  11   -100.2223953 -0.458960E-06  0.701E-04    0.65      16.8  T
  12   -100.2223953 -0.877890E-08  0.378E-04    0.65      31.2  T
     SCC iter.                  ...        0 min,  0.096 sec
     gradient                   ...        0 min,  0.075 sec
 * total energy  :  -100.3769721 Eh     change       -0.2156573E+00 Eh
   gradient norm :     0.6797875 Eh/α   predicted    -0.2494868E+00 (  15.69%)
   displ. norm   :     0.8721668 α      lambda       -0.4412054E+00
   maximum displ.:     0.2677748 α      in ANC's #160, #207, #55, ...

........................................................................
.............................. CYCLE    8 ..............................
........................................................................

 iter      E             dE          RMSdq      gap      omega  full diag
   1   -100.1515831 -0.100152E+03  0.621E-01    1.15       0.0  T
   2    -99.9805501  0.171033E+00  0.113E+00    0.28       1.0  T
   3   -100.1746919 -0.194142E+00  0.379E-01    1.18       1.0  T
   4   -100.1829089 -0.821702E-02  0.203E-01    0.91       1.0  T
   5   -100.1838831 -0.974184E-03  0.955E-02    0.95       1.0  T
   6   -100.1844908 -0.607734E-03  0.580E-02    0.92       1.0  T
   7   -100.1848247 -0.333909E-03  0.189E-02    0.93       1.0  T
   8   -100.1848380 -0.132597E-04  0.116E-02    0.94       1.0  T
   9   -100.1848448 -0.675867E-05  0.547E-03    0.94       2.2  T
  10   -100.1848449 -0.156150E-06  0.394E-03    0.94       3.0  T
  11   -100.1848461 -0.117340E-05  0.945E-04    0.94      12.5  T
  12   -100.1848461 -0.265744E-07  0.387E-04    0.94      30.5  T
  13   -100.1848461 -0.672030E-08  0.179E-04    0.94      65.8  T
     SCC iter.                  ...        0 min,  0.104 sec
     gradient                   ...        0 min,  0.069 sec
 * total energy  :  -100.8257556 Eh     change       -0.4487835E+00 Eh
   gradient norm :     0.7851167 Eh/α   predicted    -0.3884099E+00 ( -13.45%)
   displ. norm   :     0.8603395 α      lambda       -0.4972215E+00
   maximum displ.:     0.2622569 α      in ANC's #55, #160, #54, ...

........................................................................
.............................. CYCLE    9 ..............................
........................................................................

 iter      E             dE          RMSdq      gap      omega  full diag
   1   -100.1122959 -0.100112E+03  0.986E-01    1.14       0.0  T
   2    -99.9575532  0.154743E+00  0.118E+00    0.32       1.0  T
   3   -100.1084490 -0.150896E+00  0.669E-01    1.12       1.0  T
   4   -100.1294507 -0.210017E-01  0.478E-01    1.01       1.0  T
   5   -100.1411962 -0.117454E-01  0.190E-01    1.16       1.0  T
   6   -100.1474627 -0.626657E-02  0.875E-02    1.09       1.0  T
   7   -100.1476906 -0.227827E-03  0.639E-02    1.08       1.0  T
   8   -100.1475987  0.918716E-04  0.484E-02    1.05       1.0  T
   9   -100.1478287 -0.229987E-03  0.193E-02    1.07       1.0  T
  10   -100.1478687 -0.400451E-04  0.783E-03    1.08       1.5  T
  11   -100.1478748 -0.607041E-05  0.348E-03    1.08       3.4  T
  12   -100.1478752 -0.454970E-06  0.173E-03    1.08       6.8  T
  13   -100.1478755 -0.211122E-06  0.653E-04    1.08      18.0  T
  14   -100.1478755 -0.382176E-07  0.210E-04    1.08      56.1  T
     SCC iter.                  ...        0 min,  0.111 sec
     gradient                   ...        0 min,  0.069 sec
 * total energy  :  -101.3447169 Eh     change       -0.5189613E+00 Eh
   gradient norm :     0.7457527 Eh/α   predicted    -0.4326290E+00 ( -16.64%)
   displ. norm   :     0.9409740 α      lambda       -0.6254549E+00
   maximum displ.:     0.3244762 α      in ANC's #191, #50, #196, ...

........................................................................
.............................. CYCLE   10 ..............................
........................................................................

 iter      E             dE          RMSdq      gap      omega  full diag
   1   -100.1141313 -0.100114E+03  0.920E-01    0.92       0.0  T
   2    -99.9446953  0.169436E+00  0.139E+00    0.98       1.0  T
   3   -100.1342285 -0.189533E+00  0.576E-01    0.85       1.0  T
   4   -100.1536421 -0.194136E-01  0.317E-01    0.93       1.0  T
   5   -100.1531555  0.486630E-03  0.245E-01    0.71       1.0  T
   6   -100.1581176 -0.496218E-02  0.139E-01    0.95       1.0  T
   7   -100.1608308 -0.271318E-02  0.241E-02    0.91       1.0  T
   8   -100.1608512 -0.204297E-04  0.164E-02    0.93       1.0  T
   9   -100.1608730 -0.217543E-04  0.635E-03    0.92       1.9  T
  10   -100.1608744 -0.136112E-05  0.254E-03    0.92       4.6  T
  11   -100.1608751 -0.736662E-06  0.990E-04    0.92      11.9  T
  12   -100.1608752 -0.664603E-07  0.572E-04    0.92      20.6  T
     SCC iter.                  ...        0 min,  0.097 sec
     gradient                   ...        0 min,  0.069 sec
 * total energy  :   -98.1079555 Eh     change        0.3236761E+01 Eh
   gradient norm :    20.8936263 Eh/α   predicted    -0.5896271E+00 (-118.22%)
   displ. norm   :     0.5536421 α      lambda       -0.1143603E+02
   maximum displ.:     0.1986917 α      in ANC's #196, #191, #50, ...

........................................................................
.............................. CYCLE   11 ..............................
........................................................................

 iter      E             dE          RMSdq      gap      omega  full diag
   1   -100.1471570 -0.100147E+03  0.638E-01    0.80       0.0  T
   2   -100.0399192  0.107238E+00  0.106E+00    0.88       1.0  T
   3   -100.1643365 -0.124417E+00  0.372E-01    0.87       1.0  T
   4   -100.1685896 -0.425309E-02  0.248E-01    0.79       1.0  T
   5   -100.1680768  0.512840E-03  0.198E-01    0.91       1.0  T
   6   -100.1738696 -0.579283E-02  0.456E-02    0.87       1.0  T
   7   -100.1740833 -0.213711E-03  0.184E-02    0.88       1.0  T
   8   -100.1741197 -0.364299E-04  0.755E-03    0.89       1.6  T
   9   -100.1741204 -0.716062E-06  0.443E-03    0.88       2.7  T
  10   -100.1741231 -0.268577E-05  0.137E-03    0.88       8.6  T
  11   -100.1741232 -0.115030E-06  0.586E-04    0.88      20.1  T
  12   -100.1741232  0.208870E-08  0.438E-04    0.88      26.9  T
     SCC iter.                  ...        0 min,  0.096 sec
     gradient                   ...        0 min,  0.069 sec
 * total energy  :  -101.4791780 Eh     change       -0.3371222E+01 Eh
   gradient norm :     0.3764855 Eh/α   predicted    -0.7470700E+01 ( 121.60%)
   displ. norm   :     0.7112534 α      lambda       -0.1088605E+00
   maximum displ.:     0.2997851 α      in ANC's #58, #41, #78, ...

........................................................................
.............................. CYCLE   12 ..............................
........................................................................

 iter      E             dE          RMSdq      gap      omega  full diag
   1   -100.2440653 -0.100244E+03  0.550E-01    0.68       0.0  T
   2   -100.1691374  0.749280E-01  0.894E-01    0.91       1.0  T
   3   -100.2565432 -0.874058E-01  0.282E-01    0.80       1.0  T
   4   -100.2557403  0.802814E-03  0.278E-01    0.86       1.0  T
   5   -100.2566875 -0.947189E-03  0.183E-01    0.84       1.0  T
   6   -100.2599997 -0.331214E-02  0.103E-01    0.85       1.0  T
   7   -100.2608303 -0.830643E-03  0.426E-02    0.85       1.0  T
   8   -100.2609076 -0.772998E-04  0.208E-02    0.85       1.0  T
   9   -100.2609261 -0.184654E-04  0.778E-03    0.85       1.5  T
  10   -100.2609313 -0.520836E-05  0.262E-03    0.85       4.5  T
  11   -100.2609320 -0.718952E-06  0.986E-04    0.85      12.0  T
  12   -100.2609321 -0.631577E-07  0.397E-04    0.85      29.7  T
     SCC iter.                  ...        0 min,  0.096 sec
     gradient                   ...        0 min,  0.069 sec
 * total energy  :  -101.5605141 Eh     change       -0.8133608E-01 Eh
   gradient norm :     0.3066223 Eh/α   predicted    -0.8196532E-01 (   0.77%)
   displ. norm   :     0.6293051 α      lambda       -0.6765856E-01
   maximum displ.:     0.1902513 α      in ANC's #24, #42, #41, ...

........................................................................
.............................. CYCLE   13 ..............................
........................................................................

 iter      E             dE          RMSdq      gap      omega  full diag
   1   -100.2943153 -0.100294E+03  0.490E-01    0.85       0.0  T
   2   -100.2506505  0.436648E-01  0.785E-01    0.82       1.0  T
   3   -100.3015540 -0.509035E-01  0.257E-01    0.76       1.0  T
   4   -100.2853250  0.162290E-01  0.366E-01    0.80       1.0  T
   5   -100.3040696 -0.187447E-01  0.899E-02    0.80       1.0  T
   6   -100.3048236 -0.753929E-03  0.285E-02    0.81       1.0  T
   7   -100.3049137 -0.901924E-04  0.114E-02    0.81       1.0  T
   8   -100.3049191 -0.532277E-05  0.700E-03    0.81       1.7  T
   9   -100.3049213 -0.218787E-05  0.289E-03    0.81       4.1  T
  10   -100.3049217 -0.487697E-06  0.948E-04    0.81      12.4  T
  11   -100.3049218 -0.109362E-07  0.603E-04    0.81      19.6  T
     SCC iter.                  ...        0 min,  0.089 sec
     gradient                   ...        0 min,  0.069 sec
 * total energy  :  -101.6161082 Eh     change       -0.5559411E-01 Eh
   gradient norm :     0.2131678 Eh/α   predicted    -0.4722662E-01 ( -15.05%)
   displ. norm   :     0.7855915 α      lambda       -0.7260077E-01
   maximum displ.:     0.2444991 α      in ANC's #41, #50, #120, ...

........................................................................
.............................. CYCLE   14 ..............................
........................................................................

 iter      E             dE          RMSdq      gap      omega  full diag
   1   -100.3464228 -0.100346E+03  0.504E-01    0.79       0.0  T
   2   -100.2867579  0.596650E-01  0.917E-01    0.60       1.0  T
   3   -100.3613666 -0.746087E-01  0.232E-01    0.67       1.0  T
   4   -100.3476326  0.137340E-01  0.355E-01    0.68       1.0  T
   5   -100.3629573 -0.153247E-01  0.112E-01    0.66       1.0  T
   6   -100.3639738 -0.101653E-02  0.277E-02    0.69       1.0  T
   7   -100.3640564 -0.826020E-04  0.127E-02    0.69       1.0  T
   8   -100.3640642 -0.774241E-05  0.754E-03    0.69       1.6  T
   9   -100.3640668 -0.258975E-05  0.320E-03    0.69       3.7  T
  10   -100.3640671 -0.305034E-06  0.136E-03    0.69       8.7  T
  11   -100.3640674 -0.283155E-06  0.467E-04    0.69      25.2  T
  12   -100.3640674 -0.744163E-08  0.170E-04    0.69      69.3  T
     SCC iter.                  ...        0 min,  0.096 sec
     gradient                   ...        0 min,  0.069 sec
 * total energy  :  -101.6709565 Eh     change       -0.5484836E-01 Eh
   gradient norm :     0.2535954 Eh/α   predicted    -0.5870334E-01 (   7.03%)
   displ. norm   :     0.7078427 α      lambda       -0.4791165E-01
   maximum displ.:     0.2130677 α      in ANC's #50, #24, #120, ...

........................................................................
.............................. CYCLE   15 ..............................
........................................................................

 iter      E             dE          RMSdq      gap      omega  full diag
   1   -100.4081538 -0.100408E+03  0.403E-01    0.64       0.0  T
   2   -100.3780252  0.301286E-01  0.613E-01    0.32       1.0  T
   3   -100.4111805 -0.331553E-01  0.221E-01    0.54       1.0  T
   4   -100.4022271  0.895342E-02  0.309E-01    0.55       1.0  T
   5   -100.4155152 -0.132881E-01  0.577E-02    0.51       1.0  T
   6   -100.4158630 -0.347819E-03  0.123E-02    0.52       1.0  T
   7   -100.4158695 -0.646365E-05  0.486E-03    0.52       2.4  T
   8   -100.4158690  0.448075E-06  0.347E-03    0.52       3.4  T
   9   -100.4158702 -0.113943E-05  0.835E-04    0.52      14.1  T
  10   -100.4158702 -0.319067E-07  0.401E-04    0.52      29.4  T
  11   -100.4158702 -0.712870E-08  0.198E-04    0.52      59.5  T
     SCC iter.                  ...        0 min,  0.088 sec
     gradient                   ...        0 min,  0.069 sec
 * total energy  :  -101.6977798 Eh     change       -0.2682323E-01 Eh
   gradient norm :     0.1567338 Eh/α   predicted    -0.3595865E-01 (  34.06%)
   displ. norm   :     0.6597907 α      lambda       -0.3990154E-01
   maximum displ.:     0.2491856 α      in ANC's #24, #41, #21, ...

........................................................................
.............................. CYCLE   16 ..............................
........................................................................

 iter      E             dE          RMSdq      gap      omega  full diag
   1   -100.4429078 -0.100443E+03  0.284E-01    0.50       0.0  T
   2   -100.4337823  0.912544E-02  0.311E-01    0.33       1.0  T
   3   -100.4353428 -0.156051E-02  0.270E-01    0.47       1.0  T
   4   -100.4418332 -0.649032E-02  0.163E-01    0.48       1.0  T
   5   -100.4447127 -0.287956E-02  0.334E-02    0.42       1.0  T
   6   -100.4447881 -0.753859E-04  0.112E-02    0.43       1.0  T
   7   -100.4447974 -0.931933E-05  0.598E-03    0.43       2.0  T
   8   -100.4447995 -0.207906E-05  0.272E-03    0.43       4.3  T
   9   -100.4447997 -0.250294E-06  0.794E-04    0.43      14.9  T
  10   -100.4447998 -0.509256E-07  0.251E-04    0.43      47.0  T
     SCC iter.                  ...        0 min,  0.081 sec
     gradient                   ...        0 min,  0.074 sec
 * total energy  :  -101.7319136 Eh     change       -0.3413385E-01 Eh
   gradient norm :     0.1864382 Eh/α   predicted    -0.2863594E-01 ( -16.11%)
   displ. norm   :     0.7931747 α      lambda       -0.5327586E-01
   maximum displ.:     0.3443859 α      in ANC's #37, #24, #21, ...

........................................................................
.............................. CYCLE   17 ..............................
........................................................................

 iter      E             dE          RMSdq      gap      omega  full diag
   1   -100.5174332 -0.100517E+03  0.292E-01    0.37       0.0  T
   2   -100.5149998  0.243342E-02  0.231E-01    0.33       1.0  T
   3   -100.5062388  0.876100E-02  0.300E-01    0.35       1.0  T
   4   -100.5128540 -0.661520E-02  0.206E-01    0.41       1.0  T
   5   -100.5183296 -0.547556E-02  0.354E-02    0.34       1.0  T
   6   -100.5183782 -0.486328E-04  0.176E-02    0.35       1.0  T
   7   -100.5183987 -0.204425E-04  0.930E-03    0.35       1.3  T
   8   -100.5184047 -0.608047E-05  0.272E-03    0.35       4.3  T
   9   -100.5184053 -0.516835E-06  0.130E-03    0.35       9.0  T
  10   -100.5184052  0.906025E-07  0.114E-03    0.35      10.3  T
  11   -100.5184053 -0.179648E-06  0.232E-04    0.35      50.8  T
  12   -100.5184053 -0.211905E-08  0.118E-04    0.35     100.2  T
     SCC iter.                  ...        0 min,  0.096 sec
     gradient                   ...        0 min,  0.069 sec
 * total energy  :  -101.7810444 Eh     change       -0.4913080E-01 Eh
   gradient norm :     0.3479792 Eh/α   predicted    -0.4339674E-01 ( -11.67%)
   displ. norm   :     0.8091255 α      lambda       -0.7189306E-01
   maximum displ.:     0.2786128 α      in ANC's #37, #160, #127, ...

........................................................................
.............................. CYCLE   18 ..............................
........................................................................

 iter      E             dE          RMSdq      gap      omega  full diag
   1   -100.5766946 -0.100577E+03  0.526E-01    0.79       0.0  T
   2   -100.4637191  0.112975E+00  0.959E-01    0.15       1.0  T
   3   -100.5763670 -0.112648E+00  0.354E-01    0.75       1.0  T
   4   -100.5809263 -0.455929E-02  0.284E-01    0.74       1.0  T
   5   -100.5864758 -0.554954E-02  0.646E-02    0.75       1.0  T
   6   -100.5869694 -0.493526E-03  0.180E-02    0.74       1.0  T
   7   -100.5869773 -0.797414E-05  0.104E-02    0.74       1.1  T
   8   -100.5869811 -0.375795E-05  0.507E-03    0.74       2.3  T
   9   -100.5869832 -0.211133E-05  0.207E-03    0.75       5.7  T
  10   -100.5869835 -0.278538E-06  0.757E-04    0.75      15.6  T
  11   -100.5869835 -0.526472E-08  0.430E-04    0.75      27.4  T
     SCC iter.                  ...        0 min,  0.088 sec
     gradient                   ...        0 min,  0.069 sec
 * total energy  :  -101.8316964 Eh     change       -0.5065199E-01 Eh
   gradient norm :     0.4693889 Eh/α   predicted    -0.5948033E-01 (  17.43%)
   displ. norm   :     0.4177627 α      lambda       -0.5122970E-01
   maximum displ.:     0.1748719 α      in ANC's #37, #24, #21, ...

........................................................................
.............................. CYCLE   19 ..............................
........................................................................

 iter      E             dE          RMSdq      gap      omega  full diag
   1   -100.5902274 -0.100590E+03  0.243E-01    0.91       0.0  T
   2   -100.5699757  0.202517E-01  0.433E-01    0.64       1.0  T
   3   -100.5908787 -0.209030E-01  0.162E-01    0.91       1.0  T
   4   -100.5909828 -0.104112E-03  0.143E-01    0.81       1.0  T
   5   -100.5927108 -0.172799E-02  0.434E-02    0.89       1.0  T
   6   -100.5929415 -0.230733E-03  0.170E-02    0.88       1.0  T
   7   -100.5929611 -0.195869E-04  0.814E-03    0.88       1.4  T
   8   -100.5929663 -0.525225E-05  0.346E-03    0.88       3.4  T
   9   -100.5929670 -0.639270E-06  0.106E-03    0.88      11.2  T
  10   -100.5929670 -0.389503E-07  0.574E-04    0.88      20.5  T
  11   -100.5929670 -0.212699E-07  0.190E-04    0.88      62.0  T
     SCC iter.                  ...        0 min,  0.089 sec
     gradient                   ...        0 min,  0.069 sec
 * total energy  :  -101.8665961 Eh     change       -0.3489966E-01 Eh
   gradient norm :     0.2532832 Eh/α   predicted    -0.3008532E-01 ( -13.79%)
   displ. norm   :     0.4824723 α      lambda       -0.3469050E-01
   maximum displ.:     0.2528765 α      in ANC's #37, #44, #45, ...

........................................................................
.............................. CYCLE   20 ..............................
........................................................................

 iter      E             dE          RMSdq      gap      omega  full diag
   1   -100.6090446 -0.100609E+03  0.309E-01    0.99       0.0  T
   2   -100.5779403  0.311044E-01  0.539E-01    0.63       1.0  T
   3   -100.6080287 -0.300884E-01  0.234E-01    0.98       1.0  T
   4   -100.6112160 -0.318734E-02  0.155E-01    0.84       1.0  T
   5   -100.6134176 -0.220163E-02  0.453E-02    0.94       1.0  T
   6   -100.6135811 -0.163499E-03  0.132E-02    0.93       1.0  T
   7   -100.6135929 -0.117568E-04  0.492E-03    0.93       2.4  T
   8   -100.6135926  0.307994E-06  0.392E-03    0.93       3.0  T
   9   -100.6135940 -0.144054E-05  0.106E-03    0.93      11.1  T
  10   -100.6135941 -0.399393E-07  0.448E-04    0.93      26.3  T
  11   -100.6135941 -0.817690E-08  0.220E-04    0.93      53.5  T
     SCC iter.                  ...        0 min,  0.089 sec
     gradient                   ...        0 min,  0.069 sec
 * total energy  :  -101.8887255 Eh     change       -0.2212945E-01 Eh
   gradient norm :     0.0944081 Eh/α   predicted    -0.2138286E-01 (  -3.37%)
   displ. norm   :     0.5297718 α      lambda       -0.2145378E-01
   maximum displ.:     0.1477581 α      in ANC's #73, #78, #45, ...
 * RMSD in coord.:     0.8595518 α      energy gain  -0.2351408E+01 Eh

generating ANC from model Hessian ...
Using Lindh-Hessian (1995)
 Shifting diagonal of input Hessian by    9.9493795676660109E-003
 Lowest  eigenvalues of input Hessian
    0.000000    0.000000    0.000000    0.000000    0.000000    0.000000
    0.010000    0.010069    0.010274    0.010296    0.010345    0.010583
    0.010870    0.010903    0.011069    0.011472    0.011604    0.012623
 Highest eigenvalues
    2.042094    2.123555    2.181637    2.228528    2.333801    2.710276


........................................................................
.............................. CYCLE   21 ..............................
........................................................................

 iter      E             dE          RMSdq      gap      omega  full diag
   1   -100.5978783 -0.100598E+03  0.533E-01    1.36       0.0  T
   2   -100.3561293  0.241749E+00  0.137E+00    0.12       1.0  T
   3   -100.6163906 -0.260261E+00  0.306E-01    1.22       1.0  T
   4   -100.6174607 -0.107011E-02  0.234E-01    0.98       1.0  T
   5   -100.6209705 -0.350976E-02  0.584E-02    1.15       1.0  T
   6   -100.6210409 -0.704045E-04  0.456E-02    1.08       1.0  T
   7   -100.6213300 -0.289077E-03  0.153E-02    1.12       1.0  T
   8   -100.6213428 -0.128676E-04  0.785E-03    1.12       1.5  T
   9   -100.6213448 -0.193874E-05  0.255E-03    1.12       4.6  T
  10   -100.6213452 -0.451057E-06  0.111E-03    1.12      10.6  T
  11   -100.6213453 -0.895082E-07  0.421E-04    1.12      28.0  T
  12   -100.6213453 -0.402194E-08  0.147E-04    1.12      80.4  T
     SCC iter.                  ...        0 min,  0.096 sec
     gradient                   ...        0 min,  0.069 sec
 * total energy  :  -101.8920728 Eh     change       -0.3347250E-02 Eh
   gradient norm :     0.1115486 Eh/α   predicted     0.0000000E+00 (-100.00%)
   displ. norm   :     0.3500058 α      lambda       -0.2094288E-01
   maximum displ.:     0.0981232 α      in ANC's #48, #92, #56, ...

........................................................................
.............................. CYCLE   22 ..............................
........................................................................

 iter      E             dE          RMSdq      gap      omega  full diag
   1   -100.6211952 -0.100621E+03  0.313E-01    1.03       0.0  T
   2   -100.6078250  0.133701E-01  0.332E-01    0.75       1.0  T
   3   -100.6048882  0.293679E-02  0.387E-01    1.09       1.0  T
   4   -100.6221409 -0.172527E-01  0.458E-02    1.01       1.0  T
   5   -100.6222647 -0.123817E-03  0.212E-02    1.01       1.0  T
   6   -100.6223066 -0.418510E-04  0.982E-03    1.00       1.2  T
   7   -100.6223145 -0.788771E-05  0.368E-03    1.00       3.2  T
   8   -100.6223145  0.898712E-08  0.196E-03    1.00       6.0  T
   9   -100.6223147 -0.244432E-06  0.957E-04    1.00      12.3  T
  10   -100.6223148 -0.701049E-07  0.443E-04    1.00      26.6  T
     SCC iter.                  ...        0 min,  0.081 sec
     gradient                   ...        0 min,  0.069 sec
 * total energy  :  -101.9075981 Eh     change       -0.1552529E-01 Eh
   gradient norm :     0.0690164 Eh/α   predicted    -0.1178055E-01 ( -24.12%)
   displ. norm   :     0.4303713 α      lambda       -0.1324451E-01
   maximum displ.:     0.1743058 α      in ANC's #48, #9, #56, ...

........................................................................
.............................. CYCLE   23 ..............................
........................................................................

 iter      E             dE          RMSdq      gap      omega  full diag
   1   -100.6227884 -0.100623E+03  0.359E-01    0.90       0.0  T
   2   -100.6001558  0.226325E-01  0.422E-01    0.61       1.0  T
   3   -100.6047001 -0.454424E-02  0.412E-01    0.97       1.0  T
   4   -100.6237401 -0.190400E-01  0.877E-02    0.90       1.0  T
   5   -100.6243441 -0.603969E-03  0.370E-02    0.85       1.0  T
   6   -100.6244862 -0.142104E-03  0.166E-02    0.86       1.0  T
   7   -100.6245157 -0.295362E-04  0.731E-03    0.85       1.6  T
   8   -100.6245188 -0.312204E-05  0.307E-03    0.85       3.8  T
   9   -100.6245196 -0.746475E-06  0.750E-04    0.85      15.7  T
  10   -100.6245196 -0.356130E-07  0.337E-04    0.85      35.0  T
     SCC iter.                  ...        0 min,  0.081 sec
     gradient                   ...        0 min,  0.069 sec
 * total energy  :  -101.9168351 Eh     change       -0.9237025E-02 Eh
   gradient norm :     0.0561998 Eh/α   predicted    -0.7854646E-02 ( -14.97%)
   displ. norm   :     0.4540597 α      lambda       -0.7573668E-02
   maximum displ.:     0.1983044 α      in ANC's #48, #9, #39, ...

........................................................................
.............................. CYCLE   24 ..............................
........................................................................

 iter      E             dE          RMSdq      gap      omega  full diag
   1   -100.6270636 -0.100627E+03  0.272E-01    0.88       0.0  T
   2   -100.6199430  0.712060E-02  0.260E-01    0.73       1.0  T
   3   -100.6135013  0.644178E-02  0.338E-01    0.96       1.0  T
   4   -100.6262424 -0.127412E-01  0.111E-01    0.90       1.0  T
   5   -100.6277035 -0.146114E-02  0.186E-02    0.84       1.0  T
   6   -100.6277256 -0.220559E-04  0.104E-02    0.84       1.1  T
   7   -100.6277377 -0.120893E-04  0.456E-03    0.84       2.6  T
   8   -100.6277390 -0.134092E-05  0.154E-03    0.84       7.7  T
   9   -100.6277391 -0.610296E-07  0.694E-04    0.84      17.0  T
  10   -100.6277391 -0.404254E-07  0.201E-04    0.84      58.5  T
     SCC iter.                  ...        0 min,  0.081 sec
     gradient                   ...        0 min,  0.070 sec
 * total energy  :  -101.9208492 Eh     change       -0.4014117E-02 Eh
   gradient norm :     0.1032290 Eh/α   predicted    -0.4567707E-02 (  13.79%)
   displ. norm   :     0.4143385 α      lambda       -0.6325811E-02
   maximum displ.:     0.1680211 α      in ANC's #9, #48, #5, ...

........................................................................
.............................. CYCLE   25 ..............................
........................................................................

 iter      E             dE          RMSdq      gap      omega  full diag
   1   -100.6346851 -0.100635E+03  0.161E-01    0.88       0.0  T
   2   -100.6343963  0.288811E-03  0.104E-01    0.82       1.0  T
   3   -100.6311171  0.327922E-02  0.176E-01    0.97       1.0  T
   4   -100.6332161 -0.209906E-02  0.985E-02    0.86       1.0  T
   5   -100.6347726 -0.155648E-02  0.915E-03    0.86       1.3  T
   6   -100.6347796 -0.703782E-05  0.332E-03    0.86       3.5  T
   7   -100.6347800 -0.401757E-06  0.198E-03    0.86       6.0  T
   8   -100.6347802 -0.198098E-06  0.848E-04    0.86      13.9  T
   9   -100.6347803 -0.106146E-06  0.327E-04    0.86      36.0  T
     SCC iter.                  ...        0 min,  0.073 sec
     gradient                   ...        0 min,  0.069 sec
 * total energy  :  -101.9252929 Eh     change       -0.4443751E-02 Eh
   gradient norm :     0.0391429 Eh/α   predicted    -0.3705907E-02 ( -16.60%)
   displ. norm   :     0.4627146 α      lambda       -0.5041332E-02
   maximum displ.:     0.1987749 α      in ANC's #9, #48, #5, ...

........................................................................
.............................. CYCLE   26 ..............................
........................................................................

 iter      E             dE          RMSdq      gap      omega  full diag
   1   -100.6461375 -0.100646E+03  0.109E-01    0.87       0.0  T
   2   -100.6440686  0.206893E-02  0.140E-01    0.88       1.0  T
   3   -100.6456962 -0.162762E-02  0.843E-02    0.84       1.0  T
   4   -100.6460161 -0.319854E-03  0.566E-02    0.90       1.0  T
   5   -100.6463516 -0.335526E-03  0.150E-02    0.86       1.0  T
   6   -100.6463828 -0.312218E-04  0.347E-03    0.87       3.4  T
   7   -100.6463831 -0.320274E-06  0.242E-03    0.87       4.9  T
   8   -100.6463836 -0.487806E-06  0.639E-04    0.87      18.4  T
   9   -100.6463836 -0.705046E-08  0.312E-04    0.86      37.8  T
     SCC iter.                  ...        0 min,  0.073 sec
     gradient                   ...        0 min,  0.069 sec
 * total energy  :  -101.9296062 Eh     change       -0.4313244E-02 Eh
   gradient norm :     0.0344006 Eh/α   predicted    -0.3060396E-02 ( -29.05%)
   displ. norm   :     0.6146661 α      lambda       -0.6711537E-02
   maximum displ.:     0.2417715 α      in ANC's #9, #48, #5, ...

........................................................................
.............................. CYCLE   27 ..............................
........................................................................

 iter      E             dE          RMSdq      gap      omega  full diag
   1   -100.6576371 -0.100658E+03  0.138E-01    0.86       0.0  T
   2   -100.6530493  0.458779E-02  0.199E-01    0.90       1.0  T
   3   -100.6572937 -0.424444E-02  0.101E-01    0.84       1.0  T
   4   -100.6577556 -0.461907E-03  0.537E-02    0.89       1.0  T
   5   -100.6580766 -0.320920E-03  0.214E-02    0.85       1.0  T
   6   -100.6581260 -0.494519E-04  0.524E-03    0.87       2.2  T
   7   -100.6581274 -0.134480E-05  0.321E-03    0.87       3.7  T
   8   -100.6581281 -0.780770E-06  0.138E-03    0.87       8.5  T
   9   -100.6581283 -0.117272E-06  0.261E-04    0.87      45.2  T
  10   -100.6581283 -0.561172E-09  0.151E-04    0.87      77.8  T
     SCC iter.                  ...        0 min,  0.081 sec
     gradient                   ...        0 min,  0.069 sec
 * total energy  :  -101.9347531 Eh     change       -0.5146947E-02 Eh
   gradient norm :     0.0561694 Eh/α   predicted    -0.4623632E-02 ( -10.17%)
   displ. norm   :     0.5336528 α      lambda       -0.4561103E-02
   maximum displ.:     0.1969671 α      in ANC's #9, #48, #5, ...

........................................................................
.............................. CYCLE   28 ..............................
........................................................................

 iter      E             dE          RMSdq      gap      omega  full diag
   1   -100.6637892 -0.100664E+03  0.136E-01    0.82       0.0  T
   2   -100.6591981  0.459109E-02  0.196E-01    0.90       1.0  T
   3   -100.6630280 -0.382990E-02  0.110E-01    0.81       1.0  T
   4   -100.6641600 -0.113193E-02  0.279E-02    0.83       1.0  T
   5   -100.6642220 -0.619842E-04  0.801E-03    0.85       1.5  T
   6   -100.6642243 -0.230502E-05  0.534E-03    0.84       2.2  T
   7   -100.6642268 -0.256831E-05  0.277E-03    0.84       4.3  T
   8   -100.6642275 -0.649375E-06  0.113E-03    0.84      10.4  T
   9   -100.6642276 -0.660522E-07  0.230E-04    0.84      51.1  T
  10   -100.6642276  0.147008E-08  0.187E-04    0.84      63.0  T
     SCC iter.                  ...        0 min,  0.080 sec
     gradient                   ...        0 min,  0.069 sec
 * total energy  :  -101.9382046 Eh     change       -0.3451502E-02 Eh
   gradient norm :     0.0691112 Eh/α   predicted    -0.2930085E-02 ( -15.11%)
   displ. norm   :     0.5081809 α      lambda       -0.3874260E-02
   maximum displ.:     0.1799809 α      in ANC's #9, #5, #48, ...

........................................................................
.............................. CYCLE   29 ..............................
........................................................................

 iter      E             dE          RMSdq      gap      omega  full diag
   1   -100.6617819 -0.100662E+03  0.106E-01    0.85       0.0  T
   2   -100.6617817  0.252949E-06  0.628E-02    0.86       1.0  T
   3   -100.6615328  0.248821E-03  0.514E-02    0.83       1.0  T
   4   -100.6617650 -0.232214E-03  0.165E-02    0.87       1.0  T
   5   -100.6617798 -0.147193E-04  0.113E-02    0.85       1.0  T
   6   -100.6617978 -0.180493E-04  0.405E-03    0.86       2.9  T
   7   -100.6617993 -0.148693E-05  0.137E-03    0.86       8.6  T
   8   -100.6617994 -0.946694E-07  0.575E-04    0.86      20.5  T
   9   -100.6617994 -0.127121E-07  0.227E-04    0.86      51.9  T
     SCC iter.                  ...        0 min,  0.073 sec
     gradient                   ...        0 min,  0.069 sec
 * total energy  :  -101.9413574 Eh     change       -0.3152748E-02 Eh
   gradient norm :     0.0571925 Eh/α   predicted    -0.2437410E-02 ( -22.69%)
   displ. norm   :     0.5196745 α      lambda       -0.4117035E-02
   maximum displ.:     0.1729607 α      in ANC's #5, #9, #11, ...

........................................................................
.............................. CYCLE   30 ..............................
........................................................................

 iter      E             dE          RMSdq      gap      omega  full diag
   1   -100.6630313 -0.100663E+03  0.136E-01    0.89       0.0  T
   2   -100.6623287  0.702518E-03  0.107E-01    0.86       1.0  T
   3   -100.6573606  0.496811E-02  0.201E-01    0.95       1.0  T
   4   -100.6630403 -0.567971E-02  0.232E-02    0.89       1.0  T
   5   -100.6630943 -0.539765E-04  0.610E-03    0.89       1.9  T
   6   -100.6630974 -0.311869E-05  0.304E-03    0.88       3.9  T
   7   -100.6630978 -0.379333E-06  0.187E-03    0.89       6.3  T
   8   -100.6630981 -0.256519E-06  0.457E-04    0.89      25.8  T
   9   -100.6630981 -0.844828E-08  0.187E-04    0.89      62.9  T
     SCC iter.                  ...        0 min,  0.073 sec
     gradient                   ...        0 min,  0.069 sec
 * total energy  :  -101.9443795 Eh     change       -0.3022142E-02 Eh
   gradient norm :     0.0223549 Eh/α   predicted    -0.2614450E-02 ( -13.49%)
   displ. norm   :     0.7482628 α      lambda       -0.4218772E-02
   maximum displ.:     0.2614328 α      in ANC's #48, #5, #9, ...

........................................................................
.............................. CYCLE   31 ..............................
........................................................................

 iter      E             dE          RMSdq      gap      omega  full diag
   1   -100.6521703 -0.100652E+03  0.166E-01    0.95       0.0  T
   2   -100.6479250  0.424529E-02  0.195E-01    0.81       1.0  T
   3   -100.6491048 -0.117977E-02  0.174E-01    0.98       1.0  T
   4   -100.6524175 -0.331273E-02  0.295E-02    0.94       1.0  T
   5   -100.6525357 -0.118250E-03  0.944E-03    0.94       1.2  T
   6   -100.6525424 -0.668201E-05  0.502E-03    0.93       2.3  T
   7   -100.6525442 -0.182455E-05  0.189E-03    0.93       6.2  T
   8   -100.6525442  0.239613E-07  0.114E-03    0.93      10.3  T
   9   -100.6525444 -0.155878E-06  0.387E-04    0.93      30.4  T
  10   -100.6525444 -0.563766E-08  0.155E-04    0.93      76.2  T
     SCC iter.                  ...        0 min,  0.081 sec
     gradient                   ...        0 min,  0.069 sec
 * total energy  :  -101.9437260 Eh     change        0.6535510E-03 Eh
   gradient norm :     0.1593550 Eh/α   predicted    -0.3290429E-02 (-603.47%)
   displ. norm   :     0.1710875 α      lambda       -0.6838838E-02
   maximum displ.:     0.0703584 α      in ANC's #48, #39, #5, ...

........................................................................
.............................. CYCLE   32 ..............................
........................................................................

 iter      E             dE          RMSdq      gap      omega  full diag
   1   -100.6611534 -0.100661E+03  0.670E-02    0.97       0.0  T
   2   -100.6609802  0.173160E-03  0.588E-02    0.92       1.0  T
   3   -100.6607508  0.229407E-03  0.615E-02    0.98       1.0  T
   4   -100.6607653 -0.144421E-04  0.574E-02    0.93       1.0  T
   5   -100.6612078 -0.442508E-03  0.103E-02    0.95       1.1  T
   6   -100.6612167 -0.893803E-05  0.370E-03    0.95       3.2  T
   7   -100.6612173 -0.544117E-06  0.145E-03    0.95       8.1  T
   8   -100.6612173 -0.316456E-07  0.628E-04    0.95      18.8  T
   9   -100.6612173 -0.235865E-07  0.238E-04    0.95      49.5  T
     SCC iter.                  ...        0 min,  0.072 sec
     gradient                   ...        0 min,  0.069 sec
 * total energy  :  -101.9473165 Eh     change       -0.3590564E-02 Eh
   gradient norm :     0.0152573 Eh/α   predicted    -0.3519516E-02 (  -1.98%)
   displ. norm   :     0.3268763 α      lambda       -0.1417259E-02
   maximum displ.:     0.1506475 α      in ANC's #5, #11, #7, ...

........................................................................
.............................. CYCLE   33 ..............................
........................................................................

 iter      E             dE          RMSdq      gap      omega  full diag
   1   -100.6703609 -0.100670E+03  0.755E-02    0.96       0.0  T
   2   -100.6702687  0.922302E-04  0.538E-02    0.96       1.0  T
   3   -100.6690807  0.118795E-02  0.973E-02    0.90       1.0  T
   4   -100.6701234 -0.104265E-02  0.457E-02    0.99       1.0  T
   5   -100.6703831 -0.259673E-03  0.530E-03    0.96       2.2  T
   6   -100.6703870 -0.397511E-05  0.257E-03    0.96       4.6  T
   7   -100.6703877 -0.617708E-06  0.116E-03    0.96      10.2  T
   8   -100.6703877 -0.919232E-07  0.370E-04    0.96      31.8  T
   9   -100.6703877 -0.426633E-08  0.127E-04    0.96      92.6  T
     SCC iter.                  ...        0 min,  0.073 sec
     gradient                   ...        0 min,  0.069 sec
 * total energy  :  -101.9483889 Eh     change       -0.1072324E-02 Eh
   gradient norm :     0.0153121 Eh/α   predicted    -0.7843801E-03 ( -26.85%)
   displ. norm   :     0.6505766 α      lambda       -0.2119352E-02
   maximum displ.:     0.3361341 α      in ANC's #5, #11, #48, ...

........................................................................
.............................. CYCLE   34 ..............................
........................................................................

 iter      E             dE          RMSdq      gap      omega  full diag
   1   -100.6713126 -0.100671E+03  0.121E-01    0.98       0.0  T
   2   -100.6712863  0.262725E-04  0.748E-02    0.97       1.0  T
   3   -100.6700958  0.119053E-02  0.979E-02    0.92       1.0  T
   4   -100.6711040 -0.100826E-02  0.418E-02    1.00       1.0  T
   5   -100.6713234 -0.219391E-03  0.890E-03    0.97       1.3  T
   6   -100.6713350 -0.115852E-04  0.304E-03    0.97       3.9  T
   7   -100.6713358 -0.825483E-06  0.128E-03    0.97       9.2  T
   8   -100.6713359 -0.411790E-07  0.493E-04    0.97      23.9  T
   9   -100.6713359 -0.207259E-07  0.162E-04    0.97      73.0  T
     SCC iter.                  ...        0 min,  0.073 sec
     gradient                   ...        0 min,  0.069 sec
 * total energy  :  -101.9497193 Eh     change       -0.1330392E-02 Eh
   gradient norm :     0.0516086 Eh/α   predicted    -0.1508184E-02 (  13.36%)
   displ. norm   :     0.4049380 α      lambda       -0.1342247E-02
   maximum displ.:     0.2502400 α      in ANC's #5, #11, #48, ...

........................................................................
.............................. CYCLE   35 ..............................
........................................................................

 iter      E             dE          RMSdq      gap      omega  full diag
   1   -100.6727805 -0.100673E+03  0.827E-02    0.97       0.0  T
   2   -100.6727838 -0.332583E-05  0.493E-02    0.97       1.0  T
   3   -100.6726042  0.179642E-03  0.350E-02    0.95       1.0  T
   4   -100.6727617 -0.157463E-03  0.140E-02    0.98       1.0  T
   5   -100.6727865 -0.248617E-04  0.320E-03    0.97       3.7  T
   6   -100.6727871 -0.557300E-06  0.147E-03    0.97       8.0  T
   7   -100.6727870  0.370968E-07  0.110E-03    0.97      10.7  T
   8   -100.6727871 -0.765832E-07  0.606E-04    0.97      19.4  T
   9   -100.6727872 -0.331103E-07  0.164E-04    0.97      72.0  T
     SCC iter.                  ...        0 min,  0.073 sec
     gradient                   ...        0 min,  0.069 sec
 * total energy  :  -101.9505873 Eh     change       -0.8680717E-03 Eh
   gradient norm :     0.0445885 Eh/α   predicted    -0.7811734E-03 ( -10.01%)
   displ. norm   :     0.3776290 α      lambda       -0.1679728E-02
   maximum displ.:     0.2334395 α      in ANC's #5, #8, #48, ...

........................................................................
.............................. CYCLE   36 ..............................
........................................................................

 iter      E             dE          RMSdq      gap      omega  full diag
   1   -100.6781399 -0.100678E+03  0.804E-02    0.94       0.0  T
   2   -100.6779689  0.171049E-03  0.642E-02    0.98       1.0  T
   3   -100.6769806  0.988281E-03  0.943E-02    0.89       1.0  T
   4   -100.6778114 -0.830736E-03  0.533E-02    0.95       1.0  T
   5   -100.6781800 -0.368624E-03  0.630E-03    0.96       1.9  T
   6   -100.6781836 -0.358062E-05  0.243E-03    0.96       4.9  T
   7   -100.6781837 -0.141577E-06  0.139E-03    0.96       8.5  T
   8   -100.6781839 -0.189511E-06  0.603E-04    0.96      19.5  T
   9   -100.6781839 -0.139728E-07  0.166E-04    0.96      70.9  T
     SCC iter.                  ...        0 min,  0.073 sec
     gradient                   ...        0 min,  0.069 sec
 * total energy  :  -101.9513620 Eh     change       -0.7747047E-03 Eh
   gradient norm :     0.0259136 Eh/α   predicted    -0.9596372E-03 (  23.87%)
   displ. norm   :     0.5225086 α      lambda       -0.1150066E-02
   maximum displ.:     0.3301440 α      in ANC's #5, #11, #48, ...

........................................................................
.............................. CYCLE   37 ..............................
........................................................................

 iter      E             dE          RMSdq      gap      omega  full diag
   1   -100.6744874 -0.100674E+03  0.887E-02    0.94       0.0  T
   2   -100.6743561  0.131236E-03  0.624E-02    0.97       1.0  T
   3   -100.6722693  0.208682E-02  0.128E-01    0.85       1.0  T
   4   -100.6743537 -0.208441E-02  0.366E-02    0.95       1.0  T
   5   -100.6745109 -0.157213E-03  0.823E-03    0.95       1.4  T
   6   -100.6745180 -0.701372E-05  0.263E-03    0.95       4.5  T
   7   -100.6745183 -0.391042E-06  0.112E-03    0.95      10.5  T
   8   -100.6745184 -0.390209E-07  0.515E-04    0.95      22.9  T
   9   -100.6745184 -0.240126E-07  0.141E-04    0.95      83.4  T
     SCC iter.                  ...        0 min,  0.072 sec
     gradient                   ...        0 min,  0.069 sec
 * total energy  :  -101.9519297 Eh     change       -0.5676757E-03 Eh
   gradient norm :     0.0346895 Eh/α   predicted    -0.7320294E-03 (  28.95%)
   displ. norm   :     0.1876816 α      lambda       -0.6142231E-03
   maximum displ.:     0.1488191 α      in ANC's #5, #8, #11, ...

........................................................................
.............................. CYCLE   38 ..............................
........................................................................

 iter      E             dE          RMSdq      gap      omega  full diag
   1   -100.6739538 -0.100674E+03  0.396E-02    0.95       0.0  T
   2   -100.6738860  0.678173E-04  0.327E-02    0.96       1.0  T
   3   -100.6735396  0.346331E-03  0.562E-02    0.91       1.0  T
   4   -100.6739530 -0.413395E-03  0.113E-02    0.95       1.0  T
   5   -100.6739628 -0.980740E-05  0.250E-03    0.95       4.7  T
   6   -100.6739633 -0.465099E-06  0.130E-03    0.95       9.1  T
   7   -100.6739634 -0.110101E-06  0.678E-04    0.95      17.4  T
   8   -100.6739634 -0.204046E-07  0.289E-04    0.95      40.8  T
     SCC iter.                  ...        0 min,  0.064 sec
     gradient                   ...        0 min,  0.069 sec
 * total energy  :  -101.9522566 Eh     change       -0.3268459E-03 Eh
   gradient norm :     0.0151093 Eh/α   predicted    -0.3179350E-03 (  -2.73%)
   displ. norm   :     0.3210569 α      lambda       -0.5545580E-03
   maximum displ.:     0.2186799 α      in ANC's #5, #8, #48, ...

........................................................................
.............................. CYCLE   39 ..............................
........................................................................

 iter      E             dE          RMSdq      gap      omega  full diag
   1   -100.6753535 -0.100675E+03  0.519E-02    0.94       0.0  T
   2   -100.6752681  0.854612E-04  0.415E-02    0.94       1.0  T
   3   -100.6747736  0.494440E-03  0.672E-02    0.96       1.0  T
   4   -100.6752840 -0.510354E-03  0.264E-02    0.93       1.0  T
   5   -100.6753686 -0.846009E-04  0.455E-03    0.95       2.6  T
   6   -100.6753706 -0.196533E-05  0.178E-03    0.95       6.6  T
   7   -100.6753708 -0.186878E-06  0.691E-04    0.95      17.0  T
   8   -100.6753708 -0.129348E-07  0.377E-04    0.95      31.3  T
     SCC iter.                  ...        0 min,  0.064 sec
     gradient                   ...        0 min,  0.069 sec
 * total energy  :  -101.9525488 Eh     change       -0.2922626E-03 Eh
   gradient norm :     0.0160647 Eh/α   predicted    -0.3058646E-03 (   4.65%)
   displ. norm   :     0.3567282 α      lambda       -0.5370772E-03
   maximum displ.:     0.2668439 α      in ANC's #5, #8, #24, ...

........................................................................
.............................. CYCLE   40 ..............................
........................................................................

 iter      E             dE          RMSdq      gap      omega  full diag
   1   -100.6763568 -0.100676E+03  0.557E-02    0.95       0.0  T
   2   -100.6762701  0.866473E-04  0.422E-02    0.94       1.0  T
   3   -100.6755074  0.762737E-03  0.800E-02    0.96       1.0  T
   4   -100.6763144 -0.806972E-03  0.215E-02    0.93       1.0  T
   5   -100.6763683 -0.539403E-04  0.365E-03    0.95       3.2  T
   6   -100.6763698 -0.151830E-05  0.832E-04    0.95      14.2  T
   7   -100.6763698 -0.108703E-07  0.569E-04    0.95      20.7  T
   8   -100.6763699 -0.116953E-07  0.223E-04    0.95      52.9  T
     SCC iter.                  ...        0 min,  0.064 sec
     gradient                   ...        0 min,  0.069 sec
 * total energy  :  -101.9528151 Eh     change       -0.2662575E-03 Eh
   gradient norm :     0.0121486 Eh/α   predicted    -0.3027145E-03 (  13.69%)
   displ. norm   :     0.3579662 α      lambda       -0.3281485E-03
   maximum displ.:     0.2583765 α      in ANC's #5, #8, #48, ...

........................................................................
.............................. CYCLE   41 ..............................
........................................................................

 iter      E             dE          RMSdq      gap      omega  full diag
   1   -100.6759555 -0.100676E+03  0.485E-02    0.95       0.0  T
   2   -100.6759243  0.311925E-04  0.327E-02    0.94       1.0  T
   3   -100.6753308  0.593485E-03  0.685E-02    0.98       1.0  T
   4   -100.6759223 -0.591430E-03  0.183E-02    0.95       1.0  T
   5   -100.6759623 -0.400558E-04  0.368E-03    0.95       3.2  T
   6   -100.6759635 -0.115585E-05  0.165E-03    0.95       7.1  T
   7   -100.6759637 -0.256599E-06  0.426E-04    0.95      27.6  T
   8   -100.6759637  0.305565E-08  0.249E-04    0.95      47.3  T
     SCC iter.                  ...        0 min,  0.065 sec
     gradient                   ...        0 min,  0.069 sec
 * total energy  :  -101.9529967 Eh     change       -0.1816159E-03 Eh
   gradient norm :     0.0154009 Eh/α   predicted    -0.1851006E-03 (   1.92%)
   displ. norm   :     0.2145690 α      lambda       -0.3086150E-03
   maximum displ.:     0.1270646 α      in ANC's #5, #9, #8, ...

........................................................................
.............................. CYCLE   42 ..............................
........................................................................

 iter      E             dE          RMSdq      gap      omega  full diag
   1   -100.6785076 -0.100679E+03  0.361E-02    0.97       0.0  T
   2   -100.6783463  0.161320E-03  0.433E-02    0.94       1.0  T
   3   -100.6784313 -0.850105E-04  0.314E-02    0.97       1.0  T
   4   -100.6784322 -0.890051E-06  0.290E-02    0.95       1.0  T
   5   -100.6785381 -0.105921E-03  0.379E-03    0.96       3.1  T
   6   -100.6785395 -0.134766E-05  0.117E-03    0.96      10.1  T
   7   -100.6785396 -0.143617E-06  0.408E-04    0.96      28.9  T
   8   -100.6785396 -0.157468E-08  0.222E-04    0.96      53.2  T
     SCC iter.                  ...        0 min,  0.064 sec
     gradient                   ...        0 min,  0.075 sec
 * total energy  :  -101.9531745 Eh     change       -0.1778503E-03 Eh
   gradient norm :     0.0096100 Eh/α   predicted    -0.1614148E-03 (  -9.24%)
   displ. norm   :     0.3682186 α      lambda       -0.2901814E-03
   maximum displ.:     0.2577383 α      in ANC's #5, #8, #1, ...
 * RMSD in coord.:     0.8495641 α      energy gain  -0.6444903E-01 Eh

generating ANC from model Hessian ...
Using Lindh-Hessian (1995)
 Shifting diagonal of input Hessian by    9.9482392562215780E-003
 Lowest  eigenvalues of input Hessian
    0.000000    0.000000    0.000000    0.000000    0.000000    0.000000
    0.010000    0.010079    0.010176    0.010290    0.010317    0.010564
    0.010792    0.010911    0.010992    0.011479    0.011770    0.012600
 Highest eigenvalues
    2.042798    2.105461    2.159919    2.181141    2.349752    2.454943


........................................................................
.............................. CYCLE   43 ..............................
........................................................................

 iter      E             dE          RMSdq      gap      omega  full diag
   1   -100.6777665 -0.100678E+03  0.476E-02    0.97       0.0  T
   2   -100.6776335  0.132919E-03  0.432E-02    0.94       1.0  T
   3   -100.6773531  0.280486E-03  0.576E-02    0.99       1.0  T
   4   -100.6777388 -0.385735E-03  0.189E-02    0.97       1.0  T
   5   -100.6777806 -0.417746E-04  0.298E-03    0.96       4.0  T
   6   -100.6777813 -0.779087E-06  0.109E-03    0.96      10.8  T
   7   -100.6777814 -0.934607E-07  0.432E-04    0.96      27.3  T
   8   -100.6777814 -0.612690E-08  0.230E-04    0.96      51.2  T
     SCC iter.                  ...        0 min,  0.065 sec
     gradient                   ...        0 min,  0.069 sec
 * total energy  :  -101.9533917 Eh     change       -0.2171896E-03 Eh
   gradient norm :     0.0063796 Eh/α   predicted     0.0000000E+00 (-100.00%)
   displ. norm   :     0.0664864 α      lambda       -0.9322990E-04
   maximum displ.:     0.0321842 α      in ANC's #9, #5, #2, ...

........................................................................
.............................. CYCLE   44 ..............................
........................................................................

 iter      E             dE          RMSdq      gap      omega  full diag
   1   -100.6772187 -0.100677E+03  0.136E-02    0.96       0.0  T
   2   -100.6772152  0.343334E-05  0.101E-02    0.96       1.2  T
   3   -100.6772019  0.132962E-04  0.126E-02    0.95       1.0  T
   4   -100.6772021 -0.184080E-06  0.114E-02    0.96       1.0  T
   5   -100.6772201 -0.179555E-04  0.152E-03    0.96       7.8  T
   6   -100.6772203 -0.216597E-06  0.354E-04    0.96      33.3  T
   7   -100.6772203 -0.472892E-08  0.235E-04    0.96      50.2  T
     SCC iter.                  ...        0 min,  0.057 sec
     gradient                   ...        0 min,  0.069 sec
 * total energy  :  -101.9534862 Eh     change       -0.9442548E-04 Eh
   gradient norm :     0.0041182 Eh/α   predicted    -0.5813586E-04 ( -38.43%)
   displ. norm   :     0.2125484 α      lambda       -0.2232421E-03
   maximum displ.:     0.1039869 α      in ANC's #9, #5, #2, ...

........................................................................
.............................. CYCLE   45 ..............................
........................................................................

 iter      E             dE          RMSdq      gap      omega  full diag
   1   -100.6760183 -0.100676E+03  0.329E-02    0.95       0.0  T
   2   -100.6760050  0.132735E-04  0.229E-02    0.96       1.0  T
   3   -100.6758948  0.110255E-03  0.329E-02    0.93       1.0  T
   4   -100.6759425 -0.477215E-04  0.245E-02    0.95       1.0  T
   5   -100.6760236 -0.811181E-04  0.361E-03    0.95       3.3  T
   6   -100.6760250 -0.137984E-05  0.829E-04    0.95      14.2  T
   7   -100.6760250 -0.103491E-08  0.615E-04    0.95      19.2  T
   8   -100.6760250 -0.352417E-07  0.191E-04    0.95      61.7  T
     SCC iter.                  ...        0 min,  0.065 sec
     gradient                   ...        0 min,  0.069 sec
 * total energy  :  -101.9536159 Eh     change       -0.1297027E-03 Eh
   gradient norm :     0.0110598 Eh/α   predicted    -0.1166667E-03 ( -10.05%)
   displ. norm   :     0.1990565 α      lambda       -0.1508298E-03
   maximum displ.:     0.0953098 α      in ANC's #9, #5, #2, ...

........................................................................
.............................. CYCLE   46 ..............................
........................................................................

 iter      E             dE          RMSdq      gap      omega  full diag
   1   -100.6753370 -0.100675E+03  0.264E-02    0.95       0.0  T
   2   -100.6753347  0.227669E-05  0.165E-02    0.95       1.0  T
   3   -100.6752253  0.109406E-03  0.288E-02    0.93       1.0  T
   4   -100.6753222 -0.969267E-04  0.114E-02    0.95       1.0  T
   5   -100.6753378 -0.156197E-04  0.262E-03    0.95       4.5  T
   6   -100.6753386 -0.800737E-06  0.651E-04    0.95      18.1  T
   7   -100.6753386 -0.812898E-08  0.407E-04    0.95      29.0  T
     SCC iter.                  ...        0 min,  0.057 sec
     gradient                   ...        0 min,  0.069 sec
 * total energy  :  -101.9536827 Eh     change       -0.6684626E-04 Eh
   gradient norm :     0.0157870 Eh/α   predicted    -0.7848008E-04 (  17.40%)
   displ. norm   :     0.1277767 α      lambda       -0.1113041E-03
   maximum displ.:     0.0602621 α      in ANC's #9, #5, #2, ...

........................................................................
.............................. CYCLE   47 ..............................
........................................................................

 iter      E             dE          RMSdq      gap      omega  full diag
   1   -100.6759163 -0.100676E+03  0.166E-02    0.95       0.0  T
   2   -100.6759149  0.137607E-05  0.107E-02    0.95       1.1  T
   3   -100.6758679  0.469843E-04  0.192E-02    0.96       1.0  T
   4   -100.6759083 -0.403697E-04  0.758E-03    0.95       1.6  T
   5   -100.6759168 -0.854970E-05  0.103E-03    0.95      11.5  T
   6   -100.6759169 -0.827355E-07  0.377E-04    0.95      31.2  T
   7   -100.6759169 -0.893775E-08  0.197E-04    0.95      59.7  T
     SCC iter.                  ...        0 min,  0.057 sec
     gradient                   ...        0 min,  0.075 sec
 * total energy  :  -101.9537777 Eh     change       -0.9500212E-04 Eh
   gradient norm :     0.0082439 Eh/α   predicted    -0.5658022E-04 ( -40.44%)
   displ. norm   :     0.3141396 α      lambda       -0.2232662E-03
   maximum displ.:     0.1497642 α      in ANC's #5, #9, #2, ...

........................................................................
.............................. CYCLE   48 ..............................
........................................................................

 iter      E             dE          RMSdq      gap      omega  full diag
   1   -100.6771626 -0.100677E+03  0.408E-02    0.96       0.0  T
   2   -100.6771407  0.218808E-04  0.282E-02    0.95       1.0  T
   3   -100.6768191  0.321573E-03  0.514E-02    0.98       1.0  T
   4   -100.6770966 -0.277429E-03  0.227E-02    0.95       1.0  T
   5   -100.6771681 -0.715522E-04  0.269E-03    0.95       4.4  T
   6   -100.6771687 -0.573105E-06  0.987E-04    0.96      11.9  T
   7   -100.6771688 -0.854686E-07  0.406E-04    0.96      29.0  T
     SCC iter.                  ...        0 min,  0.057 sec
     gradient                   ...        0 min,  0.075 sec
 * total energy  :  -101.9539306 Eh     change       -0.1529409E-03 Eh
   gradient norm :     0.0043563 Eh/α   predicted    -0.1226973E-03 ( -19.77%)
   displ. norm   :     0.2878165 α      lambda       -0.9825311E-04
   maximum displ.:     0.1393168 α      in ANC's #5, #9, #2, ...

........................................................................
.............................. CYCLE   49 ..............................
........................................................................

 iter      E             dE          RMSdq      gap      omega  full diag
   1   -100.6767294 -0.100677E+03  0.346E-02    0.96       0.0  T
   2   -100.6767218  0.762781E-05  0.221E-02    0.95       1.0  T
   3   -100.6763852  0.336634E-03  0.496E-02    0.98       1.0  T
   4   -100.6767243 -0.339149E-03  0.714E-03    0.96       1.7  T
   5   -100.6767307 -0.638085E-05  0.180E-03    0.96       6.5  T
   6   -100.6767310 -0.272902E-06  0.746E-04    0.96      15.8  T
   7   -100.6767310 -0.289457E-07  0.373E-04    0.96      31.6  T
     SCC iter.                  ...        0 min,  0.057 sec
     gradient                   ...        0 min,  0.069 sec
 * total energy  :  -101.9540036 Eh     change       -0.7291952E-04 Eh
   gradient norm :     0.0052523 Eh/α   predicted    -0.5323626E-04 ( -26.99%)
   displ. norm   :     0.2642827 α      lambda       -0.9530532E-04
   maximum displ.:     0.1379746 α      in ANC's #5, #9, #2, ...

........................................................................
.............................. CYCLE   50 ..............................
........................................................................

 iter      E             dE          RMSdq      gap      omega  full diag
   1   -100.6775522 -0.100678E+03  0.316E-02    0.96       0.0  T
[...]

         :::::::::::::::::::::::::::::::::::::::::::::::::::::
         ::                     SUMMARY                     ::
         :::::::::::::::::::::::::::::::::::::::::::::::::::::
         :: total energy            -101.954105553736 Eh    ::
         :: gradient norm              0.002117310932 Eh/a0 ::
         :: HOMO-LUMO gap              0.958055831447 eV    ::
         ::.................................................::
         :: SCC energy              -100.676377682107 Eh    ::
         :: -> isotropic ES            0.110089130513 Eh    ::
         :: -> anisotropic ES          0.004066593330 Eh    ::
         :: -> anisotropic XC          0.042071053070 Eh    ::
         :: -> dispersion             -0.074508517993 Eh    ::
         :: repulsion energy           1.534204658362 Eh    ::
         :: add. restraining          -2.813223235352 Eh    ::
         :: total charge               1.000000000027 e     ::
         :::::::::::::::::::::::::::::::::::::::::::::::::::::

           -------------------------------------------------
          |                Property Printout                |
           -------------------------------------------------

    * Orbital Energies and Occupations

         #    Occupation            Energy/Eh            Energy/eV
      -------------------------------------------------------------
         1        2.0000           -0.8278477             -22.5269
       ...           ...                  ...                  ...
        78        1.9987           -0.5265068             -14.3270
        79        1.9985           -0.5241767             -14.2636
        80        1.9984           -0.5235622             -14.2469
        81        1.9977           -0.5175815             -14.0841
        82        1.9972           -0.5139899             -13.9864
        83        1.9964           -0.5103219             -13.8866
        84        1.9958           -0.5076574             -13.8141
        85        1.9950           -0.5049875             -13.7414
        86        1.9826           -0.4852041             -13.2031
        87        1.9443           -0.4664603             -12.6930
        88        1.9289           -0.4624616             -12.5842
        89        1.8835           -0.4542694             -12.3613
        90        1.4318           -0.4248302             -11.5602 (HOMO)
        91        0.4285           -0.3896223             -10.6022 (LUMO)
        92        0.4020           -0.3883441             -10.5674
        93        0.0160           -0.3339039              -9.0860
        94        0.0038           -0.3110969              -8.4654
        95        0.0035           -0.3098494              -8.4314
        96        0.0031           -0.3078943              -8.3782
        97        0.0000           -0.2122801              -5.7764
        98        0.0000           -0.1851856              -5.0392
        99                         -0.1310215              -3.5653
       100                         -0.0781041              -2.1253
       101                         -0.0633791              -1.7246
       ...                                ...                  ...
       171                          1.4037424              38.1978
      -------------------------------------------------------------
                  HL-Gap            0.0352079 Eh            0.9581 eV
             Fermi-level           -0.4101978 Eh          -11.1621 eV

     #   Z          covCN         q      C6AA      α(0)
     1   7 N        1.773    -0.271    27.857     7.816
     2   6 C        2.827     0.101    25.752     8.315
     3   6 C        3.907     0.006    20.415     6.422
     4   6 C        2.974     0.002    27.981     8.677
     5   6 C        2.921    -0.080    30.006     8.983
     6   6 C        2.862     0.129    25.178     8.225
     7   8 O        1.706    -0.232    17.848     5.704
     8   6 C        3.644     0.028    20.434     6.497
     9   6 C        2.864     0.128    25.195     8.228
    10   8 O        1.706    -0.231    17.825     5.700
    11   6 C        3.645     0.027    20.446     6.499
    12   6 C        2.914    -0.075    29.866     8.962
    13   6 C        2.921    -0.053    29.329     8.881
    14   6 C        3.812    -0.064    21.726     6.634
    15   6 C        3.802    -0.069    21.814     6.650
    16   6 C        2.844     0.005    27.899     8.656
    17   7 N        2.729     0.011    21.065     6.817
    18   6 C        3.757    -0.018    20.943     6.525
    19   6 C        3.809    -0.069    21.821     6.649
    20   6 C        2.955     0.018    27.600     8.617
    21   6 C        2.907    -0.060    29.490     8.905
    22   6 C        3.809    -0.099    22.382     6.734
    23   6 C        2.850     0.128    25.192     8.226
    24   8 O        1.706    -0.193    17.230     5.604
    25   6 C        3.644     0.019    20.590     6.522
    26   6 C        2.862     0.134    25.059     8.205
    27   8 O        1.706    -0.242    18.009     5.730
    28   6 C        3.657     0.029    20.379     6.480
    29   6 C        1.993    -0.164    35.730     9.653
    30   6 C        3.699    -0.071    22.029     6.713
    31   6 C        3.853    -0.007    20.671     6.467
    32   6 C        3.756    -0.118    22.822     6.812
    33   6 C        3.755    -0.118    22.817     6.811
    34   1 H        0.926     0.051     2.309     2.376
    35   1 H        0.924     0.053     2.285     2.364
    36   1 H        0.925     0.080     1.980     2.200
    37   1 H        0.924     0.046     2.371     2.408
    38   1 H        0.924     0.054     2.269     2.356
    39   1 H        0.925     0.080     1.979     2.200
    40   1 H        0.924     0.047     2.352     2.398
    41   1 H        0.926     0.051     2.304     2.374
    42   1 H        0.926     0.038     2.472     2.459
    43   1 H        0.925     0.059     2.213     2.327
    44   1 H        0.924     0.052     2.294     2.368
    45   1 H        0.925     0.066     2.131     2.283
    46   1 H        0.923     0.077     2.010     2.217
    47   1 H        0.922     0.006     2.961     2.691
    48   1 H        0.926     0.067     2.123     2.278
    49   1 H        0.924     0.079     1.989     2.205
    50   1 H        0.924     0.063     2.161     2.299
    51   1 H        0.924     0.046     2.368     2.407
    52   1 H        0.924     0.064     2.148     2.292
    53   1 H        0.925     0.047     2.357     2.401
    54   1 H        0.920     0.087     1.910     2.161
    55   1 H        0.924     0.062     2.179     2.309
    56   1 H        0.924     0.062     2.172     2.305
    57   1 H        0.925     0.091     1.865     2.136
    58   1 H        0.925     0.075     2.031     2.228
    59   1 H        0.924     0.051     2.307     2.375
    60   1 H        0.924     0.055     2.259     2.350
    61   1 H        0.931     0.132     1.523     1.930
    62   1 H        0.924     0.075     2.030     2.228
    63   1 H        0.924     0.079     1.993     2.208
    64   1 H        0.925     0.083     1.948     2.183
    65   1 H        0.924     0.036     2.502     2.473
    66   1 H        0.925     0.068     2.106     2.269
    67   1 H        0.925     0.035     2.514     2.480
    68   1 H        0.925     0.050     2.320     2.382
    69   1 H        0.925     0.060     2.199     2.319
    70   1 H        0.925     0.033     2.540     2.492
    71   1 H        0.925     0.053     2.280     2.362
    72   1 H        0.860     0.155     1.368     1.832

 Mol. C6AA /au·bohr⁶  :      47181.638925
 Mol. C8AA /au·bohr⁸  :    1076513.507528
 Mol. α(0) /au        :        332.243005


Wiberg/Mayer (AO) data.
largest (>0.10) Wiberg bond orders for each atom

 ---------------------------------------------------------------------------
     #   Z sym  total        # sym  WBO       # sym  WBO       # sym  WBO
 ---------------------------------------------------------------------------
     1   7 N    3.039 --     2 C    1.954    72 H    0.943
     2   6 C    3.927 --     1 N    1.954     3 C    0.995    47 H    0.900
     3   6 C    3.977 --     2 C    0.995     4 C    0.969    14 C    0.957
                            31 C    0.943
     4   6 C    3.952 --    13 C    1.417     5 C    1.367     3 C    0.969
     5   6 C    3.964 --     6 C    1.403     4 C    1.367    34 H    0.958
     6   6 C    3.908 --     5 C    1.403     9 C    1.224     7 O    1.096
     7   8 O    2.253 --     6 C    1.096     8 C    0.979
     8   6 C    3.933 --     7 O    0.979    36 H    0.977    37 H    0.974
                            35 H    0.974
     9   6 C    3.904 --    12 C    1.394     6 C    1.224    10 O    1.099
    10   8 O    2.252 --     9 C    1.099    11 C    0.978
    11   6 C    3.932 --    10 O    0.978    39 H    0.977    40 H    0.974
                            38 H    0.974
    12   6 C    3.964 --    13 C    1.402     9 C    1.394    41 H    0.964
    13   6 C    3.957 --     4 C    1.417    12 C    1.402    42 H    0.963
    14   6 C    3.974 --    15 C    0.983    44 H    0.972    43 H    0.969
                             3 C    0.957
    15   6 C    3.987 --    16 C    1.058    14 C    0.983    45 H    0.961
                            46 H    0.928
    16   6 C    3.586 --    17 N    1.398    15 C    1.058    48 H    0.958
    17   7 N    3.475 --    16 C    1.398    30 C    0.999    18 C    0.988
    18   6 C    3.956 --    17 N    0.988    19 C    0.972    50 H    0.968
                            49 H    0.960
    19   6 C    3.969 --    20 C    0.996    51 H    0.975    18 C    0.972
                            52 H    0.965
    20   6 C    3.948 --    21 C    1.619    29 C    1.241    19 C    0.996
    21   6 C    3.783 --    20 C    1.619    22 C    1.036    53 H    0.961
    22   6 C    3.974 --    21 C    1.036    23 C    1.024    61 H    0.935
                            54 H    0.895
    23   6 C    3.686 --    26 C    1.298    24 O    1.169    22 C    1.024
    24   8 O    2.303 --    23 C    1.169    25 C    0.968
    25   6 C    3.919 --    57 H    0.976    56 H    0.971    55 H    0.968
                            24 O    0.968
    26   6 C    3.883 --    29 C    1.342    23 C    1.298    27 O    1.078
    27   8 O    2.229 --    26 C    1.078    28 C    0.978
    28   6 C    3.927 --    58 H    0.979    27 O    0.978    59 H    0.973
                            60 H    0.973
    29   6 C    2.794 --    26 C    1.342    20 C    1.241
    30   6 C    3.957 --    17 N    0.999    64 H    0.977    62 H    0.967
                            63 H    0.962
    31   6 C    3.974 --    33 C    1.009    32 C    1.008    65 H    0.961
                             3 C    0.943
    32   6 C    3.981 --    31 C    1.008    67 H    0.982    68 H    0.982
                            66 H    0.975
    33   6 C    3.984 --    31 C    1.009    70 H    0.983    71 H    0.981
                            69 H    0.977
    34   1 H    0.996 --     5 C    0.958
    35   1 H    0.994 --     8 C    0.974
    36   1 H    0.993 --     8 C    0.977
    37   1 H    0.994 --     8 C    0.974
    38   1 H    0.993 --    11 C    0.974
    39   1 H    0.993 --    11 C    0.977
    40   1 H    0.994 --    11 C    0.974
    41   1 H    0.996 --    12 C    0.964
    42   1 H    0.998 --    13 C    0.963
    43   1 H    0.995 --    14 C    0.969
    44   1 H    0.996 --    14 C    0.972
    45   1 H    0.995 --    15 C    0.961
    46   1 H    0.970 --    15 C    0.928
    47   1 H    0.988 --     2 C    0.900
    48   1 H    0.995 --    16 C    0.958
    49   1 H    0.989 --    18 C    0.960
    50   1 H    0.995 --    18 C    0.968
    51   1 H    0.997 --    19 C    0.975
    52   1 H    0.995 --    19 C    0.965
    53   1 H    0.989 --    21 C    0.961
    54   1 H    0.956 --    22 C    0.895
    55   1 H    0.991 --    25 C    0.968
    56   1 H    0.991 --    25 C    0.971
    57   1 H    0.991 --    25 C    0.976
    58   1 H    0.993 --    28 C    0.979
    59   1 H    0.993 --    28 C    0.973
    60   1 H    0.993 --    28 C    0.973
    61   1 H    0.972 --    22 C    0.935
    62   1 H    0.985 --    30 C    0.967
    63   1 H    0.987 --    30 C    0.962
    64   1 H    0.993 --    30 C    0.977
    65   1 H    0.993 --    31 C    0.961
    66   1 H    0.992 --    32 C    0.975
    67   1 H    0.997 --    32 C    0.982
    68   1 H    0.994 --    32 C    0.982
    69   1 H    0.994 --    33 C    0.977
    70   1 H    0.997 --    33 C    0.983
    71   1 H    0.994 --    33 C    0.981
    72   1 H    0.971 --     1 N    0.943
 ---------------------------------------------------------------------------

Topologies differ in total number of bonds
Writing topology from bond orders to xtbtopo.mol

molecular dipole:
                 x           y           z       tot (Debye)
 q only:        1.895       0.486      -1.200
   full:        2.475       0.736      -1.553       7.660
molecular quadrupole (traceless):
                xx          xy          yy          xz          yz          zz
 q only:       69.945      15.905     -28.867      -4.003     -12.700     -41.078
  q+dip:       70.070      23.105     -31.163      -3.699     -15.851     -38.907
   full:       69.962      22.707     -31.278      -6.089     -15.599     -38.684

           -------------------------------------------------
          |                Geometry Summary                 |
           -------------------------------------------------

      molecular mass/u    :      455.6105846
   center of mass at/Å    :       -0.0208737      -0.0355461       0.0123261
  moments of inertia/u·Å² :        0.2448165E+04   0.1095853E+05   0.1200130E+05
rotational constants/cm⁻¹ :        0.6885824E-02   0.1538312E-02   0.1404651E-02

 * 62 selected distances

     #   Z          #   Z                                           value/Å
     1   7 N        2   6 C                                       1.2491644
     4   6 C        5   6 C                                       1.3965256
     5   6 C        6   6 C                                       1.3844791
     6   6 C        7   8 O                                       1.3500598
     7   8 O        8   6 C                                       1.4079307
     6   6 C        9   6 C                                       1.4206689
     9   6 C       10   8 O                                       1.3488993
    10   8 O       11   6 C                                       1.4083809
     9   6 C       12   6 C                                       1.3853559
     4   6 C       13   6 C                                       1.3856597
    12   6 C       13   6 C                                       1.3894905
    14   6 C       15   6 C                                       1.5391080 (max)
    15   6 C       16   6 C                                       1.4802749
    16   6 C       17   7 N                                       1.3284451
    17   7 N       18   6 C                                       1.4433402
    18   6 C       19   6 C                                       1.5370961
    20   6 C       21   6 C                                       1.3554179
    23   6 C       24   8 O                                       1.3326497
    24   8 O       25   6 C                                       1.4115773
    23   6 C       26   6 C                                       1.4034529
    26   6 C       27   8 O                                       1.3553571
    27   8 O       28   6 C                                       1.4092386
    17   7 N       30   6 C                                       1.4431559
    31   6 C       32   6 C                                       1.5269981
    31   6 C       33   6 C                                       1.5262649
     5   6 C       34   1 H                                       1.0772493
     8   6 C       35   1 H                                       1.0942462
     8   6 C       36   1 H                                       1.0882224
     8   6 C       37   1 H                                       1.0950480
    11   6 C       38   1 H                                       1.0940690
    11   6 C       39   1 H                                       1.0882179
    11   6 C       40   1 H                                       1.0948018
    12   6 C       41   1 H                                       1.0778723
    13   6 C       42   1 H                                       1.0790280
    14   6 C       43   1 H                                       1.0894762
    14   6 C       44   1 H                                       1.0906702
    15   6 C       45   1 H                                       1.0885945
    15   6 C       46   1 H                                       1.0982043
    16   6 C       48   1 H                                       1.0802449
    18   6 C       49   1 H                                       1.0931066
    18   6 C       50   1 H                                       1.0924217
    19   6 C       51   1 H                                       1.0909447
    19   6 C       52   1 H                                       1.0912842
    21   6 C       53   1 H                                       1.0813450
    22   6 C       54   1 H                                       1.1180027
    25   6 C       55   1 H                                       1.0952548
    25   6 C       56   1 H                                       1.0944329
    25   6 C       57   1 H                                       1.0894105
    28   6 C       58   1 H                                       1.0874068
    28   6 C       59   1 H                                       1.0945456
    28   6 C       60   1 H                                       1.0941359
    22   6 C       61   1 H                                       0.7439903 (min)
    30   6 C       62   1 H                                       1.0923971
    30   6 C       63   1 H                                       1.0930656
    30   6 C       64   1 H                                       1.0872496
    31   6 C       65   1 H                                       1.0961354
    32   6 C       66   1 H                                       1.0851394
    32   6 C       67   1 H                                       1.0872399
    32   6 C       68   1 H                                       1.0868296
    33   6 C       69   1 H                                       1.0856412
    33   6 C       70   1 H                                       1.0869764
    33   6 C       71   1 H                                       1.0869296

 * 4 distinct bonds (by element types)

   Z      Z             #   av. dist./Å        max./Å        min./Å
   1 H    6 C          37     1.0808062     1.1180027     0.7439903
   6 C    6 C          13     1.4408302     1.5391080     1.3554179
   6 C    7 N           4     1.3660264     1.4433402     1.2491644
   6 C    8 O           8     1.3780117     1.4115773     1.3326497


optimized geometry written to: xtbopt.xyz


           -------------------------------------------------
          | TOTAL ENERGY             -101.954105553736 Eh   |
          | GRADIENT NORM               0.002117310932 Eh/α |
          | HOMO-LUMO GAP               0.958055831447 eV   |
           -------------------------------------------------

------------------------------------------------------------------------
 * finished run on 2024/04/06 at 11:17:07.131     
------------------------------------------------------------------------
 total:
 * wall-time:     0 d,  0 h,  0 min,  9.231 sec
 *  cpu-time:     0 d,  0 h,  0 min,  9.209 sec
 * ratio c/w:     0.998 speedup
 SCF:
 * wall-time:     0 d,  0 h,  0 min,  0.190 sec
 *  cpu-time:     0 d,  0 h,  0 min,  0.190 sec
 * ratio c/w:     1.000 speedup
 ANC optimizer:
 * wall-time:     0 d,  0 h,  0 min,  9.000 sec
 *  cpu-time:     0 d,  0 h,  0 min,  8.994 sec
 * ratio c/w:     0.999 speedup

