72
 energy: -99.305250749997 gnorm: 0.006978214642 xtb: 6.6.1 (8d0f1dd)
N           -1.90579974039621        2.71479166017290        2.34962844669207
C           -1.86270922691811        2.04070972174266        1.29884650362006
C           -3.01098297729437        1.86601842955167        0.34413951013327
C           -3.47465645837202        0.41716620610992        0.36934553656189
C           -4.38657235994393       -0.03459268107000       -0.58695583644732
C           -4.84786422336865       -1.33993235521045       -0.58761413161265
O           -5.73043550490314       -1.85423197510746       -1.47048129683643
C           -6.31500977497120       -1.00774938276961       -2.43159323699088
C           -4.38053520160119       -2.24768480824360        0.40015297882517
O           -4.87758044398029       -3.49922445569726        0.32045188184122
C           -4.52482845314811       -4.43882721581055        1.30842956192082
C           -3.47803274645336       -1.79257239045141        1.34754153103322
C           -3.03328518320997       -0.47628775671438        1.33215447902095
C           -2.45443098555550        2.21649931114604       -1.06078913359541
C           -1.51644864574050        1.15156039796768       -1.65589252745098
C           -0.17973588464800        1.11962958752139       -1.02138466141402
N            0.49294121345602        0.02197385338942       -0.69444241478763
C            1.88173919650011        0.10779538432732       -0.31138979699334
C            2.81762641561887       -0.23069006883304       -1.48271451198855
C            4.24954581142345       -0.08564410730852       -1.03790439129047
C            5.06682222456028        0.85375736028126       -1.57987974377128
C            6.48214093222099        1.02043370088524       -1.15483794090931
C            6.92720601249989        0.05250240560813       -0.11331085135594
O            8.17490317882629        0.04516607244881        0.35411028799123
C            9.12186541405513        0.96874747175469       -0.13251130021064
C            6.03034660413021       -0.88958283972613        0.42064771047199
O            6.53019738473691       -1.72023920372819        1.36828627164779
C            5.63439315017619       -2.67985076068589        1.88021052439666
C            4.71957283839621       -0.94059139623697       -0.02196986716315
C           -0.09166150745874       -1.29365708547932       -0.79067366011642
C           -4.23095360839840        2.77624347099981        0.67296035439038
C           -4.86612743657808        2.39696779362532        2.00861106857783
C           -3.88869789416463        4.26366926596137        0.66845239623723
H           -4.75128118811996        0.65070122473345       -1.33383441480323
H           -6.85918512874003       -0.18266409751681       -1.96208172249032
H           -7.01500030832530       -1.63238925957551       -2.98297005674067
H           -5.56739282751819       -0.60719125685690       -3.12425148916332
H           -4.81888563324333       -4.10067263887490        2.30647684132986
H           -5.07319972287937       -5.34490005056997        1.05849250383097
H           -3.45085002850576       -4.65098799143707        1.29602201090179
H           -3.11932060703366       -2.45400083093211        2.11934302833059
H           -2.35385675112795       -0.15187262383665        2.10508352355579
H           -3.29174876804364        2.35074896220311       -1.74466276093276
H           -1.92249587791182        3.16683452661668       -1.00200392978083
H           -2.00033957071990        0.17700611476337       -1.62257462049367
H           -1.36948092636626        1.41495800323573       -2.71177954664837
H           -0.95068371474229        1.53017393502744        0.93230112756249
H            0.36033245036626        2.05267650122630       -0.95375413089682
H            2.08189820571535       -0.58519944831801        0.50978239027112
H            2.09803454591393        1.12125951130384        0.03358873402658
H            2.61094379037378        0.43559230644078       -2.32163057155280
H            2.64154381802758       -1.25906416921435       -1.80257814811478
H            4.72005650571206        1.51750466878177       -2.35850356299083
H            6.61736935622854        2.04551953044916       -0.76768491977781
H            8.82381246444788        1.99948983137815        0.08126021901621
H            9.27845941383973        0.85532498401456       -1.20926518857022
H           10.04858396685922        0.74446622969365        0.39159552901116
H            6.19755234203128       -3.26331610601629        2.60509469477215
H            4.78304156503017       -2.19662111368908        2.36925990078708
H            5.26196670982948       -3.33038467115212        1.08328582321975
H            7.13527349704503        0.95894407345056       -2.03065616426673
H           -0.27479820157470       -1.57159321446210       -1.83085290615586
H           -1.03882635958956       -1.33003307932653       -0.24662327387641
H            0.58915624420346       -2.01923133996009       -0.35309282943769
H           -4.97209014110955        2.59749835980277       -0.11453405915126
H           -4.16362166915919        2.57120373059829        2.81707278514803
H           -5.16511490286962        1.35163698635812        2.01883356126604
H           -5.74915323151420        3.00733110207395        2.17849083334992
H           -3.13202259449996        4.47865173465775        1.41651090721634
H           -3.53737621350052        4.59700729933150       -0.30453463220914
H           -4.78014444365986        4.83501682079025        0.91345428120440
H           -1.05759258734041        2.78244136689772        2.90356133542393
