25
 energy: -42.037545454730 gnorm: 0.007107741984 xtb: 6.6.1 (8d0f1dd)
C            2.98536067196592        1.13008077505509       -0.02526109150946
N            2.04928844141274        0.04626944146941       -0.12185883468102
C            2.33550289292056       -1.23305133067030       -0.36575534697608
N            1.20730382864692       -1.94593688491510       -0.36754284880827
C            0.12988917218616       -1.12900363528627       -0.11884489010988
C            0.66236666055906        0.18105677441909        0.06410706222049
C            0.10850108491189        1.39065650691855        0.32066668935010
O            0.55773569460632        2.63627325956470        0.60098463352883
N           -0.83282681921123        2.22504752818195        0.85240638394011
C           -1.82494480081394        2.86748276078221        0.02781404663792
C           -2.19566831733026       -1.09914677554590       -0.68039501605149
O           -3.33730040860697       -1.31995476696764       -0.89139873886136
N           -1.15895574354298       -1.65312021363439       -0.09459527370499
C           -1.31100906833840       -3.01070378175019        0.48162335321321
H            2.95211424878766        1.57246362293574        0.97222278906699
H            3.98853523190261        0.76069641360944       -0.22455600460850
H            2.73585444445805        1.91046290977968       -0.74642283026493
H            3.31747701966587       -1.62864022667056       -0.52893639227885
H           -2.07678809666313        3.81772055439021        0.49595981583296
H           -1.49303702464083        3.03713176431391       -0.99973251581574
H           -2.70311254753470        2.22249108553174        0.03163842791679
H           -0.65914548626046       -3.11008214543694        1.34683956181938
H           -1.08754972670989       -3.77854644554595       -0.26188671051752
H           -2.34504197116829       -3.13170611199689        0.79932197257508
H            1.15588213289660       -2.93970253693094       -0.53522662401368
