25
 energy: -42.035739112111 gnorm: 0.061561038466 xtb: 6.6.1 (8d0f1dd)
C            2.59437668905942        1.02261734051213        0.47697422292284
N            1.70888981855302       -0.03580107497084        0.00730218078669
C            2.32181780997320       -1.18760581396371       -0.27008703494866
N            1.87028945947267       -2.45076157254957       -0.53869611615142
C            0.68681241017703       -3.04820271911611       -0.25458927463486
C            0.37492414139872        0.28725857951481       -0.10730103042839
C           -0.14301837223948        1.85856393635025       -0.16095343611837
O            0.65101506821558        2.74930641407833       -0.39125965237660
N           -1.42361711306734        1.88876172470539        0.03887720148317
C           -2.30603222081057        2.95350763984438       -0.10916167014790
C           -0.60697501466141       -0.73522814388234       -0.32443899162643
O           -1.74114836366705       -0.53497247592620       -0.66290580889972
N           -0.33697867347562       -2.27642011590661       -0.01401756733572
C           -1.57122392121701       -2.89601924638568        0.42213119067841
H            2.45369566524099        1.15762776347399        1.55136175847148
H            3.63734944983493        0.78861074626751        0.27937285734746
H            2.33817815076563        1.96487269185417       -0.01451195373529
H            3.40225955164755       -1.13294022933520       -0.23108248497047
H           -1.80377733947722        3.88428365894460       -0.40801175976338
H           -3.04977958239588        2.69183531080536       -0.87187796053204
H           -2.84583828514991        3.10634300874833        0.83153750449991
H           -1.39825932489960       -3.95824571472973        0.57923491560436
H           -2.34907185403842       -2.75337265507768       -0.33011032946164
H           -1.90968120348171       -2.43239508473778        1.34928455056240
H            2.60622456834382       -3.09338542691705       -0.81589969332712
25
 energy: -42.047047893792 gnorm: 0.048010738079 xtb: 6.6.1 (8d0f1dd)
C            2.59836875849784        1.03064302300242        0.48378335588591
N            1.72092932200990       -0.03183361661301        0.01365333970213
C            2.34229208917331       -1.16819910426130       -0.27281872870607
N            1.86659139993814       -2.40925220032693       -0.55123010149026
C            0.66863086415287       -2.95992866714127       -0.25830794113182
C            0.38243634503615        0.26114886749593       -0.09948048128790
C           -0.14631747990933        1.77260391514590       -0.18007563300304
O            0.64998722465543        2.66599919318007       -0.40438710523227
N           -1.42774330043935        1.83103657891240        0.03006750930296
C           -2.28950820548383        2.92095665001886       -0.10678434406998
C           -0.62520753012264       -0.71902570183894       -0.32896849904358
O           -1.75504209617580       -0.50235893315308       -0.66909323630150
N           -0.36367286980094       -2.22712627775038       -0.00544196594868
C           -1.58209095950889       -2.87982748771823        0.42592195578614
H            2.45424934166070        1.16539950278137        1.55687033610380
H            3.64098404246193        0.79654811641781        0.28816089846334
H            2.34246897193485        1.96993595130413       -0.01101197067147
H            3.42196437685464       -1.12237523193676       -0.22882672683771
H           -1.77838997118974        3.84930859021281       -0.40273955331938
H           -3.04256710038224        2.68149906367465       -0.86817095847133
H           -2.82705642799215        3.08464727218819        0.83392188486381
H           -1.38927016032985       -3.94001794544397        0.57628862224342
H           -2.36152032147997       -2.74804359719099       -0.32638567833564
H           -1.92662911647086       -2.42751937192545        1.35607352628156
H            2.58654431701117       -3.07598004743347       -0.81984688688372
25
 energy: -42.054071607394 gnorm: 0.027714688550 xtb: 6.6.1 (8d0f1dd)
C            2.59573471654809        1.04433263591260        0.49659287511857
N            1.73195782991753       -0.02115980608740        0.01145476373134
C            2.36790164485050       -1.14086725049327       -0.28366388043647
N            1.85817343529209       -2.35993965905748       -0.57663611962228
C            0.64832403077595       -2.85072396669925       -0.26155315919642
C            0.38420117628730        0.23450354027005       -0.10677405529257
C           -0.13279788673400        1.66917128639018       -0.17003546881760
O            0.63955559909750        2.58970746970937       -0.43280616024902
N           -1.42138567659669        1.76145601072027        0.04269088358872
C           -2.25941460875386        2.87145130666490       -0.10843553968932
C           -0.64871171673190       -0.70844155679467       -0.32896373150088
O           -1.77469620574323       -0.47244007778419       -0.67722948335547
N           -0.39755454667637       -2.16720554057105        0.00537522518690
C           -1.59804223831504       -2.85784292322911        0.43382952620825
H            2.44093104301356        1.18016440187258        1.56733393238922
H            3.63955578355320        0.80912065357635        0.30972847034758
H            2.34085687884728        1.98195537782949       -0.00325667364892
H            3.44697048429781       -1.10728606079808       -0.22653030373181
H           -1.73155212625851        3.79060665138712       -0.40548989738342
H           -3.01803966173627        2.64836642189046       -0.86998966525489
H           -2.79596243200113        3.05323425100949        0.83021557316072
H           -1.37919904708547       -3.91427282826087        0.57548837987488
H           -2.37842066750433       -2.73736647125494       -0.31909788845131
H           -1.95012528427772       -2.41926683206338        1.36734809284240
H            2.55217099003506       -3.05901849253835       -0.83842407791946
25
 energy: -42.055304499275 gnorm: 0.017740603657 xtb: 6.6.1 (8d0f1dd)
C            2.59091016620024        1.05378706752256        0.51404553539868
N            1.73944752195886       -0.01856284621852        0.02047563045394
C            2.37899663922831       -1.13341347752636       -0.28541771141454
N            1.85034853105092       -2.34492144948330       -0.59659284491719
C            0.64332637249275       -2.82360480717712       -0.26887314408440
C            0.38825911152445        0.22733163052584       -0.10709719569085
C           -0.12422777788947        1.64097784222671       -0.19520262100607
O            0.62500673140236        2.58568736105508       -0.46619215537701
N           -1.41292616274862        1.73872672024764        0.03892388068116
C           -2.24332217313203        2.84781547574824       -0.10803415963796
C           -0.65409811510696       -0.71153387856419       -0.31991785274066
O           -1.77862025504733       -0.45906221392761       -0.67223862371099
N           -0.40990483853977       -2.15311820622204        0.01009520003848
C           -1.60708008872418       -2.84902211577203        0.44118208058836
H            2.42275781896589        1.19208772959728        1.58265753969424
H            3.63820403410197        0.82534987230624        0.33884785743033
H            2.33350231576108        1.98981233237319        0.00942795700234
H            3.45832367410714       -1.10597829120659       -0.22976437467327
H           -1.70308708844633        3.75659964133079       -0.41177863701948
H           -3.00369359428588        2.62397833514377       -0.86656498003613
H           -2.77068296406049        3.03107195097497        0.83511914733085
H           -1.38029048453557       -3.90308143582687        0.57881613119043
H           -2.38922642219310       -2.72844611234728       -0.30982738145101
H           -1.96006481901795       -2.41441168404590        1.37621689804640
H            2.52857338103510       -3.04983089913364       -0.87713455819691
25
 energy: -42.055900111399 gnorm: 0.010160569749 xtb: 6.6.1 (8d0f1dd)
C            2.58070757097482        1.05958078621754        0.53036571123580
N            1.74593793847353       -0.01917404324846        0.02146191588077
C            2.38636104112262       -1.13145864534623       -0.29221924608117
N            1.84290406964631       -2.33785482321387       -0.61886310130242
C            0.64339122738944       -2.81877937196754       -0.27845804078969
C            0.39410515379070        0.22396045028608       -0.11798013460788
C           -0.11451777703995        1.63410483764729       -0.19919437680637
O            0.61374626311190        2.59287967690509       -0.48494345471659
N           -1.40433001192695        1.73401225754115        0.04657587817352
C           -2.23181733377878        2.83589649269678       -0.11301639163045
C           -0.65154824525175       -0.72134524590820       -0.31493447241117
O           -1.77914021060575       -0.45192816729330       -0.65443010944354
N           -0.41328708649365       -2.15095977991896        0.01447019618329
C           -1.60991755179784       -2.84472859484162        0.45089580863820
H            2.39150377729449        1.19862211599069        1.59616704435825
H            3.63310979633376        0.83949022158412        0.37466287421701
H            2.32419027684314        1.99410178124877        0.02073295090788
H            3.46572081389836       -1.11004097458558       -0.23354388825989
H           -1.68177102515808        3.73394394595667       -0.42830794085792
H           -2.99058754766028        2.60299202886255       -0.86938995224875
H           -2.75594451264140        3.02538026862082        0.83004285991560
H           -1.38174060018648       -3.89753410017485        0.58657197740874
H           -2.39520132412972       -2.72128774332310       -0.29657458296127
H           -1.96016458672550       -2.40998816331596        1.38690628734181
H            2.50872139861849       -3.04164666881896       -0.92582619424500
25
 energy: -42.056153137509 gnorm: 0.006317996689 xtb: 6.6.1 (8d0f1dd)
C            2.57297665361416        1.05876877511180        0.54339974304077
N            1.74862352237860       -0.02100432887018        0.02306662704756
C            2.38851844833402       -1.13135168779796       -0.29816714706176
N            1.83795721232724       -2.33360102307960       -0.63764546145070
C            0.64507821012709       -2.82361491343270       -0.29036870011554
C            0.39816670379109        0.22411367015876       -0.12292411101231
C           -0.11166594491949        1.63275966580470       -0.20901863328456
O            0.60894178080630        2.59513938620333       -0.49161505249866
N           -1.40160173898429        1.73512434205896        0.04659382913555
C           -2.22736866273042        2.83502086746129       -0.11980670526015
C           -0.64818859621603       -0.72755743307970       -0.30302701357260
O           -1.77869722698500       -0.44551087946314       -0.62879880062450
N           -0.41020028689388       -2.15238539337033        0.01611148289374
C           -1.60593249451746       -2.84441153869637        0.45843805281651
H            2.36446802098710        1.19856774076425        1.60597154939102
H            3.62848269081444        0.84027915471082        0.40627566263266
H            2.32227435026130        1.99207591218559        0.02829987696246
H            3.46761696758796       -1.11377997059931       -0.23505874869201
H           -1.67357446201560        3.72718261294784       -0.44432131280007
H           -2.98718762022380        2.59771097602579       -0.87406422368937
H           -2.75054800989660        3.03178794209661        0.82198865754434
H           -1.37872675724649       -3.89745740641964        0.59239819911246
H           -2.39556192934838       -2.71815221424829       -0.28425522859329
H           -1.95087993722975       -2.40913337762061        1.39634439929483
H            2.49746062027940       -3.03233233725097       -0.96864532331762
