25
 energy: -42.066484495417 gnorm: 0.004659422622 xtb: 6.6.1 (8d0f1dd)
C            3.42187893944874        0.87782647621347        0.28109993233450
N            2.08343717030274        1.24578546537345        0.35065233775400
C            1.97504384278197       -2.59202731375275       -0.44173859321838
N            1.66409448822872       -1.59825118875988        0.30295910563669
C            0.60185909096172       -0.67293605202999        0.16248383486726
C            0.92650777742342        0.70872971489885        0.26492871880518
C           -0.22038582741630        1.68890308969896        0.25440759363440
O           -0.06994682462942        2.85511699379908        0.48495680131649
N           -1.44700750699113        1.14268996542590       -0.07172962349753
C           -2.58472627226812        2.04549755027608       -0.19297141497233
C           -1.72924530677929       -0.18915794209661       -0.25571340758618
O           -2.82201647972838       -0.59781545132061       -0.53138738229171
N           -0.65629658326426       -1.09480199591218       -0.06615153309758
C           -1.02913091494721       -2.49569680347343       -0.10021624685305
H            3.83358109235152        0.80941316272532        1.29529778108270
H            3.62936282043450       -0.04902434644990       -0.26975169354913
H            3.95496778279418        1.70467979779613       -0.20210726207868
H            1.37158199884196       -2.84691810450191       -1.30357111701412
H           -2.21375164349008        3.06779257903416       -0.19452083438122
H           -3.12241773194298        1.82761693013643       -1.11513176391918
H           -3.26684730060944        1.90180141150656        0.64598087625127
H           -0.39172631117143       -3.08489055019929        0.55587328955329
H           -0.97824330817489       -2.88439368656907       -1.11970290823526
H           -2.06782711053119       -2.57599345776421        0.22329978664738
H            2.29768563245420       -1.37570770245647        1.07392534072389
