25
 energy: 24.625168133854 xtb: 6.6.1 (8d0f1dd)
C            3.50763277656640        1.87637141760442        0.09839994785370
N            3.49064712989009        0.84792350731606       -0.61648346266394
C            1.52200004057141       -1.13044512793061        0.34942024479834
N            0.94257716576577       -2.35229059217923        0.19616524222406
C           -0.39454936937550       -2.24121836856907        0.00967276745364
C            0.51545487107472       -0.19695397678848        0.24867873640153
C            0.17576015256949        1.20074836259672        0.26073870294661
O            0.86391857971490        2.20416018910732        0.39632392156919
N           -1.21277664778878        1.21198716287172        0.06406366132441
C           -2.00238821080398        2.41998892003821        0.01257402928030
C           -1.75490709173554       -0.04494316023528       -0.07365961928588
O           -2.91505285986379       -0.36235604981629       -0.25631775005902
N           -0.66890562460237       -0.90974288436254        0.04108228592619
C           -1.36353022384371       -3.33115789494758       -0.18549569310301
H            3.38087929327781        1.75710249682789        1.16842623647211
H            3.58368932957039        0.98091854996657       -1.62429304915307
H            3.66112204082580        2.90179767742969       -0.24560829411719
H            2.57110018993171       -0.97146580446577        0.47323688532932
H           -1.31974999703153        3.26556175916274        0.08623895219122
H           -2.55693821919289        2.46749074116631       -0.92549745386628
H           -2.71248498282915        2.44545120100646        0.84094129702622
H           -1.33695239299353       -4.02918011189886        0.65154022243879
H           -1.14591359434833       -3.88998124655050       -1.09639927456726
H           -2.35832324202038       -2.89947739020469       -0.26316884550774
H            1.43990519163960       -3.23126058840998        0.21645422128301
