      -----------------------------------------------------------      
     |                   =====================                   |     
     |                           x T B                           |     
     |                   =====================                   |     
     |                         S. Grimme                         |     
     |          Mulliken Center for Theoretical Chemistry        |     
     |                    University of Bonn                     |     
      -----------------------------------------------------------      

   * xtb version 6.6.1 (8d0f1dd) compiled by 'conda@1efc2f54142f' on 2023-08-01

   xtb is free software: you can redistribute it and/or modify it under
   the terms of the GNU Lesser General Public License as published by
   the Free Software Foundation, either version 3 of the License, or
   (at your option) any later version.
   
   xtb is distributed in the hope that it will be useful,
   but WITHOUT ANY WARRANTY; without even the implied warranty of
   MERCHANTABILITY or FITNESS FOR A PARTICULAR PURPOSE.  See the
   GNU Lesser General Public License for more details.
   
   Cite this work as:
   * C. Bannwarth, E. Caldeweyher, S. Ehlert, A. Hansen, P. Pracht,
     J. Seibert, S. Spicher, S. Grimme, WIREs Comput. Mol. Sci., 2020, 11,
     e01493. DOI: 10.1002/wcms.1493
   
   for GFN2-xTB:
   * C. Bannwarth, S. Ehlert and S. Grimme., J. Chem. Theory Comput., 2019,
     15, 1652-1671. DOI: 10.1021/acs.jctc.8b01176
   for GFN1-xTB:
   * S. Grimme, C. Bannwarth, P. Shushkov, J. Chem. Theory Comput., 2017,
     13, 1989-2009. DOI: 10.1021/acs.jctc.7b00118
   for GFN0-xTB:
   * P. Pracht, E. Caldeweyher, S. Ehlert, S. Grimme, ChemRxiv, 2019, preprint.
     DOI: 10.26434/chemrxiv.8326202.v1
   for GFN-FF:
   * S. Spicher and S. Grimme, Angew. Chem. Int. Ed., 2020, 59, 15665-15673.
     DOI: 10.1002/anie.202004239
   
   for ALPB and GBSA implicit solvation:
   * S. Ehlert, M. Stahn, S. Spicher, S. Grimme, J. Chem. Theory Comput.,
     2021, 17, 4250-4261. DOI: 10.1021/acs.jctc.1c00471
   
   for DFT-D4:
   * E. Caldeweyher, C. Bannwarth and S. Grimme, J. Chem. Phys., 2017,
     147, 034112. DOI: 10.1063/1.4993215
   * E. Caldeweyher, S. Ehlert, A. Hansen, H. Neugebauer, S. Spicher,
     C. Bannwarth and S. Grimme, J. Chem. Phys., 2019, 150, 154122.
     DOI: 10.1063/1.5090222
   * E. Caldeweyher, J.-M. Mewes, S. Ehlert and S. Grimme, Phys. Chem. Chem. Phys.
     2020, 22, 8499-8512. DOI: 10.1039/D0CP00502A
   
   for sTDA-xTB:
   * S. Grimme and C. Bannwarth, J. Chem. Phys., 2016, 145, 054103.
     DOI: 10.1063/1.4959605
   
   in the mass-spec context:
   * V. Asgeirsson, C. Bauer and S. Grimme, Chem. Sci., 2017, 8, 4879.
     DOI: 10.1039/c7sc00601b
   * J. Koopman and S. Grimme, ACS Omega 2019, 4, 12, 15120-15133.
     DOI: 10.1021/acsomega.9b02011
   
   for metadynamics refer to:
   * S. Grimme, J. Chem. Theory Comput., 2019, 155, 2847-2862
     DOI: 10.1021/acs.jctc.9b00143
   
   for SPH calculations refer to:
   * S. Spicher and S. Grimme, J. Chem. Theory Comput., 2021, 17, 1701-1714
     DOI: 10.1021/acs.jctc.0c01306
   
   with help from (in alphabetical order)
   P. Atkinson, C. Bannwarth, F. Bohle, G. Brandenburg, E. Caldeweyher
   M. Checinski, S. Dohm, S. Ehlert, S. Ehrlich, I. Gerasimov, C. Hölzer
   A. Katbashev, J. Koopman, C. Lavigne, S. Lehtola, F. März, M. Müller,
   F. Musil, H. Neugebauer, J. Pisarek, C. Plett, P. Pracht, F. Pultar,
   J. Seibert, P. Shushkov, S. Spicher, M. Stahn, M. Steiner, T. Strunk,
   J. Stückrath, T. Rose, and J. Unsleber
   
 * started run on 2024/06/05 at 19:58:11.084     

           -------------------------------------------------
          |                Calculation Setup                |
           -------------------------------------------------

          program call               : xtb xtbopt.xyz --opt crude --input .xc2 --gfn2
          hostname                   : n-62-21-71
          coordinate file            : xtbopt.xyz
          omp threads                :                     1

   ID    Z sym.   atoms
    1    6 C      1, 3, 5-7, 10, 11, 14
    2    7 N      2, 4, 9, 13
    3    8 O      8, 12
    4    1 H      15-25
########################################################################
[WARNING] Please study the warnings concerning your input carefully
-1- readin_getIntValue: could not parse ''
########################################################################

           -------------------------------------------------
          |                 G F N 2 - x T B                 |
           -------------------------------------------------

        Reference                      10.1021/acs.jctc.8b01176
      * Hamiltonian:
        H0-scaling (s, p, d)           1.850000    2.230000    2.230000
        zeta-weighting                 0.500000
      * Dispersion:
        s8                             2.700000
        a1                             0.520000
        a2                             5.000000
        s9                             5.000000
      * Repulsion:
        kExp                           1.500000    1.000000
        rExp                           1.000000
      * Coulomb:
        alpha                          2.000000
        third order                    shell-resolved
        anisotropic                    true
        a3                             3.000000
        a5                             4.000000
        cn-shift                       1.200000
        cn-exp                         4.000000
        max-rad                        5.000000

q/qsh data taken from xtbrestart
CAMM data taken from xtbrestart

          ...................................................
          :                      SETUP                      :
          :.................................................:
          :  # basis functions                  67          :
          :  # atomic orbitals                  67          :
          :  # shells                           39          :
          :  # electrons                        74          :
          :  max. iterations                   250          :
          :  Hamiltonian                  GFN2-xTB          :
          :  restarted?                       true          :
          :  GBSA solvation                  false          :
          :  PC potential                    false          :
          :  electronic temp.         2500.0000000     K    :
          :  accuracy                    1.0000000          :
          :  -> integral cutoff          0.2500000E+02      :
          :  -> integral neglect         0.1000000E-07      :
          :  -> SCF convergence          0.1000000E-05 Eh   :
          :  -> wf. convergence          0.1000000E-03 e    :
          :  Broyden damping             0.4000000          :
          ...................................................

 iter      E             dE          RMSdq      gap      omega  full diag
   1    -42.8015911 -0.428016E+02  0.793E-06    2.20       0.0  T
   2    -42.8015911 -0.312639E-12  0.508E-06    2.20    3934.1  T
   3    -42.8015911 -0.184741E-12  0.329E-06    2.20    6073.4  T

   *** convergence criteria satisfied after 3 iterations ***

         #    Occupation            Energy/Eh            Energy/eV
      -------------------------------------------------------------
         1        2.0000           -0.9080629             -24.7096
       ...           ...                  ...                  ...
        31        2.0000           -0.6143948             -16.7185
        32        2.0000           -0.6106769             -16.6174
        33        2.0000           -0.5922710             -16.1165
        34        1.9990           -0.5654845             -15.3876
        35        1.9967           -0.5557850             -15.1237
        36        1.9957           -0.5536619             -15.0659
        37        1.9916           -0.5483161             -14.9204 (HOMO)
        38        0.0169           -0.4673319             -12.7167 (LUMO)
        39        0.0001           -0.4249015             -11.5622
        40        0.0000           -0.4011920             -10.9170
        41                         -0.3673640              -9.9965
        42                         -0.2875349              -7.8242
       ...                                ...                  ...
        67                          4.2299025             115.1015
      -------------------------------------------------------------
                  HL-Gap            0.0809842 Eh            2.2037 eV
             Fermi-level           -0.5050437 Eh          -13.7429 eV

 SCC (total)                   0 d,  0 h,  0 min,  0.038 sec
 SCC setup                      ...        0 min,  0.000 sec (  0.631%)
 Dispersion                     ...        0 min,  0.000 sec (  0.794%)
 classical contributions        ...        0 min,  0.000 sec (  0.199%)
 integral evaluation            ...        0 min,  0.005 sec ( 13.597%)
 iterations                     ...        0 min,  0.006 sec ( 16.010%)
 molecular gradient             ...        0 min,  0.026 sec ( 68.299%)
 printout                       ...        0 min,  0.000 sec (  0.422%)

         :::::::::::::::::::::::::::::::::::::::::::::::::::::
         ::                     SUMMARY                     ::
         :::::::::::::::::::::::::::::::::::::::::::::::::::::
         :: total energy             -41.168595150615 Eh    ::
         :: gradient norm              5.854256883408 Eh/a0 ::
         :: HOMO-LUMO gap              2.203691395744 eV    ::
         ::.................................................::
         :: SCC energy               -42.801591130547 Eh    ::
         :: -> isotropic ES            0.147641872606 Eh    ::
         :: -> anisotropic ES         -0.009002679622 Eh    ::
         :: -> anisotropic XC          0.019586525980 Eh    ::
         :: -> dispersion             -0.021752932675 Eh    ::
         :: repulsion energy           1.632862520561 Eh    ::
         :: add. restraining           0.000000000000 Eh    ::
         :: total charge               1.000000000000 e     ::
         :::::::::::::::::::::::::::::::::::::::::::::::::::::

      ----------------------------------------------------------- 
     |                   =====================                   |
     |                        A N C O P T                        |
     |                   =====================                   |
     |               Approximate Normal Coordinate               |
     |                Rational Function Optimizer                |
      ----------------------------------------------------------- 

          ...................................................
          :                      SETUP                      :
          :.................................................:
          :   optimization level             crude          :
          :   max. optcycles                   200          :
          :   ANC micro-cycles                  20          :
          :   degrees of freedom                69          :
          :.................................................:
          :   RF solver                   davidson          :
          :   write xtbopt.log                true          :
          :   linear?                        false          :
          :   energy convergence         0.5000000E-03 Eh   :
          :   grad. convergence          0.1000000E-01 Eh/α :
          :   maxmium RF displ.          1.0000000          :
          :   Hlow (freq-cutoff)         0.1000000E-01      :
          :   Hmax (freq-cutoff)         5.0000000          :
          :   S6 in model hess.         20.0000000          :
          ...................................................

generating ANC from model Hessian ...
Using Lindh-Hessian (1995)
 Shifting diagonal of input Hessian by    8.6636014514049862E-003
 Lowest  eigenvalues of input Hessian
    0.000000    0.000000    0.000000    0.000000    0.000000    0.000000
    0.010000    0.010344    0.011800    0.013680    0.014043    0.016528
    0.019394    0.020628    0.021318    0.022522    0.025777    0.027655
 Highest eigenvalues
    2.092389    2.370373    2.413079    2.548373    4.147396    5.036383


........................................................................
.............................. CYCLE    1 ..............................
........................................................................

 iter      E             dE          RMSdq      gap      omega  full diag
   1    -42.8015911 -0.428016E+02  0.128E-06    2.20       0.0  T
   2    -42.8015911 -0.213163E-13  0.924E-07    2.20   21636.4  T
   3    -42.8015911  0.781597E-13  0.473E-07    2.20   42261.4  T
     SCC iter.                  ...        0 min,  0.005 sec
     gradient                   ...        0 min,  0.026 sec
 * total energy  :   -41.1685952 Eh     change       -0.1136868E-12 Eh
   gradient norm :     5.8542569 Eh/α   predicted     0.0000000E+00 (-100.00%)
   displ. norm   :     0.7419402 α      lambda       -0.4306020E+01
   maximum displ.:     0.6226499 α      in ANC's #68, #66, #65, ...

........................................................................
.............................. CYCLE    2 ..............................
........................................................................

 iter      E             dE          RMSdq      gap      omega  full diag
   1    -42.8557562 -0.428558E+02  0.113E+00    3.40       0.0  T
   2    -42.8657434 -0.998723E-02  0.493E-01    3.43       1.0  T
   3    -42.8661616 -0.418233E-03  0.296E-01    3.44       1.0  T
   4    -42.8663477 -0.186046E-03  0.119E-01    3.42       1.0  T
   5    -42.8665265 -0.178799E-03  0.468E-02    3.44       1.0  T
   6    -42.8665513 -0.247778E-04  0.184E-02    3.43       1.1  T
   7    -42.8665520 -0.793708E-06  0.502E-03    3.43       4.0  T
   8    -42.8665521 -0.412100E-07  0.157E-03    3.43      12.8  T
   9    -42.8665521 -0.106573E-07  0.677E-04    3.43      29.6  T
  10    -42.8665521 -0.134603E-08  0.228E-04    3.43      87.7  T
     SCC iter.                  ...        0 min,  0.027 sec
     gradient                   ...        0 min,  0.026 sec
 * total energy  :   -42.0217521 Eh     change       -0.8531569E+00 Eh
   gradient norm :     1.2504744 Eh/α   predicted    -0.3338200E+01 ( 291.28%)
   displ. norm   :     0.5229882 α      lambda       -0.4867904E+00
   maximum displ.:     0.2370687 α      in ANC's #47, #58, #50, ...

........................................................................
.............................. CYCLE    3 ..............................
........................................................................

 iter      E             dE          RMSdq      gap      omega  full diag
   1    -42.6292176 -0.426292E+02  0.153E+00    1.43       0.0  T
   2    -42.6806549 -0.514373E-01  0.133E+00    3.16       1.0  T
   3    -42.7128653 -0.322103E-01  0.498E-01    2.79       1.0  T
   4    -42.7141742 -0.130890E-02  0.360E-01    2.61       1.0  T
   5    -42.7147386 -0.564422E-03  0.762E-02    2.42       1.0  T
   6    -42.7148758 -0.137163E-03  0.223E-02    2.48       1.0  T
   7    -42.7148750  0.793742E-06  0.185E-02    2.51       1.1  T
   8    -42.7148793 -0.431155E-05  0.613E-03    2.50       3.3  T
   9    -42.7148798 -0.469035E-06  0.186E-03    2.50      10.7  T
  10    -42.7148798 -0.219237E-07  0.103E-03    2.50      19.5  T
  11    -42.7148798 -0.113435E-07  0.405E-04    2.50      49.3  T
  12    -42.7148798 -0.166464E-08  0.775E-05    2.50     258.1  T
     SCC iter.                  ...        0 min,  0.042 sec
     gradient                   ...        0 min,  0.026 sec
 * total energy  :   -42.1303516 Eh     change       -0.1085995E+00 Eh
   gradient norm :     0.3428870 Eh/α   predicted    -0.3099725E+00 ( 185.43%)
   displ. norm   :     0.2540533 α      lambda       -0.4080204E-01
   maximum displ.:     0.1528813 α      in ANC's #23, #18, #66, ...

........................................................................
.............................. CYCLE    4 ..............................
........................................................................

 iter      E             dE          RMSdq      gap      omega  full diag
   1    -42.7082236 -0.427082E+02  0.529E-01    2.63       0.0  T
   2    -42.7114188 -0.319519E-02  0.515E-01    2.27       1.0  T
   3    -42.7164112 -0.499240E-02  0.148E-01    2.31       1.0  T
   4    -42.7163581  0.531148E-04  0.103E-01    2.35       1.0  T
   5    -42.7164558 -0.977134E-04  0.132E-02    2.33       1.5  T
   6    -42.7164579 -0.208288E-05  0.619E-03    2.33       3.2  T
   7    -42.7164581 -0.195829E-06  0.281E-03    2.34       7.1  T
   8    -42.7164582 -0.100796E-06  0.655E-04    2.33      30.5  T
   9    -42.7164582 -0.465694E-08  0.294E-04    2.33      68.1  T
     SCC iter.                  ...        0 min,  0.022 sec
     gradient                   ...        0 min,  0.026 sec
 * total energy  :   -42.1547901 Eh     change       -0.2443851E-01 Eh
   gradient norm :     0.1164000 Eh/α   predicted    -0.2171692E-01 ( -11.14%)
   displ. norm   :     0.1176550 α      lambda       -0.9113225E-02
   maximum displ.:     0.0424672 α      in ANC's #47, #23, #18, ...

........................................................................
.............................. CYCLE    5 ..............................
........................................................................

 iter      E             dE          RMSdq      gap      omega  full diag
   1    -42.7355034 -0.427355E+02  0.218E-01    2.66       0.0  T
   2    -42.7364598 -0.956397E-03  0.177E-01    2.43       1.0  T
   3    -42.7369244 -0.464580E-03  0.649E-02    2.46       1.0  T
   4    -42.7369104  0.139147E-04  0.466E-02    2.47       1.0  T
   5    -42.7369324 -0.219257E-04  0.741E-03    2.46       2.7  T
   6    -42.7369327 -0.363126E-06  0.357E-03    2.47       5.6  T
   7    -42.7369328 -0.807151E-07  0.142E-03    2.47      14.1  T
   8    -42.7369328 -0.139058E-07  0.504E-04    2.47      39.7  T
   9    -42.7369328 -0.260918E-08  0.161E-04    2.47     123.9  T
     SCC iter.                  ...        0 min,  0.025 sec
     gradient                   ...        0 min,  0.026 sec
 * total energy  :   -42.1602234 Eh     change       -0.5433332E-02 Eh
   gradient norm :     0.0410531 Eh/α   predicted    -0.4619697E-02 ( -14.97%)
   displ. norm   :     0.0633668 α      lambda       -0.8827883E-03
   maximum displ.:     0.0362666 α      in ANC's #12, #1, #47, ...

........................................................................
.............................. CYCLE    6 ..............................
........................................................................

 iter      E             dE          RMSdq      gap      omega  full diag
   1    -42.7444363 -0.427444E+02  0.537E-02    2.56       0.0  T
   2    -42.7444537 -0.174341E-04  0.346E-02    2.52       1.0  T
   3    -42.7444559 -0.220424E-05  0.175E-02    2.53       1.1  T
   4    -42.7444563 -0.401853E-06  0.618E-03    2.53       3.2  T
   5    -42.7444572 -0.858850E-06  0.144E-03    2.53      13.9  T
   6    -42.7444572 -0.958701E-08  0.596E-04    2.53      33.6  T
   7    -42.7444572 -0.689020E-09  0.218E-04    2.53      91.7  T
     SCC iter.                  ...        0 min,  0.023 sec
     gradient                   ...        0 min,  0.025 sec
 * total energy  :   -42.1608360 Eh     change       -0.6125653E-03 Eh
   gradient norm :     0.0486604 Eh/α   predicted    -0.4431841E-03 ( -27.65%)
   displ. norm   :     0.0844690 α      lambda       -0.6768164E-03
   maximum displ.:     0.0544283 α      in ANC's #1, #12, #23, ...

........................................................................
.............................. CYCLE    7 ..............................
........................................................................

 iter      E             dE          RMSdq      gap      omega  full diag
   1    -42.7499160 -0.427499E+02  0.564E-02    2.55       0.0  T
   2    -42.7499218 -0.583764E-05  0.344E-02    2.56       1.0  T
   3    -42.7499237 -0.187818E-05  0.220E-02    2.56       1.0  T
   4    -42.7499285 -0.478918E-05  0.332E-03    2.56       6.0  T
   5    -42.7499286 -0.164147E-06  0.128E-03    2.56      15.6  T
   6    -42.7499286 -0.145693E-07  0.601E-04    2.56      33.3  T
   7    -42.7499286 -0.239921E-08  0.156E-04    2.56     128.1  T
     SCC iter.                  ...        0 min,  0.023 sec
     gradient                   ...        0 min,  0.013 sec
 * total energy  :   -42.1613317 Eh     change       -0.4957207E-03 Eh
   gradient norm :     0.0439466 Eh/α   predicted    -0.3408557E-03 ( -31.24%)
   displ. norm   :     0.1095823 α      lambda       -0.6297773E-03
   maximum displ.:     0.0863117 α      in ANC's #1, #12, #68, ...

........................................................................
.............................. CYCLE    8 ..............................
........................................................................

 iter      E             dE          RMSdq      gap      omega  full diag
   1    -42.7532881 -0.427533E+02  0.639E-02    2.54       0.0  T
   2    -42.7533017 -0.135759E-04  0.372E-02    2.56       1.0  T
   3    -42.7533075 -0.581144E-05  0.236E-02    2.56       1.0  T
   4    -42.7533117 -0.423866E-05  0.529E-03    2.56       3.8  T
   5    -42.7533122 -0.478672E-06  0.143E-03    2.56      14.0  T
   6    -42.7533122 -0.180203E-07  0.748E-04    2.56      26.7  T
   7    -42.7533122 -0.423970E-08  0.179E-04    2.56     111.5  T
     SCC iter.                  ...        0 min,  0.023 sec
     gradient                   ...        0 min,  0.026 sec
 * total energy  :   -42.1617732 Eh     change       -0.4414424E-03 Eh
   gradient norm :     0.0289254 Eh/α   predicted    -0.3186740E-03 ( -27.81%)
   displ. norm   :     0.1135214 α      lambda       -0.4296036E-03
   maximum displ.:     0.1013014 α      in ANC's #1, #12, #11, ...

........................................................................
.............................. CYCLE    9 ..............................
........................................................................

 iter      E             dE          RMSdq      gap      omega  full diag
   1    -42.7537455 -0.427537E+02  0.518E-02    2.51       0.0  T
   2    -42.7537503 -0.480829E-05  0.283E-02    2.53       1.0  T
   3    -42.7537488  0.147707E-05  0.173E-02    2.52       1.2  T
   4    -42.7537523 -0.349248E-05  0.332E-03    2.53       6.0  T
   5    -42.7537525 -0.207016E-06  0.137E-03    2.53      14.6  T
   6    -42.7537525 -0.538466E-08  0.644E-04    2.53      31.1  T
   7    -42.7537525 -0.508965E-08  0.134E-04    2.53     149.0  T
     SCC iter.                  ...        0 min,  0.010 sec
     gradient                   ...        0 min,  0.035 sec
 * total energy  :   -42.1620744 Eh     change       -0.3012916E-03 Eh
   gradient norm :     0.0139832 Eh/α   predicted    -0.2176082E-03 ( -27.77%)
   displ. norm   :     0.1254719 α      lambda       -0.2649552E-03
   maximum displ.:     0.1013879 α      in ANC's #1, #11, #2, ...

........................................................................
.............................. CYCLE   10 ..............................
........................................................................

 iter      E             dE          RMSdq      gap      omega  full diag
   1    -42.7517283 -0.427517E+02  0.589E-02    2.47       0.0  T
   2    -42.7517309 -0.265811E-05  0.335E-02    2.48       1.0  T
   3    -42.7517307  0.254264E-06  0.839E-03    2.48       2.4  T
   4    -42.7517316 -0.927201E-06  0.236E-03    2.48       8.5  T
   5    -42.7517316  0.173277E-08  0.129E-03    2.48      15.5  T
   6    -42.7517316 -0.175875E-07  0.267E-04    2.48      74.8  T
   7    -42.7517316 -0.740648E-09  0.813E-05    2.48     246.0  T
     SCC iter.                  ...        0 min,  0.010 sec
     gradient                   ...        0 min,  0.020 sec
 * total energy  :   -42.1622722 Eh     change       -0.1977072E-03 Eh
   gradient norm :     0.0069971 Eh/α   predicted    -0.1345701E-03 ( -31.93%)
   displ. norm   :     0.2236856 α      lambda       -0.2783517E-03
   maximum displ.:     0.1607431 α      in ANC's #1, #11, #2, ...

   *** GEOMETRY OPTIMIZATION CONVERGED AFTER 10 ITERATIONS ***

------------------------------------------------------------------------
 total energy gain   :        -0.9936770 Eh     -623.5417 kcal/mol
 total RMSD          :         0.1966412 a0        0.1041 Å
 total power (kW/mol):      -260.8898607 (step)-4538.8822 (real)
------------------------------------------------------------------------

 ANCopt (total)                0 d,  0 h,  0 min,  0.575 sec
 optimizer setup                ...        0 min,  0.000 sec (  0.061%)
 model hessian                  ...        0 min,  0.006 sec (  1.110%)
 ANC generation                 ...        0 min,  0.001 sec (  0.149%)
 coordinate transformation      ...        0 min,  0.000 sec (  0.015%)
 single point calculation       ...        0 min,  0.551 sec ( 95.862%)
 optimization log               ...        0 min,  0.014 sec (  2.454%)
 hessian update                 ...        0 min,  0.000 sec (  0.020%)
 rational function              ...        0 min,  0.001 sec (  0.225%)

================
 final structure:
================
25
 xtb: 6.6.1 (8d0f1dd)
C            2.94935021000708        1.05186141582150        0.73192695241988
N            2.27549850238558       -0.00601330698781       -0.02214681934110
C            2.93241210744372       -0.82414391583482       -0.71328592604498
N            3.49709817437178       -1.64024193671713       -1.32602840989029
C            0.19029321767553       -1.23896920236087        0.22723389477280
C            0.84382699718251       -0.07210923630266       -0.00075051369122
C            0.10385847843687        1.16629917878626       -0.25593165760690
O            0.62268674751642        2.22835920678208       -0.51615689391501
N           -1.26631006212364        1.00499807847554       -0.16774694761127
C           -2.11005444115568        2.17608860200327       -0.36803416942731
C           -1.94964421898551       -0.17222927974378        0.06085412126857
O           -3.14602566210703       -0.23250753733186        0.09676343815897
N           -1.14740092588791       -1.31055965365428        0.25322639132698
C           -1.81594056417873       -2.57973317051953        0.46440859312396
H            2.69040089423058        0.95208380884967        1.78591694213341
H            4.02652121118951        0.97377736695972        0.60824709421406
H            2.60098511069146        2.01841942395487        0.36233472589741
H            4.08342193970699       -2.21401732564663       -1.88931782859486
H           -1.46681299567056        3.04200954357123       -0.49771956166090
H           -2.73446453266914        2.03348705971664       -1.24899831109533
H           -2.75770218968094        2.30601978793590        0.49777630988548
H           -1.42717902235007       -3.06999394074347        1.35524432959310
H           -1.67917957046158       -3.22872811240700       -0.40112288070096
H           -2.87876178909748       -2.38048168222202        0.59258776671903
H            0.72355389762935       -2.16543663078589        0.40189097796848

 Bond Distances (Angstroems)
 ---------------------------
C1-N2=1.4635         C1-H15=1.0899        C1-H16=1.0871        C1-H17=1.0919        N2-C1=1.4635         N2-C3=1.2564         
N2-C6=1.4334         C3-N2=1.2564         C3-N4=1.1663         N4-C3=1.1663         N4-H18=0.9951        C5-C6=1.3567         
C5-N13=1.3399        C5-H25=1.0832        C6-N2=1.4334         C6-C5=1.3567         C6-C7=1.4650         C7-C6=1.4650         
C7-O8=1.2103         C7-N9=1.3824         O8-C7=1.2103         N9-C7=1.3824         N9-C10=1.4572        N9-C11=1.3802        
C10-N9=1.4572        C10-H19=1.0865       C10-H20=1.0892       C10-H21=1.0890       C11-N9=1.3802        C11-O12=1.1984       
C11-N13=1.4058       O12-C11=1.1984       N13-C5=1.3399        N13-C11=1.4058       N13-C14=1.4499       C14-N13=1.4499       
C14-H22=1.0886       C14-H23=1.0904       C14-H24=1.0889       H15-C1=1.0899        H16-C1=1.0871        H17-C1=1.0919        
H18-N4=0.9951        H19-C10=1.0865       H20-C10=1.0892       H21-C10=1.0890       H22-C14=1.0886       H23-C14=1.0904       
H24-C14=1.0889       H25-C5=1.0832        
 C  H  Rav=1.0885 sigma=0.0023  Rmin=1.0832  Rmax=1.0919    10
 C  C  Rav=1.4109 sigma=0.0542  Rmin=1.3567  Rmax=1.4650     2
 N  H  Rav=0.9951 sigma=0.0000  Rmin=0.9951  Rmax=0.9951     1
 N  C  Rav=1.3735 sigma=0.0914  Rmin=1.1663  Rmax=1.4635    10
 O  C  Rav=1.2044 sigma=0.0059  Rmin=1.1984  Rmax=1.2103     2

 selected bond angles (degree)
 --------------------
H15-C1-N2=108.83               H16-C1-N2=110.23               H16-C1-H15=109.81              H17-C1-N2=108.58               
H17-C1-H15=109.43              H17-C1-H16=109.95              C3-N2-C1=120.89                C6-N2-C1=119.05                
C6-N2-C3=120.03                N4-C3-N2=176.17                H18-N4-C3=170.43               N13-C5-C6=122.02               
H25-C5-C6=121.71               H25-C5-N13=116.28              C5-C6-N2=121.55                C7-C6-N2=117.58                
C7-C6-C5=120.86                O8-C7-C6=124.24                N9-C7-C6=113.01                N9-C7-O8=122.75                
C10-N9-C7=118.12               C11-N9-C7=126.92               C11-N9-C10=114.93              H19-C10-N9=108.31              
H20-C10-N9=109.75              H20-C10-H19=110.32             H21-C10-N9=109.33              H21-C10-H19=110.60             
H21-C10-H20=108.53             

 selected dihedral angles (degree)
 ---------------------------------
C3-N2-C1-H15=237.96           C3-N2-C1-H16=358.44           C3-N2-C1-H17=118.93           C6-N2-C1-H15= 60.09           
C6-N2-C1-H16=180.56           C6-N2-C1-H17=301.06           N4-C3-N2-C1=136.11            N4-C3-N2-C6=313.97            
H18-N4-C3-N2=187.29           C5-C6-N2-C1=227.55            C5-C6-N2-C3= 49.65            C7-C6-N2-C1= 48.50            
C7-C6-N2-C3=230.61            N2-C6-C5-N13=179.80           N2-C6-C5-H25=  0.00           C7-C6-C5-N13=358.81           
C7-C6-C5-H25=179.02           O8-C7-C6-N2=  1.98            O8-C7-C6-C5=182.92            N9-C7-C6-N2=182.08            
N9-C7-C6-C5=  3.02            C10-N9-C7-C6=178.45           C10-N9-C7-O8=358.55           C11-N9-C7-C6=356.66           
C11-N9-C7-O8=176.76           H19-C10-N9-C7=356.18          H19-C10-N9-C11=177.76         H20-C10-N9-C7=116.67          
H20-C10-N9-C11=298.25         H21-C10-N9-C7=235.60          H21-C10-N9-C11= 57.17         
           -------------------------------------------------
          |                Final Singlepoint                |
           -------------------------------------------------

          ...................................................
          :                      SETUP                      :
          :.................................................:
          :  # basis functions                  67          :
          :  # atomic orbitals                  67          :
          :  # shells                           39          :
          :  # electrons                        74          :
          :  max. iterations                   250          :
          :  Hamiltonian                  GFN2-xTB          :
          :  restarted?                      false          :
          :  GBSA solvation                  false          :
          :  PC potential                    false          :
          :  electronic temp.         2500.0000000     K    :
          :  accuracy                    1.0000000          :
          :  -> integral cutoff          0.2500000E+02      :
          :  -> integral neglect         0.1000000E-07      :
          :  -> SCF convergence          0.1000000E-05 Eh   :
          :  -> wf. convergence          0.1000000E-03 e    :
          :  Broyden damping             0.4000000          :
          ...................................................

 iter      E             dE          RMSdq      gap      omega  full diag
   1    -42.7517316 -0.427517E+02  0.373E-05    2.48       0.0  T
   2    -42.7517316 -0.420641E-11  0.232E-05    2.48     861.7  T
   3    -42.7517316 -0.844835E-11  0.132E-05    2.48    1514.5  T

   *** convergence criteria satisfied after 3 iterations ***

         #    Occupation            Energy/Eh            Energy/eV
      -------------------------------------------------------------
         1        2.0000           -0.8948891             -24.3512
       ...           ...                  ...                  ...
        31        2.0000           -0.6101033             -16.6018
        32        2.0000           -0.6032262             -16.4146
        33        2.0000           -0.5879366             -15.9986
        34        1.9995           -0.5599880             -15.2380
        35        1.9983           -0.5500228             -14.9669
        36        1.9980           -0.5486253             -14.9289
        37        1.9954           -0.5421637             -14.7530 (HOMO)
        38        0.0087           -0.4510382             -12.2734 (LUMO)
        39        0.0001           -0.4164640             -11.3326
        40        0.0000           -0.3884738             -10.5709
        41        0.0000           -0.3610030              -9.8234
        42                         -0.2817348              -7.6664
       ...                                ...                  ...
        67                          1.1178690              30.4188
      -------------------------------------------------------------
                  HL-Gap            0.0911254 Eh            2.4796 eV
             Fermi-level           -0.4940556 Eh          -13.4439 eV

 SCC (total)                   0 d,  0 h,  0 min,  0.036 sec
 SCC setup                      ...        0 min,  0.000 sec (  0.540%)
 Dispersion                     ...        0 min,  0.000 sec (  0.527%)
 classical contributions        ...        0 min,  0.000 sec (  0.199%)
 integral evaluation            ...        0 min,  0.005 sec ( 13.572%)
 iterations                     ...        0 min,  0.005 sec ( 13.014%)
 molecular gradient             ...        0 min,  0.026 sec ( 71.759%)
 printout                       ...        0 min,  0.000 sec (  0.351%)

         :::::::::::::::::::::::::::::::::::::::::::::::::::::
         ::                     SUMMARY                     ::
         :::::::::::::::::::::::::::::::::::::::::::::::::::::
         :: total energy             -42.162272151178 Eh    ::
         :: gradient norm              0.006999628124 Eh/a0 ::
         :: HOMO-LUMO gap              2.479649478382 eV    ::
         ::.................................................::
         :: SCC energy               -42.751731613231 Eh    ::
         :: -> isotropic ES            0.150414653707 Eh    ::
         :: -> anisotropic ES         -0.013682760962 Eh    ::
         :: -> anisotropic XC          0.026391887382 Eh    ::
         :: -> dispersion             -0.021757411469 Eh    ::
         :: repulsion energy           0.589325882961 Eh    ::
         :: add. restraining           0.000000000000 Eh    ::
         :: total charge               1.000000000000 e     ::
         :::::::::::::::::::::::::::::::::::::::::::::::::::::

           -------------------------------------------------
          |                Property Printout                |
           -------------------------------------------------

    * Orbital Energies and Occupations

         #    Occupation            Energy/Eh            Energy/eV
      -------------------------------------------------------------
         1        2.0000           -0.8948891             -24.3512
       ...           ...                  ...                  ...
        25        2.0000           -0.6601245             -17.9629
        26        2.0000           -0.6539372             -17.7945
        27        2.0000           -0.6473438             -17.6151
        28        2.0000           -0.6380484             -17.3622
        29        2.0000           -0.6224934             -16.9389
        30        2.0000           -0.6122091             -16.6591
        31        2.0000           -0.6101033             -16.6018
        32        2.0000           -0.6032262             -16.4146
        33        2.0000           -0.5879366             -15.9986
        34        1.9995           -0.5599880             -15.2380
        35        1.9983           -0.5500228             -14.9669
        36        1.9980           -0.5486253             -14.9289
        37        1.9954           -0.5421637             -14.7530 (HOMO)
        38        0.0087           -0.4510382             -12.2734 (LUMO)
        39        0.0001           -0.4164640             -11.3326
        40        0.0000           -0.3884738             -10.5709
        41        0.0000           -0.3610030              -9.8234
        42                         -0.2817348              -7.6664
        43                         -0.2430397              -6.6134
        44                         -0.1719322              -4.6785
        45                         -0.1365621              -3.7160
        46                         -0.1076733              -2.9299
        47                         -0.0582244              -1.5844
        48                         -0.0417388              -1.1358
       ...                                ...                  ...
        67                          1.1178690              30.4188
      -------------------------------------------------------------
                  HL-Gap            0.0911254 Eh            2.4796 eV
             Fermi-level           -0.4940556 Eh          -13.4439 eV

     #   Z          covCN         q      C6AA      α(0)
     1   6 C        3.709    -0.081    22.191     6.733
     2   7 N        2.732     0.069    20.034     6.648
     3   6 C        1.885     0.218    26.004     8.236
     4   7 N        1.773    -0.102    23.970     7.250
     5   6 C        2.856     0.021    27.530     8.600
     6   6 C        2.931    -0.023    28.577     8.767
     7   6 C        2.769     0.270    22.439     7.758
     8   8 O        0.858    -0.398    21.641     6.237
     9   7 N        2.743    -0.082    22.843     7.098
    10   6 C        3.710    -0.059    21.784     6.670
    11   6 C        2.725     0.316    21.627     7.613
    12   8 O        0.859    -0.369    21.077     6.155
    13   7 N        2.744    -0.028    21.785     6.932
    14   6 C        3.702    -0.073    22.066     6.717
    15   1 H        0.925     0.105     1.740     2.063
    16   1 H        0.925     0.095     1.833     2.117
    17   1 H        0.924     0.143     1.440     1.877
    18   1 H        0.861     0.307     0.692     1.303
    19   1 H        0.925     0.108     1.717     2.049
    20   1 H        0.925     0.093     1.853     2.129
    21   1 H        0.925     0.095     1.835     2.119
    22   1 H        0.925     0.086     1.920     2.167
    23   1 H        0.924     0.085     1.924     2.169
    24   1 H        0.925     0.122     1.596     1.976
    25   1 H        0.925     0.083     1.952     2.185

 Mol. C6AA /au·bohr⁶  :       6593.521962
 Mol. C8AA /au·bohr⁸  :     151250.047485
 Mol. α(0) /au        :        123.565621


Wiberg/Mayer (AO) data.
largest (>0.10) Wiberg bond orders for each atom

 ---------------------------------------------------------------------------
     #   Z sym  total        # sym  WBO       # sym  WBO       # sym  WBO
 ---------------------------------------------------------------------------
     1   6 C    3.902 --    16 H    0.976    15 H    0.967    17 H    0.948
                             2 N    0.920
     2   7 N    3.626 --     3 C    1.488     6 C    0.942     1 C    0.920
                             4 N    0.223
     3   6 C    3.943 --     4 N    2.328     2 N    1.488
     4   7 N    3.551 --     3 C    2.328    18 H    0.883     2 N    0.223
     5   6 C    3.972 --     6 C    1.564    13 N    1.282    25 H    0.953
     6   6 C    3.900 --     5 C    1.564     7 C    1.053     2 N    0.942
     7   6 C    3.964 --     8 O    1.675     9 N    1.127     6 C    1.053
     8   8 O    2.041 --     7 C    1.675     9 N    0.154
     9   7 N    3.582 --     7 C    1.127    11 C    1.120    10 C    0.968
                             8 O    0.154    12 O    0.143
    10   6 C    3.924 --    19 H    0.971     9 N    0.968    21 H    0.968
                            20 H    0.967
    11   6 C    3.961 --    12 O    1.708     9 N    1.120    13 N    1.043
    12   8 O    2.069 --    11 C    1.708     9 N    0.143    13 N    0.118
    13   7 N    3.622 --     5 C    1.282    11 C    1.043    14 C    0.977
                            12 O    0.118
    14   6 C    3.927 --    13 N    0.977    22 H    0.972    23 H    0.969
                            24 H    0.966
    15   1 H    0.989 --     1 C    0.967
    16   1 H    0.990 --     1 C    0.976
    17   1 H    0.979 --     1 C    0.948
    18   1 H    0.905 --     4 N    0.883
    19   1 H    0.988 --    10 C    0.971
    20   1 H    0.991 --    10 C    0.967
    21   1 H    0.990 --    10 C    0.968
    22   1 H    0.990 --    14 C    0.972
    23   1 H    0.990 --    14 C    0.969
    24   1 H    0.985 --    14 C    0.966
    25   1 H    0.993 --     5 C    0.953
 ---------------------------------------------------------------------------

Topologies differ in total number of bonds
Writing topology from bond orders to xtbtopo.mol

molecular dipole:
                 x           y           z       tot (Debye)
 q only:        3.719      -2.124      -0.340
   full:        4.053      -2.489      -0.416      12.136
molecular quadrupole (traceless):
                xx          xy          yy          xz          yz          zz
 q only:       19.770     -12.467      -3.046      -7.958       6.551     -16.725
  q+dip:       18.136     -16.071      -4.306      -9.721       8.009     -13.830
   full:       17.767     -14.928      -5.130      -8.746       7.870     -12.637

           -------------------------------------------------
          |                Geometry Summary                 |
           -------------------------------------------------

      molecular mass/u    :      195.1988581
   center of mass at/Å    :        0.1106905      -0.0157440      -0.1078815
  moments of inertia/u·Å² :        0.4594401E+03   0.9403490E+03   0.1298067E+04
rotational constants/cm⁻¹ :        0.3669169E-01   0.1792700E-01   0.1298672E-01

 * 23 selected distances

     #   Z          #   Z                                           value/Å
     1   6 C        2   7 N                                       1.4634899 (max)
     2   7 N        3   6 C                                       1.2564023
     3   6 C        4   7 N                                       1.1663361
     5   6 C        6   6 C                                       1.3567040
     7   6 C        8   8 O                                       1.2103189
     7   6 C        9   7 N                                       1.3824459
     9   7 N       10   6 C                                       1.4572141
     9   7 N       11   6 C                                       1.3802422
    11   6 C       12   8 O                                       1.1984372
     5   6 C       13   7 N                                       1.3398607
    11   6 C       13   7 N                                       1.4058442
    13   7 N       14   6 C                                       1.4499465
     1   6 C       15   1 H                                       1.0899107
     1   6 C       16   1 H                                       1.0870563
     1   6 C       17   1 H                                       1.0918751
     4   7 N       18   1 H                                       0.9951326 (min)
    10   6 C       19   1 H                                       1.0864608
    10   6 C       20   1 H                                       1.0891837
    10   6 C       21   1 H                                       1.0890169
    14   6 C       22   1 H                                       1.0886137
    14   6 C       23   1 H                                       1.0904325
    14   6 C       24   1 H                                       1.0889078
     5   6 C       25   1 H                                       1.0831501

 * 5 distinct bonds (by element types)

   Z      Z             #   av. dist./Å        max./Å        min./Å
   1 H    6 C          10     1.0884608     1.0918751     1.0831501
   6 C    6 C           1     1.3567040     1.3567040     1.3567040
   1 H    7 N           1     0.9951326     0.9951326     0.9951326
   6 C    7 N           9     1.3668647     1.4634899     1.1663361
   6 C    8 O           2     1.2043780     1.2103189     1.1984372


optimized geometry written to: xtbopt.xyz


           -------------------------------------------------
          | TOTAL ENERGY              -42.162272151178 Eh   |
          | GRADIENT NORM               0.006999628124 Eh/α |
          | HOMO-LUMO GAP               2.479649478382 eV   |
           -------------------------------------------------

------------------------------------------------------------------------
 * finished run on 2024/06/05 at 19:58:11.805     
------------------------------------------------------------------------
 total:
 * wall-time:     0 d,  0 h,  0 min,  0.721 sec
 *  cpu-time:     0 d,  0 h,  0 min,  0.360 sec
 * ratio c/w:     0.499 speedup
 SCF:
 * wall-time:     0 d,  0 h,  0 min,  0.038 sec
 *  cpu-time:     0 d,  0 h,  0 min,  0.025 sec
 * ratio c/w:     0.655 speedup
 ANC optimizer:
 * wall-time:     0 d,  0 h,  0 min,  0.651 sec
 *  cpu-time:     0 d,  0 h,  0 min,  0.323 sec
 * ratio c/w:     0.496 speedup

