25
 energy: 105.469876177979 xtb: 6.6.1 (8d0f1dd)
C            3.28423425628230        1.17240596889758        0.05164640405394
N            2.31565423453098        0.10241695044110        0.02997424097018
C            2.67243358537716       -1.17115611546100       -0.01008587285437
N            1.58268858129697       -1.94966808654669        0.03436704856186
C            0.41855380984139       -1.12110615172445        0.13355258572246
C            0.95534476326273        0.20211598411482        0.11612208670227
C            0.16984937693594        1.44968762943800        0.10798602400345
O            0.73854191533953        2.55070514627316        0.08775313023156
N           -1.14181739202167        1.22676264690722        0.07017150961005
C           -2.06436292055568        2.29253129692553        0.18700824062040
C           -3.13481530882848       -0.55474607632223       -1.59201912340577
O           -4.20819519904380       -0.28297982084602       -1.38572201152011
N           -0.78335337968321       -1.47309018893069        0.31898174948388
C           -1.32349745251241       -2.77996825133281        0.24355961835523
H            3.77082893042339        1.22108895104197        1.02787194517379
H            4.04593894035284        0.99835494165320       -0.70905719036094
H            2.76535308571460        2.11543756134172       -0.12179221722282
H            3.68532039862670       -1.52902946952303       -0.03173397348475
H           -1.56913386396313        3.25829784885770        0.26567764312748
H           -2.72974313347708        2.27593506446004       -0.68412597712729
H           -2.67960236528323        2.11487374035380        1.07607251893157
H           -0.74409137357384       -3.48947828755619        0.84125069901954
H           -1.38146584398746       -3.14805496633029       -0.78624428618202
H           -2.32703218471665       -2.68484505497776        0.65426018523566
H            1.58175553541268       -2.95660690638758        0.02192047107526
