25
 energy: -42.099299626784 gnorm: 0.009063340193 xtb: 6.6.1 (8d0f1dd)
C            2.88329139007036        1.13254934318298        0.15885953620698
N            1.94595856127524        0.03275943422507       -0.00282294043047
C            2.44915419694446       -1.18186145948274       -0.11335467012612
N            1.78913181926754       -2.37346897812665       -0.21361893034148
C            0.50685359117679       -2.77126254405400       -0.12412279526469
C            0.58071408252876        0.31607702464033        0.00195339651705
C           -0.01109621979343        1.65648849585697       -0.01966974151329
O            0.49264369354646        2.75688897365228       -0.04837628566649
N           -1.36199231918491        1.43131065511107       -0.00448439144300
C           -2.42125814675860        2.39463602654409       -0.05519334768480
C           -0.48234207520532       -0.56926663881092        0.01078269118916
O           -1.65982209186953        0.09016837278422        0.01470018572681
N           -0.53033561629131       -1.95223039107018        0.00388524554427
C           -1.83529194163424       -2.60033595813892        0.09906572333300
H            3.32540617855302        1.10281559473329        1.15624245288135
H            3.67714823378366        1.06303823181337       -0.58352447531241
H            2.36441729159489        2.08283717809106        0.03674550678787
H            3.52811507110644       -1.24725106173390       -0.11933247127333
H           -1.93864039587174        3.37081793362902       -0.07098868699397
H           -3.02166021295737        2.25786709373089       -0.95702695561401
H           -3.06244514072191        2.30543468896747        0.82447496327483
H           -1.82405265540266       -3.30372099155399        0.93071118362356
H           -2.03618081284806       -3.15361185586829       -0.81822368963130
H           -2.61518288859254       -1.86005300365724        0.25469290485671
H            2.41789792138304       -3.16238762286451       -0.33020279074727
