      -----------------------------------------------------------      
     |                   =====================                   |     
     |                           x T B                           |     
     |                   =====================                   |     
     |                         S. Grimme                         |     
     |          Mulliken Center for Theoretical Chemistry        |     
     |                    University of Bonn                     |     
      -----------------------------------------------------------      

   * xtb version 6.6.1 (8d0f1dd) compiled by 'conda@1efc2f54142f' on 2023-08-01

   xtb is free software: you can redistribute it and/or modify it under
   the terms of the GNU Lesser General Public License as published by
   the Free Software Foundation, either version 3 of the License, or
   (at your option) any later version.
   
   xtb is distributed in the hope that it will be useful,
   but WITHOUT ANY WARRANTY; without even the implied warranty of
   MERCHANTABILITY or FITNESS FOR A PARTICULAR PURPOSE.  See the
   GNU Lesser General Public License for more details.
   
   Cite this work as:
   * C. Bannwarth, E. Caldeweyher, S. Ehlert, A. Hansen, P. Pracht,
     J. Seibert, S. Spicher, S. Grimme, WIREs Comput. Mol. Sci., 2020, 11,
     e01493. DOI: 10.1002/wcms.1493
   
   for GFN2-xTB:
   * C. Bannwarth, S. Ehlert and S. Grimme., J. Chem. Theory Comput., 2019,
     15, 1652-1671. DOI: 10.1021/acs.jctc.8b01176
   for GFN1-xTB:
   * S. Grimme, C. Bannwarth, P. Shushkov, J. Chem. Theory Comput., 2017,
     13, 1989-2009. DOI: 10.1021/acs.jctc.7b00118
   for GFN0-xTB:
   * P. Pracht, E. Caldeweyher, S. Ehlert, S. Grimme, ChemRxiv, 2019, preprint.
     DOI: 10.26434/chemrxiv.8326202.v1
   for GFN-FF:
   * S. Spicher and S. Grimme, Angew. Chem. Int. Ed., 2020, 59, 15665-15673.
     DOI: 10.1002/anie.202004239
   
   for ALPB and GBSA implicit solvation:
   * S. Ehlert, M. Stahn, S. Spicher, S. Grimme, J. Chem. Theory Comput.,
     2021, 17, 4250-4261. DOI: 10.1021/acs.jctc.1c00471
   
   for DFT-D4:
   * E. Caldeweyher, C. Bannwarth and S. Grimme, J. Chem. Phys., 2017,
     147, 034112. DOI: 10.1063/1.4993215
   * E. Caldeweyher, S. Ehlert, A. Hansen, H. Neugebauer, S. Spicher,
     C. Bannwarth and S. Grimme, J. Chem. Phys., 2019, 150, 154122.
     DOI: 10.1063/1.5090222
   * E. Caldeweyher, J.-M. Mewes, S. Ehlert and S. Grimme, Phys. Chem. Chem. Phys.
     2020, 22, 8499-8512. DOI: 10.1039/D0CP00502A
   
   for sTDA-xTB:
   * S. Grimme and C. Bannwarth, J. Chem. Phys., 2016, 145, 054103.
     DOI: 10.1063/1.4959605
   
   in the mass-spec context:
   * V. Asgeirsson, C. Bauer and S. Grimme, Chem. Sci., 2017, 8, 4879.
     DOI: 10.1039/c7sc00601b
   * J. Koopman and S. Grimme, ACS Omega 2019, 4, 12, 15120-15133.
     DOI: 10.1021/acsomega.9b02011
   
   for metadynamics refer to:
   * S. Grimme, J. Chem. Theory Comput., 2019, 155, 2847-2862
     DOI: 10.1021/acs.jctc.9b00143
   
   for SPH calculations refer to:
   * S. Spicher and S. Grimme, J. Chem. Theory Comput., 2021, 17, 1701-1714
     DOI: 10.1021/acs.jctc.0c01306
   
   with help from (in alphabetical order)
   P. Atkinson, C. Bannwarth, F. Bohle, G. Brandenburg, E. Caldeweyher
   M. Checinski, S. Dohm, S. Ehlert, S. Ehrlich, I. Gerasimov, C. Hölzer
   A. Katbashev, J. Koopman, C. Lavigne, S. Lehtola, F. März, M. Müller,
   F. Musil, H. Neugebauer, J. Pisarek, C. Plett, P. Pracht, F. Pultar,
   J. Seibert, P. Shushkov, S. Spicher, M. Stahn, M. Steiner, T. Strunk,
   J. Stückrath, T. Rose, and J. Unsleber
   
 * started run on 2024/06/05 at 20:00:12.892     

           -------------------------------------------------
          |                Calculation Setup                |
           -------------------------------------------------

          program call               : xtb struc.xyz --opt loose --input .xc1 --gfn2
          hostname                   : n-62-11-66
          coordinate file            : struc.xyz
          omp threads                :                     1

   ID    Z sym.   atoms
    1    6 C      1, 3, 5-7, 10, 11, 14
    2    7 N      2, 4, 9, 13
    3    8 O      8, 12
    4    1 H      15-25
constraining bond 7 10 to    5.0000000 Å, actual value:    2.4325910 Å

           -------------------------------------------------
          |                 G F N 2 - x T B                 |
           -------------------------------------------------

        Reference                      10.1021/acs.jctc.8b01176
      * Hamiltonian:
        H0-scaling (s, p, d)           1.850000    2.230000    2.230000
        zeta-weighting                 0.500000
      * Dispersion:
        s8                             2.700000
        a1                             0.520000
        a2                             5.000000
        s9                             5.000000
      * Repulsion:
        kExp                           1.500000    1.000000
        rExp                           1.000000
      * Coulomb:
        alpha                          2.000000
        third order                    shell-resolved
        anisotropic                    true
        a3                             3.000000
        a5                             4.000000
        cn-shift                       1.200000
        cn-exp                         4.000000
        max-rad                        5.000000


          ...................................................
          :                      SETUP                      :
          :.................................................:
          :  # basis functions                  67          :
          :  # atomic orbitals                  67          :
          :  # shells                           39          :
          :  # electrons                        74          :
          :  max. iterations                   250          :
          :  Hamiltonian                  GFN2-xTB          :
          :  restarted?                      false          :
          :  GBSA solvation                  false          :
          :  PC potential                    false          :
          :  electronic temp.         5000.0000000     K    :
          :  accuracy                    1.0000000          :
          :  -> integral cutoff          0.2500000E+02      :
          :  -> integral neglect         0.1000000E-07      :
          :  -> SCF convergence          0.1000000E-05 Eh   :
          :  -> wf. convergence          0.1000000E-03 e    :
          :  Broyden damping             0.4000000          :
          ...................................................

 iter      E             dE          RMSdq      gap      omega  full diag
   1    -42.5894031 -0.425894E+02  0.445E+00    3.52       0.0  T
   2    -42.7683054 -0.178902E+00  0.251E+00    3.36       1.0  T
   3    -42.7759211 -0.761567E-02  0.147E+00    3.35       1.0  T
   4    -42.7728404  0.308066E-02  0.553E-01    3.33       1.0  T
   5    -42.7789548 -0.611444E-02  0.112E-01    3.35       1.0  T
   6    -42.7790473 -0.924914E-04  0.614E-02    3.33       1.0  T
   7    -42.7790721 -0.247928E-04  0.258E-02    3.34       1.0  T
   8    -42.7790772 -0.508996E-05  0.938E-03    3.34       2.1  T
   9    -42.7790779 -0.669422E-06  0.448E-03    3.34       4.5  T
  10    -42.7790780 -0.821510E-07  0.115E-03    3.34      17.4  T
  11    -42.7790780 -0.322663E-08  0.553E-04    3.34      36.2  T
  12    -42.7790780 -0.287051E-08  0.180E-04    3.34     111.1  T

   *** convergence criteria satisfied after 12 iterations ***

         #    Occupation            Energy/Eh            Energy/eV
      -------------------------------------------------------------
         1        2.0000           -0.9185990             -24.9964
       ...           ...                  ...                  ...
        31        1.9996           -0.6230278             -16.9534
        32        1.9995           -0.6194601             -16.8564
        33        1.9979           -0.5974976             -16.2587
        34        1.9932           -0.5789629             -15.7544
        35        1.9817           -0.5631863             -15.3251
        36        1.9779           -0.5602245             -15.2445
        37        1.9748           -0.5581234             -15.1873 (HOMO)
        38        0.0652           -0.4353579             -11.8467 (LUMO)
        39        0.0099           -0.4050467             -11.0219
        40        0.0013           -0.3732218             -10.1559
        41        0.0000           -0.2886859              -7.8555
        42                         -0.2065804              -5.6213
       ...                                ...                  ...
        67                          0.5625656              15.3082
      -------------------------------------------------------------
                  HL-Gap            0.1227656 Eh            3.3406 eV
             Fermi-level           -0.4890455 Eh          -13.3076 eV

 SCC (total)                   0 d,  0 h,  0 min,  0.058 sec
 SCC setup                      ...        0 min,  0.000 sec (  0.415%)
 Dispersion                     ...        0 min,  0.000 sec (  0.438%)
 classical contributions        ...        0 min,  0.000 sec (  0.128%)
 integral evaluation            ...        0 min,  0.004 sec (  7.682%)
 iterations                     ...        0 min,  0.029 sec ( 50.195%)
 molecular gradient             ...        0 min,  0.024 sec ( 40.827%)
 printout                       ...        0 min,  0.000 sec (  0.301%)

         :::::::::::::::::::::::::::::::::::::::::::::::::::::
         ::                     SUMMARY                     ::
         :::::::::::::::::::::::::::::::::::::::::::::::::::::
         :: total energy               4.830116540689 Eh    ::
         :: gradient norm             27.447273466899 Eh/a0 ::
         :: HOMO-LUMO gap              3.340621582928 eV    ::
         ::.................................................::
         :: SCC energy               -42.779077977399 Eh    ::
         :: -> isotropic ES            0.141123876439 Eh    ::
         :: -> anisotropic ES         -0.005230418907 Eh    ::
         :: -> anisotropic XC          0.011966818540 Eh    ::
         :: -> dispersion             -0.022657731803 Eh    ::
         :: repulsion energy           0.531105277918 Eh    ::
         :: add. restraining          47.077975081160 Eh    ::
         :: total charge               1.000000000002 e     ::
         :::::::::::::::::::::::::::::::::::::::::::::::::::::

      ----------------------------------------------------------- 
     |                   =====================                   |
     |                        A N C O P T                        |
     |                   =====================                   |
     |               Approximate Normal Coordinate               |
     |                Rational Function Optimizer                |
      ----------------------------------------------------------- 

          ...................................................
          :                      SETUP                      :
          :.................................................:
          :   optimization level             loose          :
          :   max. optcycles                   200          :
          :   ANC micro-cycles                  20          :
          :   degrees of freedom                69          :
          :.................................................:
          :   RF solver                   davidson          :
          :   write xtbopt.log                true          :
          :   linear?                        false          :
          :   energy convergence         0.5000000E-04 Eh   :
          :   grad. convergence          0.4000000E-02 Eh/α :
          :   maxmium RF displ.          1.0000000          :
          :   Hlow (freq-cutoff)         0.1000000E-01      :
          :   Hmax (freq-cutoff)         5.0000000          :
          :   S6 in model hess.         20.0000000          :
          ...................................................

generating ANC from model Hessian ...
Using Lindh-Hessian (1995)
 Shifting diagonal of input Hessian by    7.8145880280139757     
 Lowest  eigenvalues of input Hessian
    0.010000    0.585884    0.000000    0.000000    0.000000    0.000000
    0.000000    0.000000    7.817414    7.820172    7.824126    7.824918
    7.825699    7.827788    7.831770    7.833143    7.839310    7.847678
 Highest eigenvalues
    9.943401   10.013177   10.057769   10.113602   10.327213   16.864965


........................................................................
.............................. CYCLE    1 ..............................
........................................................................

 iter      E             dE          RMSdq      gap      omega  full diag
   1    -42.7790780 -0.427791E+02  0.626E-05    3.34       0.0  T
   2    -42.7790780 -0.124416E-10  0.329E-05    3.34     607.4  T
   3    -42.7790780  0.127898E-12  0.193E-05    3.34    1034.2  T
     SCC iter.                  ...        0 min,  0.018 sec
     gradient                   ...        0 min,  0.025 sec
 * total energy  :     4.8301165 Eh     change       -0.6650680E-10 Eh
   gradient norm :    27.4472731 Eh/α   predicted     0.0000000E+00 (-100.00%)
   displ. norm   :     0.9130559 α      lambda        0.2996021E+01
   maximum displ.:     0.9113000 α      in ANC's #3, #10, #32, ...

........................................................................
.............................. CYCLE    2 ..............................
........................................................................

 iter      E             dE          RMSdq      gap      omega  full diag
   1    -42.6763752 -0.426764E+02  0.161E+00    2.67       0.0  T
   2    -42.6909371 -0.145619E-01  0.116E+00    1.96       1.0  T
   3    -42.7062087 -0.152716E-01  0.553E-01    2.44       1.0  T
   4    -42.7062459 -0.371276E-04  0.244E-01    2.23       1.0  T
   5    -42.7075703 -0.132447E-02  0.625E-02    2.36       1.0  T
   6    -42.7076346 -0.642717E-04  0.162E-02    2.35       1.2  T
   7    -42.7076346 -0.152685E-07  0.880E-03    2.35       2.3  T
   8    -42.7076357 -0.113542E-05  0.349E-03    2.35       5.7  T
   9    -42.7076360 -0.251566E-06  0.109E-03    2.35      18.4  T
  10    -42.7076360 -0.551786E-08  0.477E-04    2.35      41.9  T
  11    -42.7076360 -0.278695E-08  0.160E-04    2.35     125.1  T
     SCC iter.                  ...        0 min,  0.027 sec
     gradient                   ...        0 min,  0.018 sec
 * total energy  :   -16.7201215 Eh     change       -0.2155024E+02 Eh
   gradient norm :    19.7836574 Eh/α   predicted    -0.2297672E+02 (   6.62%)
   displ. norm   :     0.8109438 α      lambda       -0.1603399E+02
   maximum displ.:     0.8072703 α      in ANC's #3, #10, #32, ...

........................................................................
.............................. CYCLE    3 ..............................
........................................................................

 iter      E             dE          RMSdq      gap      omega  full diag
   1    -42.5203251 -0.425203E+02  0.149E+00    1.53       0.0  T
   2    -42.4899089  0.304162E-01  0.150E+00    1.22       1.0  T
   3    -42.5298563 -0.399474E-01  0.763E-01    1.55       1.0  T
   4    -42.5360171 -0.616079E-02  0.229E-01    1.36       1.0  T
   5    -42.5372104 -0.119335E-02  0.991E-02    1.48       1.0  T
   6    -42.5375617 -0.351290E-03  0.501E-02    1.43       1.0  T
   7    -42.5376047 -0.429564E-04  0.190E-02    1.44       1.1  T
   8    -42.5376073 -0.267815E-05  0.601E-03    1.44       3.3  T
   9    -42.5376081 -0.768142E-06  0.217E-03    1.44       9.2  T
  10    -42.5376082 -0.475680E-07  0.847E-04    1.44      23.6  T
  11    -42.5376082 -0.431741E-08  0.370E-04    1.44      54.1  T
     SCC iter.                  ...        0 min,  0.027 sec
     gradient                   ...        0 min,  0.024 sec
 * total energy  :   -30.0623918 Eh     change       -0.1334227E+02 Eh
   gradient norm :    13.1671166 Eh/α   predicted    -0.1329286E+02 (  -0.37%)
   displ. norm   :     0.7500341 α      lambda       -0.9792022E+01
   maximum displ.:     0.7297199 α      in ANC's #3, #2, #10, ...

........................................................................
.............................. CYCLE    4 ..............................
........................................................................

 iter      E             dE          RMSdq      gap      omega  full diag
   1    -42.3253787 -0.423254E+02  0.980E-01    1.05       0.0  T
   2    -42.3079328  0.174459E-01  0.106E+00    0.71       1.0  T
   3    -42.3247656 -0.168328E-01  0.531E-01    1.10       1.0  T
   4    -42.3256421 -0.876455E-03  0.319E-01    1.02       1.0  T
   5    -42.3240009  0.164116E-02  0.394E-01    0.90       1.0  T
   6    -42.3301008 -0.609991E-02  0.883E-02    0.96       1.0  T
   7    -42.3301600 -0.592054E-04  0.615E-02    0.96       1.0  T
   8    -42.3302721 -0.112036E-03  0.145E-02    0.97       1.4  T
   9    -42.3302783 -0.622332E-05  0.510E-03    0.97       3.9  T
  10    -42.3302786 -0.362238E-06  0.216E-03    0.97       9.2  T
  11    -42.3302787 -0.911251E-07  0.733E-04    0.97      27.3  T
  12    -42.3302787 -0.834858E-08  0.349E-04    0.97      57.2  T
     SCC iter.                  ...        0 min,  0.028 sec
     gradient                   ...        0 min,  0.024 sec
 * total energy  :   -37.7690601 Eh     change       -0.7706668E+01 Eh
   gradient norm :     7.4590036 Eh/α   predicted    -0.7666775E+01 (  -0.52%)
   displ. norm   :     0.6421833 α      lambda       -0.4675914E+01
   maximum displ.:     0.5907589 α      in ANC's #3, #2, #10, ...

........................................................................
.............................. CYCLE    5 ..............................
........................................................................

 iter      E             dE          RMSdq      gap      omega  full diag
   1    -42.1377865 -0.421378E+02  0.126E+00    0.63       0.0  T
   2    -42.0375456  0.100241E+00  0.173E+00    0.86       1.0  T
   3    -42.0321314  0.541419E-02  0.172E+00    0.48       1.0  T
   4    -42.1039006 -0.717692E-01  0.904E-01    0.83       1.0  T
   5    -42.1287671 -0.248665E-01  0.665E-01    0.53       1.0  T
   6    -42.1461795 -0.174124E-01  0.224E-01    0.72       1.0  T
   7    -42.1470228 -0.843277E-03  0.133E-01    0.71       1.0  T
   8    -42.1475423 -0.519549E-03  0.525E-02    0.72       1.0  T
   9    -42.1476356 -0.933235E-04  0.114E-02    0.73       1.8  T
  10    -42.1476385 -0.281184E-05  0.504E-03    0.73       4.0  T
  11    -42.1476387 -0.223339E-06  0.149E-03    0.73      13.4  T
  12    -42.1476387 -0.208204E-07  0.628E-04    0.73      31.8  T
  13    -42.1476387 -0.577986E-08  0.365E-04    0.73      54.9  T
     SCC iter.                  ...        0 min,  0.029 sec
     gradient                   ...        0 min,  0.011 sec
 * total energy  :   -40.9895076 Eh     change       -0.3220447E+01 Eh
   gradient norm :     2.7510497 Eh/α   predicted    -0.3302131E+01 (   2.54%)
   displ. norm   :     0.3901941 α      lambda       -0.9569088E+00
   maximum displ.:     0.3002340 α      in ANC's #3, #2, #8, ...

........................................................................
.............................. CYCLE    6 ..............................
........................................................................

 iter      E             dE          RMSdq      gap      omega  full diag
   1    -42.0535634 -0.420536E+02  0.991E-01    0.46       0.0  T
   2    -41.8315914  0.221972E+00  0.226E+00    0.80       1.0  T
   3    -41.9924459 -0.160854E+00  0.133E+00    0.38       1.0  T
   4    -42.0539636 -0.615177E-01  0.611E-01    0.50       1.0  T
   5    -42.0525478  0.141574E-02  0.549E-01    0.40       1.0  T
   6    -42.0646447 -0.120969E-01  0.200E-01    0.52       1.0  T
   7    -42.0652847 -0.640016E-03  0.125E-01    0.52       1.0  T
   8    -42.0656905 -0.405761E-03  0.509E-02    0.52       1.0  T
   9    -42.0657791 -0.886031E-04  0.152E-02    0.52       1.3  T
  10    -42.0657854 -0.629493E-05  0.797E-03    0.52       2.5  T
  11    -42.0657870 -0.160961E-05  0.339E-03    0.52       5.9  T
  12    -42.0657873 -0.271913E-06  0.105E-03    0.52      19.1  T
  13    -42.0657873 -0.239156E-07  0.355E-04    0.52      56.4  T
  14    -42.0657873  0.493991E-09  0.229E-04    0.52      87.5  T
     SCC iter.                  ...        0 min,  0.017 sec
     gradient                   ...        0 min,  0.011 sec
 * total energy  :   -41.5309242 Eh     change       -0.5414166E+00 Eh
   gradient norm :     0.4099635 Eh/α   predicted    -0.5513162E+00 (   1.83%)
   displ. norm   :     0.2573364 α      lambda       -0.6978101E-01
   maximum displ.:     0.2413739 α      in ANC's #2, #1, #8, ...

........................................................................
.............................. CYCLE    7 ..............................
........................................................................

 iter      E             dE          RMSdq      gap      omega  full diag
   1    -42.0665026 -0.420665E+02  0.676E-01    0.48       0.0  T
   2    -42.0225561  0.439464E-01  0.123E+00    0.54       1.0  T
   3    -42.0445992 -0.220431E-01  0.907E-01    0.54       1.0  T
   4    -42.0721967 -0.275975E-01  0.338E-01    0.46       1.0  T
   5    -42.0647486  0.744810E-02  0.472E-01    0.45       1.0  T
   6    -42.0755954 -0.108468E-01  0.889E-02    0.47       1.0  T
   7    -42.0758337 -0.238361E-03  0.284E-02    0.47       1.0  T
   8    -42.0758557 -0.219259E-04  0.124E-02    0.47       1.6  T
   9    -42.0758553  0.333016E-06  0.909E-03    0.47       2.2  T
  10    -42.0758578 -0.248229E-05  0.231E-03    0.47       8.6  T
  11    -42.0758579 -0.490904E-07  0.150E-03    0.47      13.3  T
  12    -42.0758579 -0.463956E-07  0.909E-04    0.47      22.0  T
  13    -42.0758579 -0.338937E-07  0.180E-04    0.47     111.2  T
     SCC iter.                  ...        0 min,  0.016 sec
     gradient                   ...        0 min,  0.011 sec
 * total energy  :   -41.5840792 Eh     change       -0.5315507E-01 Eh
   gradient norm :     0.3449716 Eh/α   predicted    -0.3729164E-01 ( -29.84%)
   displ. norm   :     0.3703604 α      lambda       -0.7216427E-01
   maximum displ.:     0.3395298 α      in ANC's #2, #8, #22, ...

........................................................................
.............................. CYCLE    8 ..............................
........................................................................

 iter      E             dE          RMSdq      gap      omega  full diag
   1    -42.0823616 -0.420824E+02  0.114E+00    0.49       0.0  T
   2    -41.8297736  0.252588E+00  0.256E+00    0.07       1.0  T
   3    -42.0696144 -0.239841E+00  0.102E+00    0.41       1.0  T
   4    -42.0937082 -0.240938E-01  0.816E-01    0.54       1.0  T
   5    -42.1145342 -0.208259E-01  0.311E-01    0.40       1.0  T
   6    -42.1159565 -0.142229E-02  0.139E-01    0.39       1.0  T
   7    -42.1166773 -0.720857E-03  0.583E-02    0.39       1.0  T
   8    -42.1167636 -0.862421E-04  0.151E-02    0.40       1.3  T
   9    -42.1167651 -0.151901E-05  0.109E-02    0.40       1.8  T
  10    -42.1167676 -0.248673E-05  0.454E-03    0.40       4.4  T
  11    -42.1167679 -0.359558E-06  0.209E-03    0.40       9.6  T
  12    -42.1167681 -0.175291E-06  0.809E-04    0.40      24.7  T
  13    -42.1167681 -0.130705E-07  0.357E-04    0.40      56.0  T
     SCC iter.                  ...        0 min,  0.016 sec
     gradient                   ...        0 min,  0.011 sec
 * total energy  :   -41.6334423 Eh     change       -0.4936303E-01 Eh
   gradient norm :     0.3959964 Eh/α   predicted    -0.4103146E-01 ( -16.88%)
   displ. norm   :     0.2594360 α      lambda       -0.3306062E-01
   maximum displ.:     0.1635435 α      in ANC's #2, #1, #3, ...

........................................................................
.............................. CYCLE    9 ..............................
........................................................................

 iter      E             dE          RMSdq      gap      omega  full diag
   1    -42.1423175 -0.421423E+02  0.725E-01    0.45       0.0  T
   2    -42.0520426  0.902749E-01  0.146E+00    0.15       1.0  T
   3    -42.1325310 -0.804884E-01  0.695E-01    0.35       1.0  T
   4    -42.1408302 -0.829920E-02  0.656E-01    0.50       1.0  T
   5    -42.1565752 -0.157450E-01  0.169E-01    0.37       1.0  T
   6    -42.1563095  0.265670E-03  0.974E-02    0.36       1.0  T
   7    -42.1566476 -0.338021E-03  0.352E-02    0.37       1.0  T
   8    -42.1566699 -0.223683E-04  0.133E-02    0.37       1.5  T
   9    -42.1566767 -0.682931E-05  0.509E-03    0.37       3.9  T
  10    -42.1566773 -0.554982E-06  0.182E-03    0.37      11.0  T
  11    -42.1566773 -0.198426E-07  0.106E-03    0.37      18.8  T
  12    -42.1566774 -0.398460E-07  0.335E-04    0.37      59.7  T
  13    -42.1566774 -0.152853E-08  0.170E-04    0.37     117.9  T
     SCC iter.                  ...        0 min,  0.016 sec
     gradient                   ...        0 min,  0.011 sec
 * total energy  :   -41.6527211 Eh     change       -0.1927885E-01 Eh
   gradient norm :     0.2620725 Eh/α   predicted    -0.1764418E-01 (  -8.48%)
   displ. norm   :     0.2996015 α      lambda       -0.1838477E-01
   maximum displ.:     0.2897904 α      in ANC's #1, #3, #9, ...

........................................................................
.............................. CYCLE   10 ..............................
........................................................................

 iter      E             dE          RMSdq      gap      omega  full diag
   1    -42.1776106 -0.421776E+02  0.493E-01    0.39       0.0  T
   2    -42.1386842  0.389264E-01  0.874E-01    0.33       1.0  T
   3    -42.1672481 -0.285640E-01  0.560E-01    0.32       1.0  T
   4    -42.1702814 -0.303323E-02  0.529E-01    0.50       1.0  T
   5    -42.1801621 -0.988076E-02  0.945E-02    0.37       1.0  T
   6    -42.1803924 -0.230261E-03  0.288E-02    0.38       1.0  T
   7    -42.1804118 -0.194155E-04  0.135E-02    0.38       1.5  T
   8    -42.1804110  0.831177E-06  0.874E-03    0.38       2.3  T
   9    -42.1804146 -0.365749E-05  0.138E-03    0.38      14.5  T
  10    -42.1804146 -0.194778E-07  0.866E-04    0.38      23.1  T
  11    -42.1804146 -0.936165E-08  0.412E-04    0.38      48.6  T
     SCC iter.                  ...        0 min,  0.014 sec
     gradient                   ...        0 min,  0.011 sec
 * total energy  :   -41.6624963 Eh     change       -0.9775168E-02 Eh
   gradient norm :     0.2219624 Eh/α   predicted    -0.1001755E-01 (   2.48%)
   displ. norm   :     0.3885927 α      lambda       -0.2782381E-01
   maximum displ.:     0.3448540 α      in ANC's #1, #2, #9, ...

........................................................................
.............................. CYCLE   11 ..............................
........................................................................

 iter      E             dE          RMSdq      gap      omega  full diag
   1    -42.1938471 -0.421938E+02  0.735E-01    0.29       0.0  T
   2    -42.1468141  0.470329E-01  0.112E+00    0.42       1.0  T
   3    -42.1874620 -0.406479E-01  0.630E-01    0.44       1.0  T
   4    -42.1791334  0.832861E-02  0.814E-01    0.27       1.0  T
   5    -42.2044690 -0.253356E-01  0.152E-01    0.38       1.0  T
   6    -42.2046586 -0.189593E-03  0.832E-02    0.37       1.0  T
   7    -42.2048736 -0.215003E-03  0.309E-02    0.37       1.0  T
   8    -42.2049177 -0.441104E-04  0.985E-03    0.37       2.0  T
   9    -42.2049187 -0.925651E-06  0.525E-03    0.37       3.8  T
  10    -42.2049195 -0.808180E-06  0.169E-03    0.37      11.9  T
  11    -42.2049196 -0.915485E-07  0.685E-04    0.37      29.2  T
  12    -42.2049196 -0.790683E-08  0.357E-04    0.37      56.0  T
     SCC iter.                  ...        0 min,  0.015 sec
     gradient                   ...        0 min,  0.011 sec
 * total energy  :   -41.6757541 Eh     change       -0.1325784E-01 Eh
   gradient norm :     0.4098595 Eh/α   predicted    -0.1601298E-01 (  20.78%)
   displ. norm   :     0.1329178 α      lambda       -0.1949295E-01
   maximum displ.:     0.0565483 α      in ANC's #1, #9, #23, ...

........................................................................
.............................. CYCLE   12 ..............................
........................................................................

 iter      E             dE          RMSdq      gap      omega  full diag
   1    -42.2181754 -0.422182E+02  0.199E-01    0.36       0.0  T
   2    -42.2175931  0.582392E-03  0.153E-01    0.34       1.0  T
   3    -42.2094114  0.818166E-02  0.425E-01    0.43       1.0  T
   4    -42.2181140 -0.870263E-02  0.612E-02    0.34       1.0  T
   5    -42.2181026  0.114472E-04  0.636E-02    0.37       1.0  T
   6    -42.2182554 -0.152877E-03  0.154E-02    0.36       1.3  T
   7    -42.2182623 -0.681216E-05  0.866E-03    0.36       2.3  T
   8    -42.2182643 -0.208023E-05  0.329E-03    0.36       6.1  T
   9    -42.2182645 -0.169703E-06  0.158E-03    0.36      12.7  T
  10    -42.2182646 -0.775004E-07  0.804E-04    0.36      24.9  T
  11    -42.2182646 -0.206666E-07  0.163E-04    0.36     122.9  T
     SCC iter.                  ...        0 min,  0.014 sec
     gradient                   ...        0 min,  0.011 sec
 * total energy  :   -41.6926016 Eh     change       -0.1684744E-01 Eh
   gradient norm :     0.3045761 Eh/α   predicted    -0.9918971E-02 ( -41.12%)
   displ. norm   :     0.3196752 α      lambda       -0.4007886E-01
   maximum displ.:     0.1063946 α      in ANC's #9, #53, #23, ...

........................................................................
.............................. CYCLE   13 ..............................
........................................................................

 iter      E             dE          RMSdq      gap      omega  full diag
   1    -42.2401187 -0.422401E+02  0.450E-01    0.38       0.0  T
   2    -42.2283545  0.117642E-01  0.537E-01    0.24       1.0  T
   3    -42.2167208  0.116337E-01  0.730E-01    0.53       1.0  T
   4    -42.2388720 -0.221512E-01  0.201E-01    0.34       1.0  T
   5    -42.2405744 -0.170240E-02  0.103E-01    0.38       1.0  T
   6    -42.2408464 -0.271941E-03  0.380E-02    0.37       1.0  T
   7    -42.2408488 -0.244365E-05  0.321E-02    0.37       1.0  T
   8    -42.2408797 -0.309178E-04  0.109E-02    0.37       1.8  T
   9    -42.2408841 -0.435018E-05  0.347E-03    0.36       5.8  T
  10    -42.2408844 -0.289064E-06  0.213E-03    0.36       9.4  T
  11    -42.2408845 -0.120598E-06  0.625E-04    0.36      32.0  T
  12    -42.2408845 -0.109112E-07  0.171E-04    0.36     116.8  T
     SCC iter.                  ...        0 min,  0.015 sec
     gradient                   ...        0 min,  0.011 sec
 * total energy  :   -41.7165573 Eh     change       -0.2395577E-01 Eh
   gradient norm :     0.1652211 Eh/α   predicted    -0.2208767E-01 (  -7.80%)
   displ. norm   :     0.1563508 α      lambda       -0.9133686E-02
   maximum displ.:     0.0582770 α      in ANC's #1, #53, #2, ...

........................................................................
.............................. CYCLE   14 ..............................
........................................................................

 iter      E             dE          RMSdq      gap      omega  full diag
   1    -42.2475190 -0.422475E+02  0.225E-01    0.40       0.0  T
   2    -42.2467692  0.749850E-03  0.189E-01    0.33       1.0  T
   3    -42.2422419  0.452723E-02  0.363E-01    0.49       1.0  T
   4    -42.2469598 -0.471791E-02  0.142E-01    0.37       1.0  T
   5    -42.2473651 -0.405211E-03  0.892E-02    0.39       1.0  T
   6    -42.2477944 -0.429312E-03  0.151E-02    0.38       1.3  T
   7    -42.2478010 -0.658859E-05  0.532E-03    0.38       3.8  T
   8    -42.2478003  0.607145E-06  0.481E-03    0.38       4.2  T
   9    -42.2478013 -0.936476E-06  0.141E-03    0.38      14.2  T
  10    -42.2478013 -0.583970E-07  0.509E-04    0.38      39.3  T
  11    -42.2478013 -0.215649E-08  0.229E-04    0.38      87.5  T
     SCC iter.                  ...        0 min,  0.014 sec
     gradient                   ...        0 min,  0.011 sec
 * total energy  :   -41.7241584 Eh     change       -0.7601013E-02 Eh
   gradient norm :     0.1916434 Eh/α   predicted    -0.4678710E-02 ( -38.45%)
   displ. norm   :     0.3861993 α      lambda       -0.2577432E-01
   maximum displ.:     0.1446654 α      in ANC's #53, #24, #9, ...

........................................................................
.............................. CYCLE   15 ..............................
........................................................................

 iter      E             dE          RMSdq      gap      omega  full diag
   1    -42.2514259 -0.422514E+02  0.539E-01    0.47       0.0  T
   2    -42.2512554  0.170533E-03  0.329E-01    0.40       1.0  T
   3    -42.2451358  0.611959E-02  0.476E-01    0.58       1.0  T
   4    -42.2402476  0.488821E-02  0.527E-01    0.31       1.0  T
   5    -42.2501103 -0.986278E-02  0.206E-01    0.47       1.0  T
   6    -42.2524137 -0.230339E-02  0.411E-02    0.44       1.0  T
   7    -42.2524758 -0.620755E-04  0.127E-02    0.44       1.6  T
   8    -42.2524765 -0.725395E-06  0.876E-03    0.44       2.3  T
   9    -42.2524790 -0.247811E-05  0.260E-03    0.44       7.7  T
  10    -42.2524791 -0.125552E-06  0.122E-03    0.44      16.3  T
  11    -42.2524791 -0.143636E-07  0.585E-04    0.44      34.2  T
  12    -42.2524792 -0.705390E-08  0.184E-04    0.44     108.6  T
     SCC iter.                  ...        0 min,  0.015 sec
     gradient                   ...        0 min,  0.011 sec
 * total energy  :   -41.7418538 Eh     change       -0.1769546E-01 Eh
   gradient norm :     0.1904930 Eh/α   predicted    -0.1480941E-01 ( -16.31%)
   displ. norm   :     0.3764964 α      lambda       -0.2056080E-01
   maximum displ.:     0.2400582 α      in ANC's #1, #53, #24, ...

........................................................................
.............................. CYCLE   16 ..............................
........................................................................

 iter      E             dE          RMSdq      gap      omega  full diag
   1    -42.2336117 -0.422336E+02  0.426E-01    0.51       0.0  T
   2    -42.2307522  0.285951E-02  0.395E-01    0.47       1.0  T
   3    -42.2230534  0.769879E-02  0.485E-01    0.58       1.0  T
   4    -42.2216515  0.140186E-02  0.561E-01    0.35       1.0  T
   5    -42.2340567 -0.124051E-01  0.162E-01    0.52       1.0  T
   6    -42.2347859 -0.729247E-03  0.207E-02    0.49       1.0  T
   7    -42.2347952 -0.927139E-05  0.950E-03    0.49       2.1  T
   8    -42.2347953 -0.116362E-06  0.494E-03    0.49       4.0  T
   9    -42.2347956 -0.274444E-06  0.247E-03    0.49       8.1  T
  10    -42.2347958 -0.174282E-06  0.112E-03    0.49      17.9  T
  11    -42.2347957  0.203896E-07  0.949E-04    0.49      21.1  T
  12    -42.2347958 -0.362039E-07  0.245E-04    0.49      81.7  T
     SCC iter.                  ...        0 min,  0.015 sec
     gradient                   ...        0 min,  0.024 sec
 * total energy  :   -41.7527495 Eh     change       -0.1089569E-01 Eh
   gradient norm :     0.1502390 Eh/α   predicted    -0.1173771E-01 (   7.73%)
   displ. norm   :     0.2300115 α      lambda       -0.1213042E-01
   maximum displ.:     0.1823450 α      in ANC's #1, #53, #8, ...

........................................................................
.............................. CYCLE   17 ..............................
........................................................................

 iter      E             dE          RMSdq      gap      omega  full diag
   1    -42.2318995 -0.422319E+02  0.320E-01    0.51       0.0  T
   2    -42.2177018  0.141977E-01  0.548E-01    0.59       1.0  T
   3    -42.2226600 -0.495826E-02  0.496E-01    0.40       1.0  T
   4    -42.2318036 -0.914357E-02  0.226E-01    0.55       1.0  T
   5    -42.2331379 -0.133431E-02  0.814E-02    0.50       1.0  T
   6    -42.2332879 -0.149929E-03  0.247E-02    0.51       1.0  T
   7    -42.2333046 -0.167105E-04  0.725E-03    0.51       2.8  T
   8    -42.2333051 -0.511302E-06  0.418E-03    0.51       4.8  T
   9    -42.2333052 -0.172659E-06  0.182E-03    0.51      11.0  T
  10    -42.2333053 -0.488889E-07  0.126E-03    0.51      15.9  T
  11    -42.2333053 -0.354826E-07  0.589E-04    0.51      34.0  T
  12    -42.2333053 -0.111689E-07  0.214E-04    0.51      93.4  T
     SCC iter.                  ...        0 min,  0.028 sec
     gradient                   ...        0 min,  0.017 sec
 * total energy  :   -41.7594937 Eh     change       -0.6744227E-02 Eh
   gradient norm :     0.1251537 Eh/α   predicted    -0.6386177E-02 (  -5.31%)
   displ. norm   :     0.0679862 α      lambda       -0.5572199E-02
   maximum displ.:     0.0293027 α      in ANC's #22, #23, #12, ...

........................................................................
.............................. CYCLE   18 ..............................
........................................................................

 iter      E             dE          RMSdq      gap      omega  full diag
   1    -42.2342957 -0.422343E+02  0.115E-01    0.50       0.0  T
   2    -42.2339465  0.349223E-03  0.116E-01    0.54       1.0  T
   3    -42.2325777  0.136881E-02  0.211E-01    0.46       1.0  T
   4    -42.2343971 -0.181936E-02  0.430E-02    0.51       1.0  T
   5    -42.2342811  0.115987E-03  0.555E-02    0.51       1.0  T
   6    -42.2344199 -0.138794E-03  0.880E-03    0.51       2.3  T
   7    -42.2344212 -0.129829E-05  0.537E-03    0.51       3.7  T
   8    -42.2344218 -0.629412E-06  0.263E-03    0.51       7.6  T
   9    -42.2344220 -0.165802E-06  0.124E-03    0.51      16.2  T
  10    -42.2344220 -0.362029E-07  0.732E-04    0.51      27.3  T
  11    -42.2344220 -0.139797E-07  0.292E-04    0.51      68.5  T
     SCC iter.                  ...        0 min,  0.027 sec
     gradient                   ...        0 min,  0.024 sec
 * total energy  :   -41.7641757 Eh     change       -0.4682010E-02 Eh
   gradient norm :     0.1237989 Eh/α   predicted    -0.2801712E-02 ( -40.16%)
   displ. norm   :     0.1723041 α      lambda       -0.1343251E-01
   maximum displ.:     0.0694542 α      in ANC's #22, #23, #2, ...

........................................................................
.............................. CYCLE   19 ..............................
........................................................................

 iter      E             dE          RMSdq      gap      omega  full diag
   1    -42.2399603 -0.422400E+02  0.256E-01    0.51       0.0  T
   2    -42.2384905  0.146980E-02  0.261E-01    0.58       1.0  T
   3    -42.2326684  0.582218E-02  0.446E-01    0.41       1.0  T
   4    -42.2407139 -0.804554E-02  0.911E-02    0.51       1.0  T
   5    -42.2402280  0.485920E-03  0.113E-01    0.51       1.0  T
   6    -42.2407727 -0.544715E-03  0.238E-02    0.51       1.0  T
   7    -42.2407859 -0.132349E-04  0.124E-02    0.51       1.6  T
   8    -42.2407886 -0.269625E-05  0.778E-03    0.52       2.6  T
   9    -42.2407899 -0.131951E-05  0.364E-03    0.52       5.5  T
  10    -42.2407903 -0.332290E-06  0.192E-03    0.52      10.4  T
  11    -42.2407904 -0.942777E-07  0.740E-04    0.52      27.0  T
  12    -42.2407904 -0.136798E-07  0.303E-04    0.52      66.0  T
     SCC iter.                  ...        0 min,  0.023 sec
     gradient                   ...        0 min,  0.024 sec
 * total energy  :   -41.7732846 Eh     change       -0.9108894E-02 Eh
   gradient norm :     0.1227336 Eh/α   predicted    -0.6916396E-02 ( -24.07%)
   displ. norm   :     0.1664389 α      lambda       -0.8947870E-02
   maximum displ.:     0.0565319 α      in ANC's #53, #35, #22, ...

........................................................................
.............................. CYCLE   20 ..............................
........................................................................

 iter      E             dE          RMSdq      gap      omega  full diag
   1    -42.2507599 -0.422508E+02  0.186E-01    0.53       0.0  T
   2    -42.2481894  0.257053E-02  0.255E-01    0.61       1.0  T
   3    -42.2463138  0.187557E-02  0.344E-01    0.47       1.0  T
   4    -42.2510473 -0.473348E-02  0.899E-02    0.53       1.0  T
   5    -42.2510211  0.262117E-04  0.750E-02    0.54       1.0  T
   6    -42.2512259 -0.204875E-03  0.205E-02    0.54       1.0  T
   7    -42.2512375 -0.115741E-04  0.876E-03    0.54       2.3  T
   8    -42.2512386 -0.104013E-05  0.557E-03    0.54       3.6  T
   9    -42.2512392 -0.676115E-06  0.264E-03    0.54       7.6  T
  10    -42.2512394 -0.184960E-06  0.120E-03    0.54      16.7  T
  11    -42.2512395 -0.336774E-07  0.417E-04    0.54      47.9  T
  12    -42.2512395 -0.369009E-08  0.214E-04    0.54      93.3  T
     SCC iter.                  ...        0 min,  0.015 sec
     gradient                   ...        0 min,  0.011 sec
 * total energy  :   -41.7805763 Eh     change       -0.7291668E-02 Eh
   gradient norm :     0.1313624 Eh/α   predicted    -0.4598004E-02 ( -36.94%)
   displ. norm   :     0.3421280 α      lambda       -0.1790315E-01
   maximum displ.:     0.1237028 α      in ANC's #53, #35, #65, ...
 * RMSD in coord.:     0.8234154 α      energy gain  -0.4661069E+02 Eh

generating ANC from model Hessian ...
Using Lindh-Hessian (1995)
 Shifting diagonal of input Hessian by    1.3206137137488007E-002
 Lowest  eigenvalues of input Hessian
    0.010000    0.010102    0.000000    0.000000    0.000000    0.000000
    0.000000    0.000000    0.014364    0.014821    0.015016    0.015619
    0.015876    0.016278    0.017863    0.021177    0.021550    0.023363
 Highest eigenvalues
    2.026177    2.169063    2.257131    2.405865    2.438652    8.541744


........................................................................
.............................. CYCLE   21 ..............................
........................................................................

 iter      E             dE          RMSdq      gap      omega  full diag
   1    -42.2764386 -0.422764E+02  0.366E-01    0.57       0.0  T
   2    -42.2596349  0.168036E-01  0.604E-01    0.75       1.0  T
   3    -42.2635815 -0.394658E-02  0.599E-01    0.48       1.0  T
   4    -42.2769485 -0.133671E-01  0.204E-01    0.59       1.0  T
   5    -42.2772903 -0.341794E-03  0.158E-01    0.58       1.0  T
   6    -42.2781380 -0.847672E-03  0.233E-02    0.60       1.0  T
   7    -42.2781471 -0.910325E-05  0.991E-03    0.60       2.0  T
   8    -42.2781480 -0.903523E-06  0.496E-03    0.60       4.0  T
   9    -42.2781484 -0.338308E-06  0.228E-03    0.60       8.8  T
  10    -42.2781484 -0.306699E-07  0.170E-03    0.60      11.8  T
  11    -42.2781484 -0.671394E-07  0.695E-04    0.60      28.8  T
  12    -42.2781485 -0.113083E-07  0.358E-04    0.60      55.8  T
     SCC iter.                  ...        0 min,  0.015 sec
     gradient                   ...        0 min,  0.011 sec
 * total energy  :   -41.7937168 Eh     change       -0.1314052E-01 Eh
   gradient norm :     0.1624171 Eh/α   predicted     0.0000000E+00 (-100.00%)
   displ. norm   :     0.6336424 α      lambda       -0.5066184E-01
   maximum displ.:     0.3472449 α      in ANC's #14, #12, #11, ...

........................................................................
.............................. CYCLE   22 ..............................
........................................................................

 iter      E             dE          RMSdq      gap      omega  full diag
   1    -42.3368224 -0.423368E+02  0.563E-01    0.64       0.0  T
   2    -42.2616716  0.751508E-01  0.130E+00    0.79       1.0  T
   3    -42.3281125 -0.664408E-01  0.625E-01    0.54       1.0  T
   4    -42.3417350 -0.136225E-01  0.234E-01    0.70       1.0  T
   5    -42.3422842 -0.549202E-03  0.145E-01    0.67       1.0  T
   6    -42.3430034 -0.719174E-03  0.361E-02    0.68       1.0  T
   7    -42.3430339 -0.305414E-04  0.160E-02    0.67       1.2  T
   8    -42.3430375 -0.359183E-05  0.658E-03    0.67       3.0  T
   9    -42.3430377 -0.198611E-06  0.453E-03    0.67       4.4  T
  10    -42.3430382 -0.496397E-06  0.253E-03    0.67       7.9  T
  11    -42.3430384 -0.227650E-06  0.459E-04    0.67      43.6  T
  12    -42.3430384 -0.110430E-08  0.202E-04    0.67      99.0  T
     SCC iter.                  ...        0 min,  0.015 sec
     gradient                   ...        0 min,  0.011 sec
 * total energy  :   -41.8383843 Eh     change       -0.4466751E-01 Eh
   gradient norm :     0.0932512 Eh/α   predicted    -0.3550135E-01 ( -20.52%)
   displ. norm   :     0.8785067 α      lambda       -0.5510904E-01
   maximum displ.:     0.4590710 α      in ANC's #12, #11, #14, ...

........................................................................
.............................. CYCLE   23 ..............................
........................................................................

 iter      E             dE          RMSdq      gap      omega  full diag
   1    -42.4171911 -0.424172E+02  0.729E-01    0.75       0.0  T
   2    -42.4147730  0.241815E-02  0.487E-01    0.79       1.0  T
   3    -42.3507430  0.640300E-01  0.125E+00    0.52       1.0  T
   4    -42.4173369 -0.665939E-01  0.221E-01    0.76       1.0  T
   5    -42.4188994 -0.156243E-02  0.401E-02    0.72       1.0  T
   6    -42.4189108 -0.114519E-04  0.239E-02    0.72       1.0  T
   7    -42.4189102  0.620432E-06  0.178E-02    0.72       1.1  T
   8    -42.4189164 -0.623604E-05  0.966E-03    0.72       2.1  T
   9    -42.4189165 -0.524905E-07  0.834E-03    0.72       2.4  T
  10    -42.4189184 -0.190018E-05  0.445E-03    0.72       4.5  T
  11    -42.4189189 -0.544558E-06  0.143E-03    0.72      13.9  T
  12    -42.4189190 -0.454720E-07  0.593E-04    0.72      33.7  T
  13    -42.4189190 -0.948109E-08  0.189E-04    0.72     105.6  T
     SCC iter.                  ...        0 min,  0.016 sec
     gradient                   ...        0 min,  0.011 sec
 * total energy  :   -41.8904957 Eh     change       -0.5211138E-01 Eh
   gradient norm :     0.0989369 Eh/α   predicted    -0.4882037E-01 (  -6.32%)
   displ. norm   :     0.9459770 α      lambda       -0.6109957E-01
   maximum displ.:     0.5392740 α      in ANC's #12, #11, #19, ...

........................................................................
.............................. CYCLE   24 ..............................
........................................................................

 iter      E             dE          RMSdq      gap      omega  full diag
   1    -42.4872412 -0.424872E+02  0.108E+00    0.61       0.0  T
   2    -42.4467959  0.404453E-01  0.112E+00    0.53       1.0  T
   3    -42.4130961  0.336998E-01  0.132E+00    0.45       1.0  T
   4    -42.4930478 -0.799517E-01  0.314E-01    0.58       1.0  T
   5    -42.4957011 -0.265330E-02  0.101E-01    0.58       1.0  T
   6    -42.4959549 -0.253794E-03  0.402E-02    0.59       1.0  T
   7    -42.4959586 -0.367395E-05  0.238E-02    0.58       1.0  T
   8    -42.4959652 -0.663498E-05  0.130E-02    0.58       1.5  T
   9    -42.4959704 -0.524129E-05  0.523E-03    0.58       3.8  T
  10    -42.4959710 -0.579119E-06  0.215E-03    0.58       9.3  T
  11    -42.4959711 -0.101314E-06  0.477E-04    0.58      41.9  T
  12    -42.4959711  0.135994E-08  0.315E-04    0.58      63.5  T
     SCC iter.                  ...        0 min,  0.015 sec
     gradient                   ...        0 min,  0.011 sec
 * total energy  :   -41.9450168 Eh     change       -0.5452110E-01 Eh
   gradient norm :     0.1991915 Eh/α   predicted    -0.5788804E-01 (   6.18%)
   displ. norm   :     0.7527461 α      lambda       -0.5686071E-01
   maximum displ.:     0.2884785 α      in ANC's #12, #19, #41, ...

........................................................................
.............................. CYCLE   25 ..............................
........................................................................

 iter      E             dE          RMSdq      gap      omega  full diag
   1    -42.4986775 -0.424987E+02  0.119E+00    0.55       0.0  T
   2    -42.3660314  0.132646E+00  0.189E+00    0.48       1.0  T
   3    -42.4972594 -0.131228E+00  0.893E-01    0.58       1.0  T
   4    -42.5262463 -0.289869E-01  0.378E-01    0.54       1.0  T
   5    -42.5280361 -0.178980E-02  0.187E-01    0.55       1.0  T
   6    -42.5285735 -0.537401E-03  0.544E-02    0.55       1.0  T
   7    -42.5286305 -0.569588E-04  0.200E-02    0.55       1.0  T
   8    -42.5286400 -0.954994E-05  0.883E-03    0.55       2.3  T
   9    -42.5286406 -0.524997E-06  0.422E-03    0.55       4.7  T
  10    -42.5286410 -0.476190E-06  0.107E-03    0.55      18.6  T
  11    -42.5286410 -0.619062E-08  0.626E-04    0.55      31.9  T
  12    -42.5286410 -0.608709E-08  0.188E-04    0.55     106.7  T
     SCC iter.                  ...        0 min,  0.015 sec
     gradient                   ...        0 min,  0.011 sec
 * total energy  :   -41.9249675 Eh     change        0.2004935E-01 Eh
   gradient norm :     0.5170709 Eh/α   predicted    -0.4453981E-01 (-322.15%)
   displ. norm   :     0.4223513 α      lambda       -0.1916841E+00
   maximum displ.:     0.1516556 α      in ANC's #29, #28, #12, ...

........................................................................
.............................. CYCLE   26 ..............................
........................................................................

 iter      E             dE          RMSdq      gap      omega  full diag
   1    -42.4770339 -0.424770E+02  0.963E-01    0.64       0.0  T
   2    -42.4600249  0.170090E-01  0.866E-01    0.68       1.0  T
   3    -42.4578844  0.214048E-02  0.844E-01    0.60       1.0  T
   4    -42.4905439 -0.326595E-01  0.218E-01    0.65       1.0  T
   5    -42.4905500 -0.607156E-05  0.736E-02    0.64       1.0  T
   6    -42.4907244 -0.174453E-03  0.187E-02    0.64       1.1  T
   7    -42.4907214  0.300554E-05  0.130E-02    0.64       1.5  T
   8    -42.4907256 -0.412663E-05  0.517E-03    0.64       3.9  T
   9    -42.4907262 -0.638374E-06  0.181E-03    0.64      11.1  T
  10    -42.4907263 -0.881476E-07  0.486E-04    0.64      41.1  T
  11    -42.4907263 -0.260880E-08  0.231E-04    0.64      86.4  T
     SCC iter.                  ...        0 min,  0.014 sec
     gradient                   ...        0 min,  0.011 sec
 * total energy  :   -41.9957270 Eh     change       -0.7075957E-01 Eh
   gradient norm :     0.1525122 Eh/α   predicted    -0.1129385E+00 (  59.61%)
   displ. norm   :     0.6685846 α      lambda       -0.4878507E-01
   maximum displ.:     0.3102659 α      in ANC's #18, #19, #17, ...

........................................................................
.............................. CYCLE   27 ..............................
........................................................................

 iter      E             dE          RMSdq      gap      omega  full diag
   1    -42.5468324 -0.425468E+02  0.540E-01    0.63       0.0  T
   2    -42.5375673  0.926514E-02  0.657E-01    0.67       1.0  T
   3    -42.5493183 -0.117510E-01  0.343E-01    0.64       1.0  T
   4    -42.5504935 -0.117525E-02  0.231E-01    0.65       1.0  T
   5    -42.5516492 -0.115568E-02  0.660E-02    0.65       1.0  T
   6    -42.5517858 -0.136634E-03  0.179E-02    0.65       1.1  T
   7    -42.5517905 -0.469006E-05  0.715E-03    0.65       2.8  T
   8    -42.5517906 -0.844157E-07  0.245E-03    0.65       8.2  T
   9    -42.5517907 -0.765043E-07  0.110E-03    0.65      18.3  T
  10    -42.5517907 -0.630848E-08  0.376E-04    0.65      53.2  T
  11    -42.5517907 -0.803745E-09  0.184E-04    0.65     108.7  T
     SCC iter.                  ...        0 min,  0.014 sec
     gradient                   ...        0 min,  0.011 sec
 * total energy  :   -42.0261877 Eh     change       -0.3046069E-01 Eh
   gradient norm :     0.1595289 Eh/α   predicted    -0.3529612E-01 (  15.87%)
   displ. norm   :     0.7447149 α      lambda       -0.5711574E-01
   maximum displ.:     0.2855138 α      in ANC's #14, #19, #41, ...

........................................................................
.............................. CYCLE   28 ..............................
........................................................................

 iter      E             dE          RMSdq      gap      omega  full diag
   1    -42.5659154 -0.425659E+02  0.104E+00    0.73       0.0  T
   2    -42.5794227 -0.135072E-01  0.588E-01    0.73       1.0  T
   3    -42.5802565 -0.833799E-03  0.324E-01    0.73       1.0  T
   4    -42.5767490  0.350752E-02  0.314E-01    0.71       1.0  T
   5    -42.5804780 -0.372905E-02  0.836E-02    0.73       1.0  T
   6    -42.5806858 -0.207829E-03  0.275E-02    0.72       1.0  T
   7    -42.5807067 -0.208840E-04  0.122E-02    0.72       1.6  T
   8    -42.5807087 -0.200442E-05  0.396E-03    0.72       5.1  T
   9    -42.5807091 -0.348606E-06  0.119E-03    0.72      16.8  T
  10    -42.5807091 -0.104134E-07  0.685E-04    0.72      29.2  T
  11    -42.5807091 -0.667603E-08  0.201E-04    0.72      99.6  T
     SCC iter.                  ...        0 min,  0.014 sec
     gradient                   ...        0 min,  0.011 sec
 * total energy  :   -42.0571006 Eh     change       -0.3091290E-01 Eh
   gradient norm :     0.1283664 Eh/α   predicted    -0.4439605E-01 (  43.62%)
   displ. norm   :     0.3622514 α      lambda       -0.1628124E-01
   maximum displ.:     0.2057587 α      in ANC's #17, #11, #12, ...

........................................................................
.............................. CYCLE   29 ..............................
........................................................................

 iter      E             dE          RMSdq      gap      omega  full diag
   1    -42.5659311 -0.425659E+02  0.538E-01    0.70       0.0  T
   2    -42.5665235 -0.592346E-03  0.376E-01    0.69       1.0  T
   3    -42.5637491  0.277440E-02  0.345E-01    0.71       1.0  T
   4    -42.5662438 -0.249474E-02  0.238E-01    0.69       1.0  T
   5    -42.5683584 -0.211454E-02  0.466E-02    0.70       1.0  T
   6    -42.5684320 -0.736162E-04  0.160E-02    0.70       1.2  T
   7    -42.5684328 -0.834955E-06  0.881E-03    0.70       2.3  T
   8    -42.5684327  0.715212E-07  0.412E-03    0.70       4.9  T
   9    -42.5684335 -0.735447E-06  0.114E-03    0.70      17.6  T
  10    -42.5684335 -0.324271E-07  0.443E-04    0.70      45.2  T
  11    -42.5684335 -0.137902E-08  0.120E-04    0.70     167.1  T
     SCC iter.                  ...        0 min,  0.014 sec
     gradient                   ...        0 min,  0.011 sec
 * total energy  :   -42.0577934 Eh     change       -0.6927804E-03 Eh
   gradient norm :     0.1198388 Eh/α   predicted    -0.9208885E-02 (1229.26%)
   displ. norm   :     0.3086816 α      lambda       -0.1651015E-01
   maximum displ.:     0.1588573 α      in ANC's #17, #11, #19, ...

........................................................................
.............................. CYCLE   30 ..............................
........................................................................

 iter      E             dE          RMSdq      gap      omega  full diag
   1    -42.5801493 -0.425801E+02  0.363E-01    0.63       0.0  T
   2    -42.5808807 -0.731335E-03  0.224E-01    0.63       1.0  T
   3    -42.5808850 -0.438489E-05  0.119E-01    0.63       1.0  T
   4    -42.5799214  0.963688E-03  0.151E-01    0.64       1.0  T
   5    -42.5810185 -0.109714E-02  0.331E-02    0.64       1.0  T
   6    -42.5810517 -0.331888E-04  0.934E-03    0.64       2.1  T
   7    -42.5810521 -0.383488E-06  0.507E-03    0.64       3.9  T
   8    -42.5810523 -0.187158E-06  0.118E-03    0.64      17.0  T
   9    -42.5810522  0.118918E-07  0.841E-04    0.64      23.8  T
  10    -42.5810523 -0.188941E-07  0.225E-04    0.64      88.9  T
     SCC iter.                  ...        0 min,  0.013 sec
     gradient                   ...        0 min,  0.011 sec
 * total energy  :   -42.0643669 Eh     change       -0.6573490E-02 Eh
   gradient norm :     0.0959600 Eh/α   predicted    -0.9041659E-02 (  37.55%)
   displ. norm   :     0.2701322 α      lambda       -0.6653057E-02
   maximum displ.:     0.1473823 α      in ANC's #1, #14, #20, ...

........................................................................
.............................. CYCLE   31 ..............................
........................................................................

 iter      E             dE          RMSdq      gap      omega  full diag
   1    -42.5882504 -0.425883E+02  0.533E-01    0.61       0.0  T
   2    -42.5882680 -0.175954E-04  0.291E-01    0.61       1.0  T
   3    -42.5834711  0.479691E-02  0.320E-01    0.62       1.0  T
   4    -42.5881822 -0.471106E-02  0.772E-02    0.61       1.0  T
   5    -42.5884427 -0.260501E-03  0.183E-02    0.61       1.1  T
   6    -42.5884460 -0.336532E-05  0.836E-03    0.61       2.4  T
   7    -42.5884458  0.239944E-06  0.342E-03    0.61       5.8  T
   8    -42.5884462 -0.419184E-06  0.957E-04    0.61      20.9  T
   9    -42.5884462 -0.312553E-07  0.364E-04    0.61      55.0  T
     SCC iter.                  ...        0 min,  0.011 sec
     gradient                   ...        0 min,  0.011 sec
 * total energy  :   -42.0653595 Eh     change       -0.9926060E-03 Eh
   gradient norm :     0.1168054 Eh/α   predicted    -0.3569273E-02 ( 259.59%)
   displ. norm   :     0.1768619 α      lambda       -0.3135385E-02
   maximum displ.:     0.1350400 α      in ANC's #1, #2, #24, ...

........................................................................
.............................. CYCLE   32 ..............................
........................................................................

 iter      E             dE          RMSdq      gap      omega  full diag
   1    -42.5904233 -0.425904E+02  0.462E-01    0.60       0.0  T
   2    -42.5904782 -0.548969E-04  0.242E-01    0.60       1.0  T
   3    -42.5903560  0.122214E-03  0.591E-02    0.59       1.0  T
   4    -42.5904046 -0.486304E-04  0.440E-02    0.60       1.0  T
   5    -42.5904910 -0.864129E-04  0.131E-02    0.60       1.5  T
   6    -42.5904943 -0.329519E-05  0.559E-03    0.60       3.6  T
   7    -42.5904944 -0.934455E-07  0.175E-03    0.60      11.4  T
   8    -42.5904945 -0.653251E-07  0.367E-04    0.60      54.5  T
   9    -42.5904945 -0.101333E-08  0.232E-04    0.60      86.2  T
     SCC iter.                  ...        0 min,  0.011 sec
     gradient                   ...        0 min,  0.011 sec
 * total energy  :   -42.0665948 Eh     change       -0.1235251E-02 Eh
   gradient norm :     0.0342457 Eh/α   predicted    -0.1616737E-02 (  30.88%)
   displ. norm   :     0.1464262 α      lambda       -0.1264723E-02
   maximum displ.:     0.0730286 α      in ANC's #1, #12, #9, ...

........................................................................
.............................. CYCLE   33 ..............................
........................................................................

 iter      E             dE          RMSdq      gap      omega  full diag
   1    -42.5874875 -0.425875E+02  0.214E-01    0.59       0.0  T
   2    -42.5875175 -0.299218E-04  0.121E-01    0.59       1.0  T
   3    -42.5872500  0.267512E-03  0.791E-02    0.59       1.0  T
   4    -42.5873626 -0.112638E-03  0.622E-02    0.59       1.0  T
   5    -42.5875365 -0.173928E-03  0.974E-03    0.59       2.1  T
   6    -42.5875374 -0.925583E-06  0.446E-03    0.59       4.5  T
   7    -42.5875376 -0.172107E-06  0.102E-03    0.59      19.7  T
   8    -42.5875376 -0.110477E-07  0.420E-04    0.59      47.6  T
   9    -42.5875376  0.174168E-09  0.197E-04    0.59     101.5  T
     SCC iter.                  ...        0 min,  0.011 sec
     gradient                   ...        0 min,  0.011 sec
 * total energy  :   -42.0665693 Eh     change        0.2546067E-04 Eh
   gradient norm :     0.0178151 Eh/α   predicted    -0.6459264E-03 (*******%)
   displ. norm   :     0.1207439 α      lambda       -0.1174993E-02
   maximum displ.:     0.0629925 α      in ANC's #13, #9, #6, ...

........................................................................
.............................. CYCLE   34 ..............................
........................................................................

 iter      E             dE          RMSdq      gap      omega  full diag
   1    -42.5879168 -0.425879E+02  0.166E-01    0.56       0.0  T
   2    -42.5879461 -0.292321E-04  0.914E-02    0.56       1.0  T
   3    -42.5878999  0.461675E-04  0.402E-02    0.57       1.0  T
   4    -42.5878490  0.509101E-04  0.460E-02    0.56       1.0  T
   5    -42.5879504 -0.101376E-03  0.705E-03    0.57       2.8  T
   6    -42.5879510 -0.634137E-06  0.331E-03    0.57       6.0  T
   7    -42.5879510 -0.302775E-07  0.942E-04    0.57      21.2  T
   8    -42.5879511 -0.277518E-07  0.218E-04    0.57      91.7  T
     SCC iter.                  ...        0 min,  0.010 sec
     gradient                   ...        0 min,  0.011 sec
 * total energy  :   -42.0667384 Eh     change       -0.1690712E-03 Eh
   gradient norm :     0.0145179 Eh/α   predicted    -0.5960612E-03 ( 252.55%)
   displ. norm   :     0.1296760 α      lambda       -0.1066581E-02
   maximum displ.:     0.0474336 α      in ANC's #1, #2, #4, ...

........................................................................
.............................. CYCLE   35 ..............................
........................................................................

 iter      E             dE          RMSdq      gap      omega  full diag
   1    -42.5906836 -0.425907E+02  0.255E-01    0.55       0.0  T
   2    -42.5907527 -0.691512E-04  0.139E-01    0.56       1.0  T
   3    -42.5907280  0.247349E-04  0.429E-02    0.56       1.0  T
   4    -42.5907277  0.331086E-06  0.301E-02    0.56       1.0  T
   5    -42.5907647 -0.370336E-04  0.112E-02    0.56       1.8  T
   6    -42.5907678 -0.304830E-05  0.550E-03    0.56       3.6  T
   7    -42.5907680 -0.228718E-06  0.178E-03    0.56      11.2  T
   8    -42.5907681 -0.809084E-07  0.355E-04    0.56      56.3  T
   9    -42.5907681 -0.883801E-09  0.210E-04    0.56      95.3  T
     SCC iter.                  ...        0 min,  0.012 sec
     gradient                   ...        0 min,  0.011 sec
 * total energy  :   -42.0669359 Eh     change       -0.1975093E-03 Eh
   gradient norm :     0.0155882 Eh/α   predicted    -0.5422608E-03 ( 174.55%)
   displ. norm   :     0.0700492 α      lambda       -0.4858576E-03
   maximum displ.:     0.0278916 α      in ANC's #1, #12, #4, ...

........................................................................
.............................. CYCLE   36 ..............................
........................................................................

 iter      E             dE          RMSdq      gap      omega  full diag
   1    -42.5902832 -0.425903E+02  0.687E-02    0.56       0.0  T
   2    -42.5902902 -0.695814E-05  0.409E-02    0.56       1.0  T
   3    -42.5902581  0.321306E-04  0.332E-02    0.55       1.0  T
   4    -42.5902594 -0.130221E-05  0.262E-02    0.56       1.0  T
   5    -42.5902940 -0.346696E-04  0.503E-03    0.56       4.0  T
   6    -42.5902946 -0.571873E-06  0.218E-03    0.56       9.2  T
   7    -42.5902946 -0.418910E-07  0.765E-04    0.56      26.2  T
   8    -42.5902947 -0.156151E-07  0.194E-04    0.56     102.9  T
     SCC iter.                  ...        0 min,  0.010 sec
     gradient                   ...        0 min,  0.011 sec
 * total energy  :   -42.0671678 Eh     change       -0.2318968E-03 Eh
   gradient norm :     0.0059918 Eh/α   predicted    -0.2441251E-03 (   5.27%)
   displ. norm   :     0.0768167 α      lambda       -0.1499865E-03
   maximum displ.:     0.0539392 α      in ANC's #4, #1, #24, ...

........................................................................
.............................. CYCLE   37 ..............................
........................................................................

 iter      E             dE          RMSdq      gap      omega  full diag
   1    -42.5890271 -0.425890E+02  0.234E-01    0.55       0.0  T
   2    -42.5890319 -0.483157E-05  0.122E-01    0.55       1.0  T
   3    -42.5889881  0.437530E-04  0.316E-02    0.55       1.0  T
   4    -42.5890290 -0.408588E-04  0.131E-02    0.55       1.5  T
   5    -42.5890352 -0.620825E-05  0.448E-03    0.55       4.5  T
   6    -42.5890352 -0.271505E-07  0.128E-03    0.55      15.6  T
   7    -42.5890353 -0.210292E-07  0.391E-04    0.55      51.2  T
   8    -42.5890353 -0.364153E-08  0.139E-04    0.55     144.1  T
     SCC iter.                  ...        0 min,  0.010 sec
     gradient                   ...        0 min,  0.011 sec
 * total energy  :   -42.0672181 Eh     change       -0.5036861E-04 Eh
   gradient norm :     0.0171029 Eh/α   predicted    -0.7544038E-04 (  49.78%)
   displ. norm   :     0.0952247 α      lambda       -0.1539448E-03
   maximum displ.:     0.0835792 α      in ANC's #4, #1, #5, ...

........................................................................
.............................. CYCLE   38 ..............................
........................................................................

 iter      E             dE          RMSdq      gap      omega  full diag
   1    -42.5885391 -0.425885E+02  0.292E-01    0.56       0.0  T
   2    -42.5885402 -0.109961E-05  0.152E-01    0.56       1.0  T
   3    -42.5882826  0.257609E-03  0.728E-02    0.55       1.0  T
   4    -42.5885499 -0.267323E-03  0.956E-03    0.55       2.1  T
   5    -42.5885508 -0.948253E-06  0.565E-03    0.55       3.5  T
   6    -42.5885512 -0.338290E-06  0.215E-03    0.55       9.3  T
   7    -42.5885512 -0.373970E-07  0.472E-04    0.55      42.3  T
   8    -42.5885512 -0.537878E-08  0.189E-04    0.55     105.9  T
     SCC iter.                  ...        0 min,  0.010 sec
     gradient                   ...        0 min,  0.011 sec
 * total energy  :   -42.0673450 Eh     change       -0.1268320E-03 Eh
   gradient norm :     0.0134197 Eh/α   predicted    -0.7767274E-04 ( -38.76%)
   displ. norm   :     0.3194192 α      lambda       -0.4357167E-03
   maximum displ.:     0.2842252 α      in ANC's #4, #1, #5, ...

........................................................................
.............................. CYCLE   39 ..............................
........................................................................

 iter      E             dE          RMSdq      gap      omega  full diag
   1    -42.5857700 -0.425858E+02  0.949E-01    0.65       0.0  T
   2    -42.5856671  0.102913E-03  0.505E-01    0.63       1.0  T
   3    -42.5808490  0.481812E-02  0.319E-01    0.60       1.0  T
   4    -42.5858985 -0.504949E-02  0.251E-02    0.61       1.0  T
   5    -42.5858990 -0.562152E-06  0.186E-02    0.61       1.1  T
   6    -42.5859017 -0.272031E-05  0.918E-03    0.61       2.2  T
   7    -42.5859041 -0.231175E-05  0.205E-03    0.61       9.7  T
   8    -42.5859041 -0.920302E-07  0.775E-04    0.61      25.8  T
   9    -42.5859042 -0.491710E-08  0.347E-04    0.61      57.6  T
     SCC iter.                  ...        0 min,  0.011 sec
     gradient                   ...        0 min,  0.011 sec
 * total energy  :   -42.0673878 Eh     change       -0.4287536E-04 Eh
   gradient norm :     0.0176769 Eh/α   predicted    -0.2400873E-03 ( 459.97%)
   displ. norm   :     0.1106761 α      lambda       -0.7364355E-03
   maximum displ.:     0.0819562 α      in ANC's #1, #4, #2, ...

........................................................................
.............................. CYCLE   40 ..............................
........................................................................

 iter      E             dE          RMSdq      gap      omega  full diag
   1    -42.5928084 -0.425928E+02  0.432E-01    0.53       0.0  T
   2    -42.5928267 -0.182522E-04  0.227E-01    0.53       1.0  T
   3    -42.5925722  0.254432E-03  0.734E-02    0.54       1.0  T
   4    -42.5928157 -0.243448E-03  0.304E-02    0.54       1.0  T
   5    -42.5928403 -0.246745E-04  0.124E-02    0.54       1.6  T
   6    -42.5928409 -0.582073E-06  0.602E-03    0.54       3.3  T
   7    -42.5928420 -0.111703E-05  0.115E-03    0.54      17.4  T
   8    -42.5928421 -0.701900E-08  0.601E-04    0.54      33.3  T
   9    -42.5928421 -0.299532E-08  0.192E-04    0.54     104.3  T
     SCC iter.                  ...        0 min,  0.011 sec
     gradient                   ...        0 min,  0.011 sec
 * total energy  :   -42.0675138 Eh     change       -0.1259686E-03 Eh
   gradient norm :     0.0371271 Eh/α   predicted    -0.3727315E-03 ( 195.89%)
   displ. norm   :     0.0443960 α      lambda       -0.3548850E-03
   maximum displ.:     0.0199277 α      in ANC's #1, #27, #3, ...

........................................................................
.............................. CYCLE   41 ..............................
........................................................................

 iter      E             dE          RMSdq      gap      omega  full diag
   1    -42.5902178 -0.425902E+02  0.116E-01    0.54       0.0  T
   2    -42.5902163  0.149921E-05  0.623E-02    0.54       1.0  T
   3    -42.5900004  0.215825E-03  0.680E-02    0.54       1.0  T
   4    -42.5902202 -0.219803E-03  0.120E-02    0.54       1.7  T
   5    -42.5902255 -0.528174E-05  0.369E-03    0.54       5.4  T
   6    -42.5902255  0.498976E-07  0.262E-03    0.54       7.6  T
   7    -42.5902256 -0.142762E-06  0.722E-04    0.54      27.7  T
   8    -42.5902256 -0.912269E-08  0.240E-04    0.54      83.4  T
     SCC iter.                  ...        0 min,  0.010 sec
     gradient                   ...        0 min,  0.011 sec
 * total energy  :   -42.0677034 Eh     change       -0.1895465E-03 Eh
   gradient norm :     0.0059435 Eh/α   predicted    -0.1777960E-03 (  -6.20%)
   displ. norm   :     0.1738442 α      lambda       -0.2613494E-03
   maximum displ.:     0.1483502 α      in ANC's #4, #2, #3, ...

........................................................................
.............................. CYCLE   42 ..............................
........................................................................

 iter      E             dE          RMSdq      gap      omega  full diag
   1    -42.5880885 -0.425881E+02  0.461E-01    0.58       0.0  T
   2    -42.5880844  0.408797E-05  0.243E-01    0.57       1.0  T
   3    -42.5873903  0.694092E-03  0.120E-01    0.56       1.0  T
   4    -42.5881121 -0.721779E-03  0.134E-02    0.57       1.5  T
   5    -42.5881123 -0.227496E-06  0.829E-03    0.57       2.4  T
   6    -42.5881134 -0.110295E-05  0.257E-03    0.57       7.8  T
   7    -42.5881135 -0.107550E-06  0.864E-04    0.57      23.2  T
   8    -42.5881135 -0.142868E-07  0.320E-04    0.57      62.5  T
     SCC iter.                  ...        0 min,  0.010 sec
     gradient                   ...        0 min,  0.011 sec
 * total energy  :   -42.0678038 Eh     change       -0.1004349E-03 Eh
   gradient norm :     0.0162652 Eh/α   predicted    -0.1346308E-03 (  34.05%)
   displ. norm   :     0.2263565 α      lambda       -0.3552010E-03
   maximum displ.:     0.1805572 α      in ANC's #4, #5, #7, ...
 * RMSD in coord.:     0.8038244 α      energy gain  -0.2872275E+00 Eh

generating ANC from model Hessian ...
Using Lindh-Hessian (1995)
 Shifting diagonal of input Hessian by    1.0126152892189932E-002
 Lowest  eigenvalues of input Hessian
    0.010000    0.010024    0.000000    0.000000    0.000000    0.000000
    0.000000    0.000000    0.010236    0.010749    0.010858    0.013066
    0.016164    0.019569    0.020639    0.021429    0.025790    0.026519
 Highest eigenvalues
    2.133828    2.215948    2.275379    2.448852    2.555464    8.731906


........................................................................
.............................. CYCLE   43 ..............................
........................................................................

 iter      E             dE          RMSdq      gap      omega  full diag
   1    -42.5870465 -0.425870E+02  0.480E-01    0.61       0.0  T
   2    -42.5870370  0.955590E-05  0.255E-01    0.60       1.0  T
   3    -42.5860385  0.998417E-03  0.144E-01    0.59       1.0  T
   4    -42.5870758 -0.103730E-02  0.164E-02    0.60       1.2  T
   5    -42.5870783 -0.248284E-05  0.954E-03    0.60       2.1  T
   6    -42.5870789 -0.595983E-06  0.362E-03    0.60       5.5  T
   7    -42.5870791 -0.169699E-06  0.134E-03    0.60      14.9  T
   8    -42.5870791 -0.524591E-07  0.445E-04    0.60      44.9  T
   9    -42.5870791 -0.706486E-09  0.122E-04    0.60     163.8  T
     SCC iter.                  ...        0 min,  0.011 sec
     gradient                   ...        0 min,  0.011 sec
 * total energy  :   -42.0679027 Eh     change       -0.9887961E-04 Eh
   gradient norm :     0.0174205 Eh/α   predicted     0.0000000E+00 (-100.00%)
   displ. norm   :     0.1814581 α      lambda       -0.7759421E-03
   maximum displ.:     0.1537255 α      in ANC's #3, #4, #5, ...

........................................................................
.............................. CYCLE   44 ..............................
........................................................................

 iter      E             dE          RMSdq      gap      omega  full diag
   1    -42.5889666 -0.425890E+02  0.493E-01    0.61       0.0  T
   2    -42.5889309  0.356719E-04  0.261E-01    0.60       1.0  T
   3    -42.5871753  0.175560E-02  0.196E-01    0.59       1.0  T
   4    -42.5890039 -0.182861E-02  0.158E-02    0.60       1.3  T
   5    -42.5890060 -0.213625E-05  0.755E-03    0.60       2.6  T
   6    -42.5890075 -0.150530E-05  0.239E-03    0.60       8.4  T
   7    -42.5890077 -0.177374E-06  0.608E-04    0.60      32.9  T
   8    -42.5890077 -0.413245E-08  0.359E-04    0.60      55.7  T
     SCC iter.                  ...        0 min,  0.010 sec
     gradient                   ...        0 min,  0.011 sec
 * total energy  :   -42.0684854 Eh     change       -0.5827359E-03 Eh
   gradient norm :     0.0090344 Eh/α   predicted    -0.4007494E-03 ( -31.23%)
   displ. norm   :     0.2148662 α      lambda       -0.5489255E-03
   maximum displ.:     0.1865481 α      in ANC's #3, #4, #5, ...

........................................................................
.............................. CYCLE   45 ..............................
........................................................................

 iter      E             dE          RMSdq      gap      omega  full diag
   1    -42.5894745 -0.425895E+02  0.490E-01    0.63       0.0  T
   2    -42.5894702  0.435136E-05  0.259E-01    0.62       1.0  T
   3    -42.5884906  0.979591E-03  0.146E-01    0.61       1.0  T
   4    -42.5895149 -0.102425E-02  0.136E-02    0.61       1.5  T
   5    -42.5895142  0.691987E-06  0.518E-03    0.61       3.9  T
   6    -42.5895148 -0.683309E-06  0.152E-03    0.61      13.1  T
   7    -42.5895149 -0.845908E-07  0.477E-04    0.61      41.9  T
   8    -42.5895149 -0.349002E-08  0.227E-04    0.61      88.1  T
     SCC iter.                  ...        0 min,  0.010 sec
     gradient                   ...        0 min,  0.011 sec
 * total energy  :   -42.0689172 Eh     change       -0.4318100E-03 Eh
   gradient norm :     0.0102782 Eh/α   predicted    -0.2871685E-03 ( -33.50%)
   displ. norm   :     0.3220291 α      lambda       -0.7073763E-03
   maximum displ.:     0.2866088 α      in ANC's #3, #4, #2, ...

........................................................................
.............................. CYCLE   46 ..............................
........................................................................

 iter      E             dE          RMSdq      gap      omega  full diag
   1    -42.5889656 -0.425890E+02  0.616E-01    0.68       0.0  T
   2    -42.5889868 -0.212133E-04  0.325E-01    0.67       1.0  T
   3    -42.5881545  0.832360E-03  0.137E-01    0.65       1.0  T
   4    -42.5890317 -0.877210E-03  0.203E-02    0.66       1.0  T
   5    -42.5890330 -0.135763E-05  0.777E-03    0.66       2.6  T
   6    -42.5890338 -0.786465E-06  0.317E-03    0.66       6.3  T
   7    -42.5890342 -0.357819E-06  0.788E-04    0.66      25.4  T
   8    -42.5890342 -0.292551E-08  0.314E-04    0.66      63.6  T
     SCC iter.                  ...        0 min,  0.010 sec
     gradient                   ...        0 min,  0.011 sec
 * total energy  :   -42.0694413 Eh     change       -0.5241128E-03 Eh
   gradient norm :     0.0110243 Eh/α   predicted    -0.3903719E-03 ( -25.52%)
   displ. norm   :     0.4026728 α      lambda       -0.1099559E-02
   maximum displ.:     0.3581133 α      in ANC's #3, #25, #46, ...

........................................................................
.............................. CYCLE   47 ..............................
........................................................................

 iter      E             dE          RMSdq      gap      omega  full diag
   1    -42.5915513 -0.425916E+02  0.717E-01    0.71       0.0  T
   2    -42.5916035 -0.521797E-04  0.376E-01    0.69       1.0  T
   3    -42.5915875  0.159779E-04  0.337E-02    0.68       1.0  T
   4    -42.5915759  0.116630E-04  0.364E-02    0.68       1.0  T
   5    -42.5916234 -0.475307E-04  0.120E-02    0.68       1.7  T
   6    -42.5916246 -0.122124E-05  0.369E-03    0.68       5.4  T
   7    -42.5916249 -0.238853E-06  0.780E-04    0.68      25.6  T
   8    -42.5916249 -0.160017E-08  0.373E-04    0.68      53.6  T
     SCC iter.                  ...        0 min,  0.010 sec
     gradient                   ...        0 min,  0.011 sec
 * total energy  :   -42.0702764 Eh     change       -0.8350616E-03 Eh
   gradient norm :     0.0082594 Eh/α   predicted    -0.6389709E-03 ( -23.48%)
   displ. norm   :     0.6776119 α      lambda       -0.1365943E-02
   maximum displ.:     0.6121376 α      in ANC's #3, #25, #23, ...

........................................................................
.............................. CYCLE   48 ..............................
........................................................................

 iter      E             dE          RMSdq      gap      omega  full diag
   1    -42.5819420 -0.425819E+02  0.135E+00    0.98       0.0  T
   2    -42.5820743 -0.132226E-03  0.721E-01    0.94       1.0  T
   3    -42.5801895  0.188479E-02  0.208E-01    0.91       1.0  T
   4    -42.5821799 -0.199043E-02  0.430E-02    0.91       1.0  T
   5    -42.5821784  0.153120E-05  0.308E-02    0.91       1.0  T
   6    -42.5821819 -0.352530E-05  0.157E-02    0.91       1.3  T
   7    -42.5821895 -0.761439E-05  0.468E-03    0.91       4.3  T
   8    -42.5821899 -0.409744E-06  0.151E-03    0.91      13.2  T
   9    -42.5821899 -0.315933E-07  0.584E-04    0.91      34.2  T
  10    -42.5821899  0.399773E-09  0.300E-04    0.91      66.7  T
[...]
C           -1.61868927695132       -1.97801639354409       -0.07437069010774
H            4.25874274088040        0.59100015447933        1.05741050248782
H            4.47798353417741        0.45321603913744       -0.69649878440569
H            3.48391394323368        1.76630994798185       -0.02190061851436
H            3.40086092007246       -2.08486205468560       -0.05874847874020
H           -1.12507633951165        2.54726395956756        0.02993714115086
H           -4.86447445439568        0.11140787810979        0.06638718964327
H           -4.32409846045723        1.92954363307663        0.06460177577766
H           -1.37493871511416       -2.57562211759761        0.80590863622728
H           -1.36217119074762       -2.52989354923279       -0.98074950054496
H           -2.68776297268231       -1.79165115463702       -0.07751552070420
H            0.95724088909001       -2.80336171372712       -0.11354964816250

 Bond Distances (Angstroems)
 ---------------------------
C1-N2=1.4368         C1-H15=1.0913        C1-H16=1.0895        C1-H17=1.0885        N2-C1=1.4368         N2-C3=1.3391         
N2-C6=1.3780         C3-N2=1.3391         C3-N4=1.3618         C3-H18=1.0693        N4-C3=1.3618         N4-C5=1.3633         
N4-H25=1.0077        C5-N4=1.3633         C5-C6=1.3969         C5-N13=1.3536        C6-N2=1.3780         C6-C5=1.3969         
C6-C7=1.4255         C7-C6=1.4255         C7-O8=1.1980         C7-N9=1.4960         O8-C7=1.1980         N9-C7=1.4960         
N9-C11=1.4012        N9-H19=1.0137        C10-O12=1.3614       C10-H20=1.0687       C10-H21=1.0728       C11-N9=1.4012        
C11-O12=1.2968       C11-N13=1.4159       O12-C10=1.3614       O12-C11=1.2968       N13-C5=1.3536        N13-C11=1.4159       
N13-C14=1.4506       C14-N13=1.4506       C14-H22=1.0915       C14-H23=1.0917       C14-H24=1.0852       H15-C1=1.0913        
H16-C1=1.0895        H17-C1=1.0885        H18-C3=1.0693        H19-N9=1.0137        H20-C10=1.0687       H21-C10=1.0728       
H22-C14=1.0915       H23-C14=1.0917       H24-C14=1.0852       H25-N4=1.0077        
 C  H  Rav=1.0832 sigma=0.0094  Rmin=1.0687  Rmax=1.0917     9
 C  C  Rav=1.4112 sigma=0.0143  Rmin=1.3969  Rmax=1.4255     2
 N  H  Rav=1.0107 sigma=0.0030  Rmin=1.0077  Rmax=1.0137     2
 N  C  Rav=1.3996 sigma=0.0475  Rmin=1.3391  Rmax=1.4960    10
 O  C  Rav=1.2854 sigma=0.0672  Rmin=1.1980  Rmax=1.3614     3

 selected bond angles (degree)
 --------------------
H15-C1-N2=110.35               H16-C1-N2=110.34               H16-C1-H15=108.77              H17-C1-N2=108.84               
H17-C1-H15=108.93              H17-C1-H16=109.59              C3-N2-C1=126.67                C6-N2-C1=125.30                
C6-N2-C3=107.99                N4-C3-N2=109.26                H18-C3-N2=125.73               H18-C3-N4=125.02               
C5-N4-C3=108.58                H25-N4-C3=124.57               H25-N4-C5=126.84               C6-C5-N4=106.66                
N13-C5-N4=126.94               N13-C5-C6=126.40               C5-C6-N2=107.51                C7-C6-N2=130.18                
C7-C6-C5=122.29                O8-C7-C6=132.88                N9-C7-C6=107.46                N9-C7-O8=119.66                
C11-N9-C7=131.35               H19-N9-C7=112.41               H19-N9-C11=116.23              H20-C10-O12=113.02             
H21-C10-O12=121.63             H21-C10-H20=124.68             

 selected dihedral angles (degree)
 ---------------------------------
C3-N2-C1-H15=292.09           C3-N2-C1-H16= 52.33           C3-N2-C1-H17=172.61           C6-N2-C1-H15=109.38           
C6-N2-C1-H16=229.61           C6-N2-C1-H17=349.90           N4-C3-N2-C1=177.77            N4-C3-N2-C6=  0.10            
H18-C3-N2-C1=357.67           H18-C3-N2-C6=180.00           C5-N4-C3-N2=  0.00            C5-N4-C3-H18=180.09           
H25-N4-C3-N2=179.28           H25-N4-C3-H18=359.37          C6-C5-N4-C3=359.91            C6-C5-N4-H25=180.65           
N13-C5-N4-C3=180.48           N13-C5-N4-H25=  1.22          C5-C6-N2-C1=182.14            C5-C6-N2-C3=359.85            
C7-C6-N2-C1=  3.59            C7-C6-N2-C3=181.30            N2-C6-C5-N4=  0.15            N2-C6-C5-N13=179.59           
C7-C6-C5-N4=178.84            C7-C6-C5-N13=358.28           O8-C7-C6-N2=359.20            O8-C7-C6-C5=180.83            
N9-C7-C6-N2=179.17            N9-C7-C6-C5=  0.80            C11-N9-C7-C6=  0.83           C11-N9-C7-O8=180.81           
H19-N9-C7-C6=179.63           H19-N9-C7-O8=359.60           
           -------------------------------------------------
          |                Final Singlepoint                |
           -------------------------------------------------

          ...................................................
          :                      SETUP                      :
          :.................................................:
          :  # basis functions                  67          :
          :  # atomic orbitals                  67          :
          :  # shells                           39          :
          :  # electrons                        74          :
          :  max. iterations                   250          :
          :  Hamiltonian                  GFN2-xTB          :
          :  restarted?                      false          :
          :  GBSA solvation                  false          :
          :  PC potential                    false          :
          :  electronic temp.         5000.0000000     K    :
          :  accuracy                    1.0000000          :
          :  -> integral cutoff          0.2500000E+02      :
          :  -> integral neglect         0.1000000E-07      :
          :  -> SCF convergence          0.1000000E-05 Eh   :
          :  -> wf. convergence          0.1000000E-03 e    :
          :  Broyden damping             0.4000000          :
          ...................................................

 iter      E             dE          RMSdq      gap      omega  full diag
   1    -42.6363117 -0.426363E+02  0.148E-04    1.25       0.0  T
   2    -42.6363117 -0.666560E-10  0.112E-04    1.25     177.8  T
   3    -42.6363117 -0.148539E-09  0.687E-05    1.25     291.2  T

   *** convergence criteria satisfied after 3 iterations ***

         #    Occupation            Energy/Eh            Energy/eV
      -------------------------------------------------------------
         1        2.0000           -0.9005254             -24.5045
       ...           ...                  ...                  ...
        31        2.0000           -0.6160840             -16.7645
        32        1.9999           -0.5974573             -16.2576
        33        1.9999           -0.5949259             -16.1888
        34        1.9997           -0.5820637             -15.8388
        35        1.9985           -0.5541104             -15.0781
        36        1.9977           -0.5474921             -14.8980
        37        1.5715           -0.4605899             -12.5333 (HOMO)
        38        0.3366           -0.4147149             -11.2850 (LUMO)
        39        0.0770           -0.3890624             -10.5869
        40        0.0190           -0.3664735              -9.9723
        41        0.0001           -0.2785712              -7.5803
        42        0.0000           -0.2413161              -6.5665
       ...           ...                  ...                  ...
        67                          0.5930339              16.1373
      -------------------------------------------------------------
                  HL-Gap            0.0458750 Eh            1.2483 eV
             Fermi-level           -0.4400124 Eh          -11.9733 eV

 SCC (total)                   0 d,  0 h,  0 min,  0.020 sec
 SCC setup                      ...        0 min,  0.000 sec (  0.906%)
 Dispersion                     ...        0 min,  0.000 sec (  0.869%)
 classical contributions        ...        0 min,  0.000 sec (  0.325%)
 integral evaluation            ...        0 min,  0.004 sec ( 20.114%)
 iterations                     ...        0 min,  0.004 sec ( 21.876%)
 molecular gradient             ...        0 min,  0.011 sec ( 55.267%)
 printout                       ...        0 min,  0.000 sec (  0.605%)

         :::::::::::::::::::::::::::::::::::::::::::::::::::::
         ::                     SUMMARY                     ::
         :::::::::::::::::::::::::::::::::::::::::::::::::::::
         :: total energy             -42.136358725975 Eh    ::
         :: gradient norm              0.002753729846 Eh/a0 ::
         :: HOMO-LUMO gap              1.248322724041 eV    ::
         ::.................................................::
         :: SCC energy               -42.636311727193 Eh    ::
         :: -> isotropic ES            0.113982606517 Eh    ::
         :: -> anisotropic ES         -0.005161804783 Eh    ::
         :: -> anisotropic XC          0.013719637620 Eh    ::
         :: -> dispersion             -0.022028671557 Eh    ::
         :: repulsion energy           0.499736725594 Eh    ::
         :: add. restraining           0.000177477833 Eh    ::
         :: total charge               1.000000000000 e     ::
         :::::::::::::::::::::::::::::::::::::::::::::::::::::

           -------------------------------------------------
          |                Property Printout                |
           -------------------------------------------------

    * Orbital Energies and Occupations

         #    Occupation            Energy/Eh            Energy/eV
      -------------------------------------------------------------
         1        2.0000           -0.9005254             -24.5045
       ...           ...                  ...                  ...
        25        2.0000           -0.6665245             -18.1371
        26        2.0000           -0.6602512             -17.9663
        27        2.0000           -0.6574760             -17.8908
        28        2.0000           -0.6412707             -17.4499
        29        2.0000           -0.6311134             -17.1735
        30        2.0000           -0.6186440             -16.8342
        31        2.0000           -0.6160840             -16.7645
        32        1.9999           -0.5974573             -16.2576
        33        1.9999           -0.5949259             -16.1888
        34        1.9997           -0.5820637             -15.8388
        35        1.9985           -0.5541104             -15.0781
        36        1.9977           -0.5474921             -14.8980
        37        1.5715           -0.4605899             -12.5333 (HOMO)
        38        0.3366           -0.4147149             -11.2850 (LUMO)
        39        0.0770           -0.3890624             -10.5869
        40        0.0190           -0.3664735              -9.9723
        41        0.0001           -0.2785712              -7.5803
        42        0.0000           -0.2413161              -6.5665
        43        0.0000           -0.1903448              -5.1795
        44                         -0.1678114              -4.5664
        45                         -0.1357944              -3.6952
        46                         -0.1278251              -3.4783
        47                         -0.0527898              -1.4365
        48                         -0.0347244              -0.9449
       ...                                ...                  ...
        67                          0.5930339              16.1373
      -------------------------------------------------------------
                  HL-Gap            0.0458750 Eh            1.2483 eV
             Fermi-level           -0.4400124 Eh          -11.9733 eV

     #   Z          covCN         q      C6AA      α(0)
     1   6 C        3.691    -0.088    22.380     6.770
     2   7 N        2.820     0.062    20.158     6.668
     3   6 C        3.023     0.030    27.302     8.571
     4   7 N        2.788    -0.069    22.577     7.057
     5   6 C        3.019     0.103    25.700     8.316
     6   6 C        3.098    -0.023    28.447     8.741
     7   6 C        2.746     0.270    22.447     7.758
     8   8 O        0.857    -0.347    20.659     6.094
     9   7 N        2.690    -0.214    25.664     7.524
    10   6 C        2.707    -0.021    28.513     8.740
    11   6 C        2.698     0.228    23.207     7.885
    12   8 O        1.711    -0.129    16.250     5.443
    13   7 N        2.737    -0.040    22.024     6.970
    14   6 C        3.698    -0.077    22.139     6.730
    15   1 H        0.924     0.100     1.788     2.091
    16   1 H        0.925     0.098     1.801     2.099
    17   1 H        0.925     0.125     1.576     1.963
    18   1 H        0.927     0.111     1.684     2.030
    19   1 H        0.860     0.223     0.994     1.562
    20   1 H        0.927     0.094     1.840     2.121
    21   1 H        0.926     0.071     2.070     2.250
    22   1 H        0.924     0.083     1.949     2.183
    23   1 H        0.924     0.083     1.951     2.184
    24   1 H        0.925     0.110     1.700     2.039
    25   1 H        0.860     0.218     1.018     1.581

 Mol. C6AA /au·bohr⁶  :       6641.068420
 Mol. C8AA /au·bohr⁸  :     152885.076970
 Mol. α(0) /au        :        125.368493


Wiberg/Mayer (AO) data.
largest (>0.10) Wiberg bond orders for each atom

 ---------------------------------------------------------------------------
     #   Z sym  total        # sym  WBO       # sym  WBO       # sym  WBO
 ---------------------------------------------------------------------------
     1   6 C    3.927 --     2 N    0.991    17 H    0.966    16 H    0.966
                            15 H    0.960
     2   7 N    3.584 --     3 C    1.329     6 C    1.142     1 C    0.991
     3   6 C    3.716 --     2 N    1.329     4 N    1.229    18 H    0.957
     4   7 N    3.536 --     3 C    1.229     5 C    1.196    25 H    0.923
     5   6 C    3.883 --     6 C    1.308     4 N    1.196    13 N    1.190
     6   6 C    3.855 --     5 C    1.308     2 N    1.142     7 C    1.119
     7   6 C    3.856 --     8 O    1.723     6 C    1.119     9 N    0.952
     8   8 O    2.038 --     7 C    1.723     9 N    0.149
     9   7 N    3.349 --    11 C    1.140     7 C    0.952    19 H    0.924
                             8 O    0.149
    10   6 C    3.340 --    12 O    1.093    21 H    0.974    20 H    0.965
                            11 C    0.238
    11   6 C    3.770 --    12 O    1.247     9 N    1.140    13 N    1.057
                            10 C    0.238
    12   8 O    2.541 --    11 C    1.247    10 C    1.093
    13   7 N    3.496 --     5 C    1.190    11 C    1.057    14 C    0.982
    14   6 C    3.937 --    13 N    0.982    22 H    0.971    23 H    0.971
                            24 H    0.970
    15   1 H    0.983 --     1 C    0.960
    16   1 H    0.985 --     1 C    0.966
    17   1 H    0.984 --     1 C    0.966
    18   1 H    0.987 --     3 C    0.957
    19   1 H    0.950 --     9 N    0.924
    20   1 H    0.990 --    10 C    0.965
    21   1 H    0.994 --    10 C    0.974
    22   1 H    0.989 --    14 C    0.971
    23   1 H    0.989 --    14 C    0.971
    24   1 H    0.988 --    14 C    0.970
    25   1 H    0.952 --     4 N    0.923
 ---------------------------------------------------------------------------

Topologies differ in total number of bonds
Writing topology from bond orders to xtbtopo.mol

molecular dipole:
                 x           y           z       tot (Debye)
 q only:        0.643      -2.104      -0.037
   full:        0.492      -2.332      -0.008       6.058
molecular quadrupole (traceless):
                xx          xy          yy          xz          yz          zz
 q only:       27.611      -8.112      -6.906       0.091       0.618     -20.705
  q+dip:       24.446     -12.835      -4.559      -0.546       0.773     -19.888
   full:       24.264     -12.627      -5.800      -0.504       0.727     -18.463

           -------------------------------------------------
          |                Geometry Summary                 |
           -------------------------------------------------

      molecular mass/u    :      195.1988581
   center of mass at/Å    :        0.1393134       0.1672809      -0.0018474
  moments of inertia/u·Å² :        0.3922490E+03   0.9561701E+03   0.1341857E+04
rotational constants/cm⁻¹ :        0.4297687E-01   0.1763037E-01   0.1256292E-01

 * 25 selected distances

     #   Z          #   Z                                           value/Å
     1   6 C        2   7 N                                       1.4367882
     2   7 N        3   6 C                                       1.3390578
     3   6 C        4   7 N                                       1.3618072
     4   7 N        5   6 C                                       1.3632572
     2   7 N        6   6 C                                       1.3779521
     5   6 C        6   6 C                                       1.3969071
     6   6 C        7   6 C                                       1.4254563
     7   6 C        8   8 O                                       1.1979571
     9   7 N       11   6 C                                       1.4012086
    10   6 C       12   8 O                                       1.3613623
    11   6 C       12   8 O                                       1.2968158
     5   6 C       13   7 N                                       1.3536252
    11   6 C       13   7 N                                       1.4158543
    13   7 N       14   6 C                                       1.4506388 (max)
     1   6 C       15   1 H                                       1.0913006
     1   6 C       16   1 H                                       1.0895367
     1   6 C       17   1 H                                       1.0885373
     3   6 C       18   1 H                                       1.0692525
     9   7 N       19   1 H                                       1.0137141
    10   6 C       20   1 H                                       1.0686814
    10   6 C       21   1 H                                       1.0728122
    14   6 C       22   1 H                                       1.0915305
    14   6 C       23   1 H                                       1.0917384
    14   6 C       24   1 H                                       1.0852008
     4   7 N       25   1 H                                       1.0077471 (min)

 * 5 distinct bonds (by element types)

   Z      Z             #   av. dist./Å        max./Å        min./Å
   1 H    6 C           9     1.0831767     1.0917384     1.0686814
   6 C    6 C           2     1.4111817     1.4254563     1.3969071
   1 H    7 N           2     1.0107306     1.0137141     1.0077471
   6 C    7 N           9     1.3889099     1.4506388     1.3390578
   6 C    8 O           3     1.2853784     1.3613623     1.1979571


optimized geometry written to: xtbopt.xyz


           -------------------------------------------------
          | TOTAL ENERGY              -42.136358725975 Eh   |
          | GRADIENT NORM               0.002753729846 Eh/α |
          | HOMO-LUMO GAP               1.248322724041 eV   |
           -------------------------------------------------

------------------------------------------------------------------------
 * finished run on 2024/06/05 at 20:00:15.777     
------------------------------------------------------------------------
 total:
 * wall-time:     0 d,  0 h,  0 min,  2.885 sec
 *  cpu-time:     0 d,  0 h,  0 min,  2.600 sec
 * ratio c/w:     0.901 speedup
 SCF:
 * wall-time:     0 d,  0 h,  0 min,  0.058 sec
 *  cpu-time:     0 d,  0 h,  0 min,  0.033 sec
 * ratio c/w:     0.568 speedup
 ANC optimizer:
 * wall-time:     0 d,  0 h,  0 min,  2.787 sec
 *  cpu-time:     0 d,  0 h,  0 min,  2.556 sec
 * ratio c/w:     0.917 speedup

