25
 energy: -42.129991793281 gnorm: 0.009961335449 xtb: 6.6.1 (8d0f1dd)
C            3.28767743661515        1.01356966538180        0.21866386370806
N            2.40445529687312        0.01906701769644        0.14877083798554
C            2.62368287982684       -1.30061960170382        0.38891646584321
N            1.45855992059380       -1.97860698707877        0.28768380850705
C            0.46989248374727       -1.08289530457701       -0.03248984348590
C            1.06157090363948        0.15089653626813       -0.13980161084015
C            0.28411509062809        1.41294747169863       -0.43426975691533
O            0.71609302579385        2.48517063531123        0.12404527565712
N           -1.14864712724147        1.06314645694780       -0.09461171939958
C           -2.00936486524600        2.20059082838419        0.10228295691620
C           -1.72572431069437       -0.16815578425218       -0.11412600762676
O           -2.91605848747717       -0.34126316932685       -0.05599766964287
N           -0.85793043049404       -1.29438743019079       -0.15682617683371
C           -1.43736058524733       -2.61905988600599       -0.16519893887777
H            4.31284645172445        0.79809740190667        0.45232437130757
H            0.25318722114247        1.51909715163460       -1.55848439816581
H            2.92221828247568        2.01849053390284        0.08335231963131
H            3.57593554562777       -1.73419402121237        0.61810342132665
H           -1.39614048692178        3.01029413036459        0.50115477427683
H           -2.45832679503946        2.52382333284405       -0.84201264666370
H           -2.81177389704383        1.93869865432536        0.79025908493869
H           -1.30113581166927       -3.11814627150437        0.79663178085765
H           -0.99693404015897       -3.21807582052897       -0.96269995318178
H           -2.50637074482644       -2.50587263634599       -0.34603232359652
H            1.35596455747229       -2.97437436234201        0.42153370217944
