      -----------------------------------------------------------      
     |                   =====================                   |     
     |                           x T B                           |     
     |                   =====================                   |     
     |                         S. Grimme                         |     
     |          Mulliken Center for Theoretical Chemistry        |     
     |                    University of Bonn                     |     
      -----------------------------------------------------------      

   * xtb version 6.6.1 (8d0f1dd) compiled by 'conda@1efc2f54142f' on 2023-08-01

   xtb is free software: you can redistribute it and/or modify it under
   the terms of the GNU Lesser General Public License as published by
   the Free Software Foundation, either version 3 of the License, or
   (at your option) any later version.
   
   xtb is distributed in the hope that it will be useful,
   but WITHOUT ANY WARRANTY; without even the implied warranty of
   MERCHANTABILITY or FITNESS FOR A PARTICULAR PURPOSE.  See the
   GNU Lesser General Public License for more details.
   
   Cite this work as:
   * C. Bannwarth, E. Caldeweyher, S. Ehlert, A. Hansen, P. Pracht,
     J. Seibert, S. Spicher, S. Grimme, WIREs Comput. Mol. Sci., 2020, 11,
     e01493. DOI: 10.1002/wcms.1493
   
   for GFN2-xTB:
   * C. Bannwarth, S. Ehlert and S. Grimme., J. Chem. Theory Comput., 2019,
     15, 1652-1671. DOI: 10.1021/acs.jctc.8b01176
   for GFN1-xTB:
   * S. Grimme, C. Bannwarth, P. Shushkov, J. Chem. Theory Comput., 2017,
     13, 1989-2009. DOI: 10.1021/acs.jctc.7b00118
   for GFN0-xTB:
   * P. Pracht, E. Caldeweyher, S. Ehlert, S. Grimme, ChemRxiv, 2019, preprint.
     DOI: 10.26434/chemrxiv.8326202.v1
   for GFN-FF:
   * S. Spicher and S. Grimme, Angew. Chem. Int. Ed., 2020, 59, 15665-15673.
     DOI: 10.1002/anie.202004239
   
   for ALPB and GBSA implicit solvation:
   * S. Ehlert, M. Stahn, S. Spicher, S. Grimme, J. Chem. Theory Comput.,
     2021, 17, 4250-4261. DOI: 10.1021/acs.jctc.1c00471
   
   for DFT-D4:
   * E. Caldeweyher, C. Bannwarth and S. Grimme, J. Chem. Phys., 2017,
     147, 034112. DOI: 10.1063/1.4993215
   * E. Caldeweyher, S. Ehlert, A. Hansen, H. Neugebauer, S. Spicher,
     C. Bannwarth and S. Grimme, J. Chem. Phys., 2019, 150, 154122.
     DOI: 10.1063/1.5090222
   * E. Caldeweyher, J.-M. Mewes, S. Ehlert and S. Grimme, Phys. Chem. Chem. Phys.
     2020, 22, 8499-8512. DOI: 10.1039/D0CP00502A
   
   for sTDA-xTB:
   * S. Grimme and C. Bannwarth, J. Chem. Phys., 2016, 145, 054103.
     DOI: 10.1063/1.4959605
   
   in the mass-spec context:
   * V. Asgeirsson, C. Bauer and S. Grimme, Chem. Sci., 2017, 8, 4879.
     DOI: 10.1039/c7sc00601b
   * J. Koopman and S. Grimme, ACS Omega 2019, 4, 12, 15120-15133.
     DOI: 10.1021/acsomega.9b02011
   
   for metadynamics refer to:
   * S. Grimme, J. Chem. Theory Comput., 2019, 155, 2847-2862
     DOI: 10.1021/acs.jctc.9b00143
   
   for SPH calculations refer to:
   * S. Spicher and S. Grimme, J. Chem. Theory Comput., 2021, 17, 1701-1714
     DOI: 10.1021/acs.jctc.0c01306
   
   with help from (in alphabetical order)
   P. Atkinson, C. Bannwarth, F. Bohle, G. Brandenburg, E. Caldeweyher
   M. Checinski, S. Dohm, S. Ehlert, S. Ehrlich, I. Gerasimov, C. Hölzer
   A. Katbashev, J. Koopman, C. Lavigne, S. Lehtola, F. März, M. Müller,
   F. Musil, H. Neugebauer, J. Pisarek, C. Plett, P. Pracht, F. Pultar,
   J. Seibert, P. Shushkov, S. Spicher, M. Stahn, M. Steiner, T. Strunk,
   J. Stückrath, T. Rose, and J. Unsleber
   
 * started run on 2024/04/06 at 11:13:59.096     

           -------------------------------------------------
          |                Calculation Setup                |
           -------------------------------------------------

          program call               : xtb struc.xyz --opt loose --input .xc1 --gfn2
          hostname                   : n-62-30-23
          coordinate file            : struc.xyz
          omp threads                :                     1

   ID    Z sym.   atoms
    1    7 N      1, 17
    2    6 C      2-6, 8, 9, 11-16, 18-23, 25, 26, 28-33
    3    8 O      7, 10, 24, 27
    4    1 H      34-72
constraining bond 21 29 to    5.0000000 Å, actual value:    2.3954443 Å

           -------------------------------------------------
          |                 G F N 2 - x T B                 |
           -------------------------------------------------

        Reference                      10.1021/acs.jctc.8b01176
      * Hamiltonian:
        H0-scaling (s, p, d)           1.850000    2.230000    2.230000
        zeta-weighting                 0.500000
      * Dispersion:
        s8                             2.700000
        a1                             0.520000
        a2                             5.000000
        s9                             5.000000
      * Repulsion:
        kExp                           1.500000    1.000000
        rExp                           1.000000
      * Coulomb:
        alpha                          2.000000
        third order                    shell-resolved
        anisotropic                    true
        a3                             3.000000
        a5                             4.000000
        cn-shift                       1.200000
        cn-exp                         4.000000
        max-rad                        5.000000


          ...................................................
          :                      SETUP                      :
          :.................................................:
          :  # basis functions                 171          :
          :  # atomic orbitals                 171          :
          :  # shells                          105          :
          :  # electrons                       180          :
          :  max. iterations                   250          :
          :  Hamiltonian                  GFN2-xTB          :
          :  restarted?                      false          :
          :  GBSA solvation                  false          :
          :  PC potential                    false          :
          :  electronic temp.         5000.0000000     K    :
          :  accuracy                    1.0000000          :
          :  -> integral cutoff          0.2500000E+02      :
          :  -> integral neglect         0.1000000E-07      :
          :  -> SCF convergence          0.1000000E-05 Eh   :
          :  -> wf. convergence          0.1000000E-03 e    :
          :  Broyden damping             0.4000000          :
          ...................................................

 iter      E             dE          RMSdq      gap      omega  full diag
   1   -100.5973919 -0.100597E+03  0.374E+00    3.20       0.0  T
   2   -100.7362642 -0.138872E+00  0.221E+00    1.08       1.0  T
   3   -100.7049001  0.313641E-01  0.141E+00    3.29       1.0  T
   4   -100.7721690 -0.672689E-01  0.526E-01    1.50       1.0  T
   5   -100.7894292 -0.172602E-01  0.190E-01    1.98       1.0  T
   6   -100.7911978 -0.176856E-02  0.792E-02    1.77       1.0  T
   7   -100.7914750 -0.277198E-03  0.375E-02    1.83       1.0  T
   8   -100.7914914 -0.164582E-04  0.140E-02    1.83       1.0  T
   9   -100.7914976 -0.616739E-05  0.474E-03    1.82       2.5  T
  10   -100.7914988 -0.118227E-05  0.172E-03    1.82       6.8  T
  11   -100.7914989 -0.139928E-06  0.766E-04    1.82      15.4  T
  12   -100.7914989 -0.773143E-08  0.318E-04    1.82      37.0  T

   *** convergence criteria satisfied after 12 iterations ***

         #    Occupation            Energy/Eh            Energy/eV
      -------------------------------------------------------------
         1        2.0000           -0.8078051             -21.9815
       ...           ...                  ...                  ...
        84        1.9966           -0.5157491             -14.0342
        85        1.9959           -0.5128261             -13.9547
        86        1.9840           -0.4911498             -13.3649
        87        1.9795           -0.4872543             -13.2589
        88        1.9640           -0.4782114             -13.0128
        89        1.8920           -0.4602041             -12.5228
        90        1.8557           -0.4553147             -12.3897 (HOMO)
        91        0.3166           -0.3884132             -10.5693 (LUMO)
        92        0.0218           -0.3434697              -9.3463
        93        0.0041           -0.3169887              -8.6257
        94        0.0034           -0.3139726              -8.5436
        95        0.0029           -0.3112618              -8.4699
       ...           ...                  ...                  ...
       171                          0.5822580              15.8440
      -------------------------------------------------------------
                  HL-Gap            0.0669015 Eh            1.8205 eV
             Fermi-level           -0.4148687 Eh          -11.2892 eV

 SCC (total)                   0 d,  0 h,  0 min,  0.190 sec
 SCC setup                      ...        0 min,  0.001 sec (  0.696%)
 Dispersion                     ...        0 min,  0.002 sec (  1.105%)
 classical contributions        ...        0 min,  0.001 sec (  0.309%)
 integral evaluation            ...        0 min,  0.018 sec (  9.556%)
 iterations                     ...        0 min,  0.098 sec ( 51.544%)
 molecular gradient             ...        0 min,  0.069 sec ( 36.441%)
 printout                       ...        0 min,  0.001 sec (  0.341%)

         :::::::::::::::::::::::::::::::::::::::::::::::::::::
         ::                     SUMMARY                     ::
         :::::::::::::::::::::::::::::::::::::::::::::::::::::
         :: total energy             -98.192877669970 Eh    ::
         :: gradient norm              0.698059856464 Eh/a0 ::
         :: HOMO-LUMO gap              1.820481192090 eV    ::
         ::.................................................::
         :: SCC energy              -100.791498925389 Eh    ::
         :: -> isotropic ES            0.109302908418 Eh    ::
         :: -> anisotropic ES          0.005415138735 Eh    ::
         :: -> anisotropic XC          0.042392697176 Eh    ::
         :: -> dispersion             -0.075527661009 Eh    ::
         :: repulsion energy           1.386151658689 Eh    ::
         :: add. restraining           1.211253244224 Eh    ::
         :: total charge               1.000000000108 e     ::
         :::::::::::::::::::::::::::::::::::::::::::::::::::::

      ----------------------------------------------------------- 
     |                   =====================                   |
     |                        A N C O P T                        |
     |                   =====================                   |
     |               Approximate Normal Coordinate               |
     |                Rational Function Optimizer                |
      ----------------------------------------------------------- 

          ...................................................
          :                      SETUP                      :
          :.................................................:
          :   optimization level             loose          :
          :   max. optcycles                   200          :
          :   ANC micro-cycles                  20          :
          :   degrees of freedom               210          :
          :.................................................:
          :   RF solver                   davidson          :
          :   write xtbopt.log                true          :
          :   linear?                        false          :
          :   energy convergence         0.5000000E-04 Eh   :
          :   grad. convergence          0.4000000E-02 Eh/α :
          :   maxmium RF displ.          1.0000000          :
          :   Hlow (freq-cutoff)         0.1000000E-01      :
          :   Hmax (freq-cutoff)         5.0000000          :
          :   S6 in model hess.         20.0000000          :
          ...................................................

generating ANC from model Hessian ...
Using Lindh-Hessian (1995)
 Shifting diagonal of input Hessian by   0.13522108374911926     
 Lowest  eigenvalues of input Hessian
    0.010000    0.129087    0.000000    0.000000    0.000000    0.000000
    0.000000    0.000000    0.135275    0.135368    0.135548    0.135722
    0.135763    0.136126    0.136185    0.136432    0.136959    0.137158
 Highest eigenvalues
    2.161182    2.171179    2.172614    2.304664    2.309826    2.312276


........................................................................
.............................. CYCLE    1 ..............................
........................................................................

 iter      E             dE          RMSdq      gap      omega  full diag
   1   -100.7914989 -0.100791E+03  0.114E-04    1.82       0.0  T
   2   -100.7914989 -0.678995E-10  0.713E-05    1.82     165.2  T
   3   -100.7914989  0.665210E-10  0.496E-05    1.82     237.5  T
     SCC iter.                  ...        0 min,  0.027 sec
     gradient                   ...        0 min,  0.070 sec
 * total energy  :   -98.1928777 Eh     change       -0.4035485E-08 Eh
   gradient norm :     0.6980607 Eh/α   predicted     0.0000000E+00 (-100.00%)
   displ. norm   :     0.5249339 α      lambda       -0.3249433E+00
   maximum displ.:     0.1905773 α      in ANC's #197, #195, #129, ...

........................................................................
.............................. CYCLE    2 ..............................
........................................................................

 iter      E             dE          RMSdq      gap      omega  full diag
   1   -100.7163788 -0.100716E+03  0.478E-01    1.65       0.0  T
   2   -100.7163093  0.695382E-04  0.343E-01    1.76       1.0  T
   3   -100.7147875  0.152174E-02  0.229E-01    1.60       1.0  T
   4   -100.7180764 -0.328887E-02  0.548E-02    1.76       1.0  T
   5   -100.7183285 -0.252083E-03  0.177E-02    1.68       1.0  T
   6   -100.7183540 -0.255091E-04  0.615E-03    1.70       1.9  T
   7   -100.7183552 -0.116739E-05  0.298E-03    1.70       4.0  T
   8   -100.7183553 -0.114638E-06  0.107E-03    1.70      11.0  T
   9   -100.7183553 -0.408033E-07  0.464E-04    1.70      25.4  T
  10   -100.7183553 -0.660629E-08  0.184E-04    1.70      64.2  T
     SCC iter.                  ...        0 min,  0.080 sec
     gradient                   ...        0 min,  0.069 sec
 * total energy  :   -98.4491170 Eh     change       -0.2562394E+00 Eh
   gradient norm :     0.3876340 Eh/α   predicted    -0.2072435E+00 ( -19.12%)
   displ. norm   :     0.6163547 α      lambda       -0.2132286E+00
   maximum displ.:     0.2145891 α      in ANC's #129, #126, #133, ...

........................................................................
.............................. CYCLE    3 ..............................
........................................................................

 iter      E             dE          RMSdq      gap      omega  full diag
   1   -100.5870744 -0.100587E+03  0.432E-01    1.46       0.0  T
   2   -100.5832001  0.387429E-02  0.387E-01    1.54       1.0  T
   3   -100.5865826 -0.338242E-02  0.242E-01    1.53       1.0  T
   4   -100.5885242 -0.194164E-02  0.924E-02    1.41       1.0  T
   5   -100.5892839 -0.759700E-03  0.327E-02    1.55       1.0  T
   6   -100.5894044 -0.120458E-03  0.855E-03    1.51       1.4  T
   7   -100.5894063 -0.197537E-05  0.420E-03    1.51       2.8  T
   8   -100.5894064 -0.829782E-07  0.254E-03    1.51       4.6  T
   9   -100.5894069 -0.433488E-06  0.630E-04    1.51      18.7  T
  10   -100.5894069 -0.191232E-07  0.325E-04    1.51      36.2  T
     SCC iter.                  ...        0 min,  0.081 sec
     gradient                   ...        0 min,  0.069 sec
 * total energy  :   -98.6151791 Eh     change       -0.1660620E+00 Eh
   gradient norm :     0.2225263 Eh/α   predicted    -0.1471175E+00 ( -11.41%)
   displ. norm   :     0.6350637 α      lambda       -0.1294295E+00
   maximum displ.:     0.2314836 α      in ANC's #129, #126, #107, ...

........................................................................
.............................. CYCLE    4 ..............................
........................................................................

 iter      E             dE          RMSdq      gap      omega  full diag
   1   -100.4451650 -0.100445E+03  0.362E-01    1.23       0.0  T
   2   -100.4247350  0.204300E-01  0.544E-01    1.18       1.0  T
   3   -100.4476807 -0.229457E-01  0.185E-01    1.29       1.0  T
   4   -100.4441745  0.350621E-02  0.191E-01    1.05       1.0  T
   5   -100.4484076 -0.423308E-02  0.467E-02    1.27       1.0  T
   6   -100.4486010 -0.193381E-03  0.145E-02    1.23       1.0  T
   7   -100.4486069 -0.590337E-05  0.800E-03    1.23       1.5  T
   8   -100.4486080 -0.115511E-05  0.457E-03    1.23       2.6  T
   9   -100.4486097 -0.163856E-05  0.146E-03    1.23       8.1  T
  10   -100.4486099 -0.193156E-06  0.663E-04    1.24      17.8  T
  11   -100.4486099 -0.164906E-07  0.375E-04    1.24      31.4  T
     SCC iter.                  ...        0 min,  0.089 sec
     gradient                   ...        0 min,  0.069 sec
 * total energy  :   -98.7177451 Eh     change       -0.1025660E+00 Eh
   gradient norm :     0.1519317 Eh/α   predicted    -0.9081462E-01 ( -11.46%)
   displ. norm   :     0.6289038 α      lambda       -0.8254623E-01
   maximum displ.:     0.2259233 α      in ANC's #107, #129, #126, ...

........................................................................
.............................. CYCLE    5 ..............................
........................................................................

 iter      E             dE          RMSdq      gap      omega  full diag
   1   -100.3192054 -0.100319E+03  0.414E-01    0.86       0.0  T
   2   -100.2576449  0.615605E-01  0.806E-01    0.77       1.0  T
   3   -100.3231223 -0.654775E-01  0.219E-01    0.87       1.0  T
   4   -100.3199455  0.317682E-02  0.194E-01    0.75       1.0  T
   5   -100.3232858 -0.334024E-02  0.941E-02    0.89       1.0  T
   6   -100.3240864 -0.800662E-03  0.415E-02    0.85       1.0  T
   7   -100.3241722 -0.857257E-04  0.252E-02    0.85       1.0  T
   8   -100.3242025 -0.303647E-04  0.129E-02    0.85       1.0  T
   9   -100.3242106 -0.810662E-05  0.735E-03    0.85       1.6  T
  10   -100.3242160 -0.536961E-05  0.222E-03    0.85       5.3  T
  11   -100.3242162 -0.184060E-06  0.128E-03    0.86       9.2  T
  12   -100.3242164 -0.181393E-06  0.457E-04    0.85      25.8  T
  13   -100.3242164 -0.119533E-07  0.157E-04    0.85      75.2  T
     SCC iter.                  ...        0 min,  0.104 sec
     gradient                   ...        0 min,  0.069 sec
 * total energy  :   -98.7837600 Eh     change       -0.6601496E-01 Eh
   gradient norm :     0.1118447 Eh/α   predicted    -0.5759747E-01 ( -12.75%)
   displ. norm   :     0.6337385 α      lambda       -0.5575658E-01
   maximum displ.:     0.2391326 α      in ANC's #107, #129, #126, ...

........................................................................
.............................. CYCLE    6 ..............................
........................................................................

 iter      E             dE          RMSdq      gap      omega  full diag
   1   -100.2241831 -0.100224E+03  0.479E-01    0.45       0.0  T
   2   -100.1615753  0.626078E-01  0.796E-01    0.41       1.0  T
   3   -100.2262758 -0.647005E-01  0.288E-01    0.47       1.0  T
   4   -100.2157610  0.105148E-01  0.378E-01    0.49       1.0  T
   5   -100.2255529 -0.979192E-02  0.162E-01    0.42       1.0  T
   6   -100.2281628 -0.260992E-02  0.915E-02    0.49       1.0  T
   7   -100.2284492 -0.286395E-03  0.673E-02    0.47       1.0  T
   8   -100.2286883 -0.239117E-03  0.416E-02    0.47       1.0  T
   9   -100.2288483 -0.159997E-03  0.162E-02    0.48       1.0  T
  10   -100.2288733 -0.249866E-04  0.394E-03    0.47       3.0  T
  11   -100.2288736 -0.311846E-06  0.305E-03    0.47       3.9  T
  12   -100.2288746 -0.975160E-06  0.990E-04    0.47      11.9  T
  13   -100.2288747 -0.821844E-07  0.225E-04    0.47      52.5  T
     SCC iter.                  ...        0 min,  0.104 sec
     gradient                   ...        0 min,  0.069 sec
 * total energy  :   -98.8285026 Eh     change       -0.4474253E-01 Eh
   gradient norm :     0.0848807 Eh/α   predicted    -0.3907491E-01 ( -12.67%)
   displ. norm   :     0.6205652 α      lambda       -0.3708075E-01
   maximum displ.:     0.2212274 α      in ANC's #107, #23, #129, ...

........................................................................
.............................. CYCLE    7 ..............................
........................................................................

 iter      E             dE          RMSdq      gap      omega  full diag
   1   -100.1648935 -0.100165E+03  0.465E-01    0.17       0.0  T
   2   -100.1463440  0.185495E-01  0.486E-01    0.17       1.0  T
   3   -100.1444132  0.193084E-02  0.423E-01    0.17       1.0  T
   4   -100.1342657  0.101475E-01  0.552E-01    0.14       1.0  T
   5   -100.1651322 -0.308665E-01  0.135E-01    0.14       1.0  T
   6   -100.1662671 -0.113490E-02  0.105E-01    0.22       1.0  T
   7   -100.1671572 -0.890084E-03  0.529E-02    0.21       1.0  T
   8   -100.1671370  0.201953E-04  0.506E-02    0.19       1.0  T
   9   -100.1673244 -0.187386E-03  0.269E-02    0.20       1.0  T
  10   -100.1673939 -0.694898E-04  0.711E-03    0.19       1.7  T
  11   -100.1673996 -0.565909E-05  0.151E-03    0.19       7.8  T
  12   -100.1673996 -0.432595E-07  0.644E-04    0.19      18.3  T
  13   -100.1673996 -0.197352E-07  0.218E-04    0.19      54.0  T
     SCC iter.                  ...        0 min,  0.104 sec
     gradient                   ...        0 min,  0.069 sec
 * total energy  :   -98.8542083 Eh     change       -0.2570570E-01 Eh
   gradient norm :     0.0679076 Eh/α   predicted    -0.2568068E-01 (  -0.10%)
   displ. norm   :     0.3961450 α      lambda       -0.1438669E-01
   maximum displ.:     0.1544514 α      in ANC's #23, #107, #26, ...

........................................................................
.............................. CYCLE    8 ..............................
........................................................................

 iter      E             dE          RMSdq      gap      omega  full diag
   1   -100.1600019 -0.100160E+03  0.242E-01    0.02       0.0  T
   2   -100.1556224  0.437947E-02  0.235E-01    0.06       1.0  T
   3   -100.1521270  0.349546E-02  0.303E-01    0.02       1.0  T
   4   -100.1512744  0.852515E-03  0.276E-01    0.08       1.0  T
   5   -100.1590535 -0.777907E-02  0.116E-01    0.02       1.0  T
   6   -100.1605694 -0.151592E-02  0.407E-02    0.03       1.0  T
   7   -100.1606671 -0.976379E-04  0.296E-02    0.03       1.0  T
   8   -100.1607348 -0.677594E-04  0.180E-02    0.02       1.0  T
   9   -100.1607580 -0.232168E-04  0.107E-02    0.02       1.1  T
  10   -100.1607678 -0.971451E-05  0.341E-03    0.02       3.5  T
  11   -100.1607687 -0.908329E-06  0.115E-03    0.02      10.2  T
  12   -100.1607688 -0.130497E-06  0.368E-04    0.02      32.0  T
  13   -100.1607688 -0.658760E-08  0.180E-04    0.02      65.5  T
     SCC iter.                  ...        0 min,  0.104 sec
     gradient                   ...        0 min,  0.070 sec
 * total energy  :   -98.8651708 Eh     change       -0.1096255E-01 Eh
   gradient norm :     0.0569789 Eh/α   predicted    -0.8322339E-02 ( -24.08%)
   displ. norm   :     0.4370393 α      lambda       -0.1374209E-01
   maximum displ.:     0.2143995 α      in ANC's #23, #26, #19, ...

........................................................................
.............................. CYCLE    9 ..............................
........................................................................

 iter      E             dE          RMSdq      gap      omega  full diag
   1   -100.1814862 -0.100181E+03  0.221E-01    0.19       0.0  T
   2   -100.1629199  0.185663E-01  0.404E-01    0.03       1.0  T
   3   -100.1804787 -0.175588E-01  0.181E-01    0.13       1.0  T
   4   -100.1810467 -0.567939E-03  0.165E-01    0.20       1.0  T
   5   -100.1832787 -0.223198E-02  0.528E-02    0.14       1.0  T
   6   -100.1832353  0.433919E-04  0.533E-02    0.13       1.0  T
   7   -100.1836555 -0.420189E-03  0.108E-02    0.14       1.1  T
   8   -100.1836329  0.225495E-04  0.156E-02    0.14       1.0  T
   9   -100.1836542 -0.212468E-04  0.980E-03    0.14       1.2  T
  10   -100.1836635 -0.935751E-05  0.219E-03    0.14       5.4  T
  11   -100.1836637 -0.179122E-06  0.111E-03    0.14      10.7  T
  12   -100.1836638 -0.122751E-06  0.368E-04    0.14      32.0  T
  13   -100.1836638 -0.581846E-08  0.158E-04    0.14      74.6  T
     SCC iter.                  ...        0 min,  0.103 sec
     gradient                   ...        0 min,  0.069 sec
 * total energy  :   -98.8754660 Eh     change       -0.1029522E-01 Eh
   gradient norm :     0.0405416 Eh/α   predicted    -0.8183635E-02 ( -20.51%)
   displ. norm   :     0.4432159 α      lambda       -0.9749302E-02
   maximum displ.:     0.2344781 α      in ANC's #23, #26, #19, ...

........................................................................
.............................. CYCLE   10 ..............................
........................................................................

 iter      E             dE          RMSdq      gap      omega  full diag
   1   -100.2048522 -0.100205E+03  0.199E-01    0.27       0.0  T
   2   -100.1870139  0.178383E-01  0.405E-01    0.12       1.0  T
   3   -100.2048395 -0.178256E-01  0.156E-01    0.21       1.0  T
   4   -100.2051321 -0.292587E-03  0.136E-01    0.24       1.0  T
   5   -100.2047742  0.357881E-03  0.141E-01    0.25       1.0  T
   6   -100.2069825 -0.220834E-02  0.431E-02    0.21       1.0  T
   7   -100.2069534  0.291147E-04  0.404E-02    0.23       1.0  T
   8   -100.2071770 -0.223536E-03  0.675E-03    0.23       1.7  T
   9   -100.2071786 -0.167734E-05  0.491E-03    0.23       2.4  T
  10   -100.2071808 -0.212221E-05  0.154E-03    0.23       7.7  T
  11   -100.2071808 -0.797387E-07  0.773E-04    0.23      15.3  T
  12   -100.2071809 -0.702231E-07  0.315E-04    0.23      37.4  T
     SCC iter.                  ...        0 min,  0.096 sec
     gradient                   ...        0 min,  0.069 sec
 * total energy  :   -98.8829338 Eh     change       -0.7467794E-02 Eh
   gradient norm :     0.0510920 Eh/α   predicted    -0.5832245E-02 ( -21.90%)
   displ. norm   :     0.4862085 α      lambda       -0.9027963E-02
   maximum displ.:     0.2532122 α      in ANC's #23, #26, #19, ...

........................................................................
.............................. CYCLE   11 ..............................
........................................................................

 iter      E             dE          RMSdq      gap      omega  full diag
   1   -100.2195456 -0.100220E+03  0.188E-01    0.31       0.0  T
   2   -100.2071638  0.123818E-01  0.362E-01    0.16       1.0  T
   3   -100.2179834 -0.108196E-01  0.187E-01    0.29       1.0  T
   4   -100.2186820 -0.698534E-03  0.152E-01    0.24       1.0  T
   5   -100.2189165 -0.234565E-03  0.140E-01    0.32       1.0  T
   6   -100.2210883 -0.217182E-02  0.500E-02    0.26       1.0  T
   7   -100.2211371 -0.487660E-04  0.389E-02    0.28       1.0  T
   8   -100.2213542 -0.217044E-03  0.743E-03    0.27       1.6  T
   9   -100.2213601 -0.595855E-05  0.282E-03    0.27       4.2  T
  10   -100.2213607 -0.545616E-06  0.105E-03    0.27      11.2  T
  11   -100.2213607 -0.156477E-07  0.681E-04    0.27      17.3  T
  12   -100.2213607 -0.715739E-07  0.202E-04    0.27      58.5  T
     SCC iter.                  ...        0 min,  0.097 sec
     gradient                   ...        0 min,  0.069 sec
 * total energy  :   -98.8902557 Eh     change       -0.7321840E-02 Eh
   gradient norm :     0.0573894 Eh/α   predicted    -0.5581203E-02 ( -23.77%)
   displ. norm   :     0.5404550 α      lambda       -0.9980113E-02
   maximum displ.:     0.2519217 α      in ANC's #23, #26, #19, ...

........................................................................
.............................. CYCLE   12 ..............................
........................................................................

 iter      E             dE          RMSdq      gap      omega  full diag
   1   -100.2300055 -0.100230E+03  0.182E-01    0.33       0.0  T
   2   -100.2215697  0.843584E-02  0.306E-01    0.14       1.0  T
   3   -100.2267660 -0.519631E-02  0.208E-01    0.34       1.0  T
   4   -100.2265598  0.206211E-03  0.187E-01    0.26       1.0  T
   5   -100.2293480 -0.278822E-02  0.102E-01    0.28       1.0  T
   6   -100.2306864 -0.133839E-02  0.399E-02    0.30       1.0  T
   7   -100.2307971 -0.110729E-03  0.294E-02    0.28       1.0  T
   8   -100.2309012 -0.104090E-03  0.427E-03    0.29       2.8  T
   9   -100.2309025 -0.135477E-05  0.189E-03    0.29       6.2  T
  10   -100.2309026 -0.888154E-07  0.763E-04    0.29      15.4  T
  11   -100.2309026 -0.183783E-07  0.435E-04    0.29      27.1  T
     SCC iter.                  ...        0 min,  0.089 sec
     gradient                   ...        0 min,  0.069 sec
 * total energy  :   -98.8981960 Eh     change       -0.7940343E-02 Eh
   gradient norm :     0.0553188 Eh/α   predicted    -0.6448064E-02 ( -18.79%)
   displ. norm   :     0.5297106 α      lambda       -0.9013059E-02
   maximum displ.:     0.2001644 α      in ANC's #23, #26, #19, ...

........................................................................
.............................. CYCLE   13 ..............................
........................................................................

 iter      E             dE          RMSdq      gap      omega  full diag
   1   -100.2354729 -0.100235E+03  0.201E-01    0.36       0.0  T
   2   -100.2155806  0.198923E-01  0.412E-01    0.05       1.0  T
   3   -100.2334308 -0.178501E-01  0.188E-01    0.36       1.0  T
   4   -100.2215877  0.118431E-01  0.331E-01    0.27       1.0  T
   5   -100.2362675 -0.146798E-01  0.530E-02    0.31       1.0  T
   6   -100.2363434 -0.758609E-04  0.415E-02    0.29       1.0  T
   7   -100.2365711 -0.227768E-03  0.828E-03    0.29       1.4  T
   8   -100.2365753 -0.420788E-05  0.528E-03    0.30       2.2  T
   9   -100.2365772 -0.187177E-05  0.287E-03    0.30       4.1  T
  10   -100.2365778 -0.549388E-06  0.126E-03    0.30       9.4  T
  11   -100.2365779 -0.135266E-06  0.400E-04    0.30      29.4  T
  12   -100.2365779 -0.111521E-07  0.193E-04    0.30      61.1  T
     SCC iter.                  ...        0 min,  0.096 sec
     gradient                   ...        0 min,  0.069 sec
 * total energy  :   -98.9053974 Eh     change       -0.7201348E-02 Eh
   gradient norm :     0.0569366 Eh/α   predicted    -0.5771061E-02 ( -19.86%)
   displ. norm   :     0.5258896 α      lambda       -0.9234624E-02
   maximum displ.:     0.2002838 α      in ANC's #19, #26, #55, ...

........................................................................
.............................. CYCLE   14 ..............................
........................................................................

 iter      E             dE          RMSdq      gap      omega  full diag
   1   -100.2407700 -0.100241E+03  0.237E-01    0.31       0.0  T
   2   -100.2085989  0.321711E-01  0.507E-01    0.03       1.0  T
   3   -100.2387199 -0.301210E-01  0.214E-01    0.37       1.0  T
   4   -100.2306931  0.802677E-02  0.317E-01    0.24       1.0  T
   5   -100.2415784 -0.108853E-01  0.108E-01    0.26       1.0  T
   6   -100.2427484 -0.116997E-02  0.342E-02    0.29       1.0  T
   7   -100.2428718 -0.123462E-03  0.113E-02    0.28       1.0  T
   8   -100.2428762 -0.440530E-05  0.888E-03    0.28       1.3  T
   9   -100.2428836 -0.733721E-05  0.542E-03    0.28       2.2  T
  10   -100.2428859 -0.228470E-05  0.233E-03    0.28       5.1  T
  11   -100.2428862 -0.311051E-06  0.845E-04    0.28      14.0  T
  12   -100.2428862 -0.717451E-07  0.303E-04    0.28      38.9  T
     SCC iter.                  ...        0 min,  0.096 sec
     gradient                   ...        0 min,  0.069 sec
 * total energy  :   -98.9132158 Eh     change       -0.7818456E-02 Eh
   gradient norm :     0.0696185 Eh/α   predicted    -0.5894282E-02 ( -24.61%)
   displ. norm   :     0.6038199 α      lambda       -0.1391543E-01
   maximum displ.:     0.2188586 α      in ANC's #19, #51, #26, ...

........................................................................
.............................. CYCLE   15 ..............................
........................................................................

 iter      E             dE          RMSdq      gap      omega  full diag
   1   -100.2511098 -0.100251E+03  0.323E-01    0.27       0.0  T
   2   -100.1983917  0.527181E-01  0.641E-01    0.09       1.0  T
   3   -100.2457645 -0.473728E-01  0.311E-01    0.37       1.0  T
   4   -100.2423120  0.345252E-02  0.344E-01    0.19       1.0  T
   5   -100.2513463 -0.903435E-02  0.176E-01    0.22       1.0  T
   6   -100.2545930 -0.324671E-02  0.755E-02    0.24       1.0  T
   7   -100.2551680 -0.574986E-03  0.363E-02    0.24       1.0  T
   8   -100.2552818 -0.113803E-03  0.213E-02    0.23       1.0  T
   9   -100.2553247 -0.429201E-04  0.111E-02    0.24       1.1  T
  10   -100.2553347 -0.993885E-05  0.441E-03    0.24       2.7  T
  11   -100.2553358 -0.108382E-05  0.212E-03    0.24       5.6  T
  12   -100.2553363 -0.532801E-06  0.677E-04    0.24      17.4  T
  13   -100.2553363 -0.401594E-07  0.135E-04    0.24      87.6  T
     SCC iter.                  ...        0 min,  0.104 sec
     gradient                   ...        0 min,  0.070 sec
 * total energy  :   -98.9261402 Eh     change       -0.1292438E-01 Eh
   gradient norm :     0.0981244 Eh/α   predicted    -0.9494835E-02 ( -26.54%)
   displ. norm   :     0.7443592 α      lambda       -0.2696674E-01
   maximum displ.:     0.2707293 α      in ANC's #202, #51, #19, ...

........................................................................
.............................. CYCLE   16 ..............................
........................................................................

 iter      E             dE          RMSdq      gap      omega  full diag
   1   -100.2699702 -0.100270E+03  0.479E-01    0.17       0.0  T
   2   -100.1344927  0.135478E+00  0.102E+00    0.36       1.0  T
   3   -100.2647779 -0.130285E+00  0.413E-01    0.27       1.0  T
   4   -100.2679508 -0.317288E-02  0.392E-01    0.06       1.0  T
   5   -100.2703821 -0.243137E-02  0.274E-01    0.08       1.0  T
   6   -100.2782288 -0.784670E-02  0.164E-01    0.09       1.0  T
   7   -100.2813540 -0.312512E-02  0.659E-02    0.12       1.0  T
   8   -100.2815802 -0.226272E-03  0.392E-02    0.10       1.0  T
   9   -100.2816980 -0.117787E-03  0.245E-02    0.11       1.0  T
  10   -100.2817475 -0.495130E-04  0.670E-03    0.11       1.8  T
  11   -100.2817514 -0.388238E-05  0.387E-03    0.11       3.0  T
  12   -100.2817533 -0.183162E-05  0.161E-03    0.11       7.3  T
  13   -100.2817535 -0.206802E-06  0.404E-04    0.11      29.2  T
  14   -100.2817535 -0.732132E-08  0.198E-04    0.11      59.4  T
     SCC iter.                  ...        0 min,  0.112 sec
     gradient                   ...        0 min,  0.069 sec
 * total energy  :   -98.9526796 Eh     change       -0.2653939E-01 Eh
   gradient norm :     0.1454204 Eh/α   predicted    -0.2095415E-01 ( -21.05%)
   displ. norm   :     0.8587207 α      lambda       -0.4795884E-01
   maximum displ.:     0.3834150 α      in ANC's #202, #207, #51, ...

........................................................................
.............................. CYCLE   17 ..............................
........................................................................

 iter      E             dE          RMSdq      gap      omega  full diag
   1   -100.2817221 -0.100282E+03  0.843E-01    0.19       0.0  T
   2    -99.7889457  0.492776E+00  0.195E+00    0.70       1.0  T
   3   -100.3067716 -0.517826E+00  0.517E-01    0.02       1.0  T
   4   -100.3106893 -0.391774E-02  0.396E-01    0.30       1.0  T
   5   -100.3057339  0.495543E-02  0.397E-01    0.10       1.0  T
   6   -100.3220246 -0.162907E-01  0.117E-01    0.17       1.0  T
   7   -100.3218334  0.191265E-03  0.119E-01    0.20       1.0  T
   8   -100.3237852 -0.195181E-02  0.382E-02    0.16       1.0  T
   9   -100.3238912 -0.106076E-03  0.158E-02    0.16       1.0  T
  10   -100.3239046 -0.133086E-04  0.686E-03    0.16       1.7  T
  11   -100.3239063 -0.175883E-05  0.289E-03    0.16       4.1  T
  12   -100.3239071 -0.750053E-06  0.874E-04    0.16      13.5  T
  13   -100.3239071 -0.251173E-07  0.428E-04    0.16      27.5  T
     SCC iter.                  ...        0 min,  0.104 sec
     gradient                   ...        0 min,  0.070 sec
 * total energy  :   -98.9864461 Eh     change       -0.3376654E-01 Eh
   gradient norm :     0.2080557 Eh/α   predicted    -0.4166184E-01 (  23.38%)
   displ. norm   :     0.5495029 α      lambda       -0.1315911E-01
   maximum displ.:     0.2101965 α      in ANC's #19, #26, #202, ...

........................................................................
.............................. CYCLE   18 ..............................
........................................................................

 iter      E             dE          RMSdq      gap      omega  full diag
   1   -100.2986815 -0.100299E+03  0.421E-01    0.20       0.0  T
   2   -100.1087825  0.189899E+00  0.118E+00    0.63       1.0  T
   3   -100.3020425 -0.193260E+00  0.297E-01    0.16       1.0  T
   4   -100.3025042 -0.461684E-03  0.265E-01    0.13       1.0  T
   5   -100.3061425 -0.363837E-02  0.180E-01    0.14       1.0  T
   6   -100.3104475 -0.430500E-02  0.443E-02    0.15       1.0  T
   7   -100.3105624 -0.114879E-03  0.340E-02    0.16       1.0  T
   8   -100.3106759 -0.113520E-03  0.163E-02    0.16       1.0  T
   9   -100.3106988 -0.229173E-04  0.618E-03    0.15       1.9  T
  10   -100.3107025 -0.362486E-05  0.148E-03    0.15       7.9  T
  11   -100.3107026 -0.120575E-06  0.793E-04    0.15      14.9  T
  12   -100.3107026 -0.332043E-07  0.397E-04    0.15      29.7  T
     SCC iter.                  ...        0 min,  0.095 sec
     gradient                   ...        0 min,  0.069 sec
 * total energy  :   -98.9915261 Eh     change       -0.5079926E-02 Eh
   gradient norm :     0.1692370 Eh/α   predicted    -0.8566439E-02 (  68.63%)
   displ. norm   :     0.7499659 α      lambda       -0.3132221E-01
   maximum displ.:     0.2749537 α      in ANC's #107, #51, #84, ...

........................................................................
.............................. CYCLE   19 ..............................
........................................................................

 iter      E             dE          RMSdq      gap      omega  full diag
   1   -100.2291535 -0.100229E+03  0.385E-01    0.03       0.0  T
   2   -100.2011381  0.280154E-01  0.489E-01    0.11       1.0  T
   3   -100.1996803  0.145774E-02  0.493E-01    0.08       1.0  T
   4   -100.2085711 -0.889076E-02  0.391E-01    0.06       1.0  T
   5   -100.2290453 -0.204742E-01  0.164E-01    0.03       1.0  T
   6   -100.2314486 -0.240337E-02  0.631E-02    0.03       1.0  T
   7   -100.2317676 -0.318920E-03  0.372E-02    0.02       1.0  T
   8   -100.2319189 -0.151304E-03  0.113E-02    0.02       1.0  T
   9   -100.2319246 -0.574787E-05  0.592E-03    0.02       2.0  T
  10   -100.2319241  0.494962E-06  0.411E-03    0.02       2.9  T
  11   -100.2319261 -0.193711E-05  0.123E-03    0.02       9.6  T
  12   -100.2319261 -0.181855E-07  0.866E-04    0.02      13.6  T
  13   -100.2319261 -0.812462E-07  0.246E-04    0.02      47.9  T
     SCC iter.                  ...        0 min,  0.105 sec
     gradient                   ...        0 min,  0.069 sec
 * total energy  :   -98.9748362 Eh     change        0.1668990E-01 Eh
   gradient norm :     0.2142542 Eh/α   predicted    -0.2446965E-01 (-246.61%)
   displ. norm   :     0.4913360 α      lambda       -0.4677070E-01
   maximum displ.:     0.1517762 α      in ANC's #107, #122, #55, ...

........................................................................
.............................. CYCLE   20 ..............................
........................................................................

 iter      E             dE          RMSdq      gap      omega  full diag
   1   -100.3121186 -0.100312E+03  0.404E-01    0.34       0.0  T
   2   -100.2067060  0.105413E+00  0.901E-01    0.36       1.0  T
   3   -100.3086938 -0.101988E+00  0.333E-01    0.32       1.0  T
   4   -100.2860975  0.225963E-01  0.494E-01    0.15       1.0  T
   5   -100.3183730 -0.322755E-01  0.984E-02    0.24       1.0  T
   6   -100.3191463 -0.773318E-03  0.448E-02    0.20       1.0  T
   7   -100.3193104 -0.164076E-03  0.229E-02    0.20       1.0  T
   8   -100.3193691 -0.586502E-04  0.668E-03    0.21       1.8  T
   9   -100.3193697 -0.606435E-06  0.444E-03    0.21       2.7  T
  10   -100.3193709 -0.125109E-05  0.132E-03    0.21       8.9  T
  11   -100.3193709 -0.342432E-07  0.750E-04    0.21      15.7  T
  12   -100.3193710 -0.437107E-07  0.364E-04    0.21      32.4  T
     SCC iter.                  ...        0 min,  0.096 sec
     gradient                   ...        0 min,  0.069 sec
 * total energy  :   -99.0034249 Eh     change       -0.2858876E-01 Eh
   gradient norm :     0.1701049 Eh/α   predicted    -0.2903086E-01 (   1.55%)
   displ. norm   :     0.4452848 α      lambda       -0.2939550E-01
   maximum displ.:     0.1417205 α      in ANC's #23, #202, #199, ...
 * RMSD in coord.:     0.6962175 α      energy gain  -0.8105473E+00 Eh

generating ANC from model Hessian ...
Using Lindh-Hessian (1995)
 Shifting diagonal of input Hessian by    1.9074810333407920E-002
 Lowest  eigenvalues of input Hessian
    0.010000    0.018082    0.000000    0.000000    0.000000    0.000000
    0.000000    0.000000    0.019107    0.019198    0.019231    0.019405
    0.019539    0.019615    0.019822    0.019927    0.019994    0.020526
 Highest eigenvalues
    1.936416    1.995634    2.050389    2.122832    2.190003    2.190516


........................................................................
.............................. CYCLE   21 ..............................
........................................................................

 iter      E             dE          RMSdq      gap      omega  full diag
   1   -100.3516191 -0.100352E+03  0.526E-01    0.31       0.0  T
   2   -100.1248563  0.226763E+00  0.139E+00    0.82       1.0  T
   3   -100.3639262 -0.239070E+00  0.280E-01    0.17       1.0  T
   4   -100.3467078  0.172184E-01  0.439E-01    0.17       1.0  T
   5   -100.3682052 -0.214974E-01  0.167E-01    0.14       1.0  T
   6   -100.3701592 -0.195403E-02  0.871E-02    0.14       1.0  T
   7   -100.3710359 -0.876699E-03  0.240E-02    0.15       1.0  T
   8   -100.3710890 -0.530753E-04  0.891E-03    0.14       1.3  T
   9   -100.3710925 -0.351479E-05  0.473E-03    0.14       2.5  T
  10   -100.3710931 -0.565973E-06  0.212E-03    0.14       5.6  T
  11   -100.3710934 -0.279933E-06  0.120E-03    0.14       9.8  T
  12   -100.3710935 -0.123158E-06  0.517E-04    0.14      22.8  T
  13   -100.3710935 -0.150410E-07  0.198E-04    0.14      59.4  T
     SCC iter.                  ...        0 min,  0.104 sec
     gradient                   ...        0 min,  0.071 sec
 * total energy  :   -98.9925423 Eh     change        0.1088266E-01 Eh
   gradient norm :     0.2583627 Eh/α   predicted     0.0000000E+00 (-100.00%)
   displ. norm   :     0.4439772 α      lambda       -0.7435225E-01
   maximum displ.:     0.1860621 α      in ANC's #53, #46, #146, ...

........................................................................
.............................. CYCLE   22 ..............................
........................................................................

 iter      E             dE          RMSdq      gap      omega  full diag
   1   -100.3823532 -0.100382E+03  0.288E-01    0.10       0.0  T
   2   -100.3815579  0.795327E-03  0.231E-01    0.10       1.0  T
   3   -100.3797013  0.185657E-02  0.217E-01    0.15       1.0  T
   4   -100.3719861  0.771524E-02  0.307E-01    0.25       1.0  T
   5   -100.3826504 -0.106643E-01  0.119E-01    0.11       1.0  T
   6   -100.3838870 -0.123659E-02  0.643E-02    0.10       1.0  T
   7   -100.3842482 -0.361189E-03  0.370E-02    0.10       1.0  T
   8   -100.3844055 -0.157294E-03  0.789E-03    0.10       1.5  T
   9   -100.3844080 -0.247885E-05  0.476E-03    0.10       2.5  T
  10   -100.3844086 -0.620664E-06  0.262E-03    0.10       4.5  T
  11   -100.3844095 -0.894645E-06  0.649E-04    0.10      18.2  T
  12   -100.3844095  0.596263E-08  0.413E-04    0.10      28.6  T
     SCC iter.                  ...        0 min,  0.097 sec
     gradient                   ...        0 min,  0.070 sec
 * total energy  :   -99.0448400 Eh     change       -0.5229774E-01 Eh
   gradient norm :     0.1012618 Eh/α   predicted    -0.4453947E-01 ( -14.83%)
   displ. norm   :     0.5348459 α      lambda       -0.3372966E-01
   maximum displ.:     0.2951492 α      in ANC's #53, #46, #63, ...

........................................................................
.............................. CYCLE   23 ..............................
........................................................................

 iter      E             dE          RMSdq      gap      omega  full diag
   1   -100.3937652 -0.100394E+03  0.322E-01    0.08       0.0  T
   2   -100.3723073  0.214580E-01  0.488E-01    0.29       1.0  T
   3   -100.3800661 -0.775879E-02  0.406E-01    0.28       1.0  T
   4   -100.3972423 -0.171762E-01  0.163E-01    0.12       1.0  T
   5   -100.3966468  0.595488E-03  0.157E-01    0.08       1.0  T
   6   -100.3983974 -0.175054E-02  0.105E-01    0.07       1.0  T
   7   -100.3995087 -0.111133E-02  0.399E-02    0.07       1.0  T
   8   -100.3996767 -0.167998E-03  0.679E-03    0.07       1.7  T
   9   -100.3996794 -0.269498E-05  0.387E-03    0.07       3.0  T
  10   -100.3996800 -0.573606E-06  0.219E-03    0.07       5.4  T
  11   -100.3996803 -0.361774E-06  0.445E-04    0.07      26.5  T
  12   -100.3996803  0.919248E-08  0.374E-04    0.07      31.5  T
     SCC iter.                  ...        0 min,  0.097 sec
     gradient                   ...        0 min,  0.069 sec
 * total energy  :   -99.0680432 Eh     change       -0.2320321E-01 Eh
   gradient norm :     0.0487423 Eh/α   predicted    -0.2168921E-01 (  -6.52%)
   displ. norm   :     0.6313688 α      lambda       -0.1778376E-01
   maximum displ.:     0.3360710 α      in ANC's #53, #24, #46, ...

........................................................................
.............................. CYCLE   24 ..............................
........................................................................

 iter      E             dE          RMSdq      gap      omega  full diag
   1   -100.3918237 -0.100392E+03  0.411E-01    0.10       0.0  T
   2   -100.3867528  0.507084E-02  0.358E-01    0.13       1.0  T
   3   -100.3767525  0.100003E-01  0.389E-01    0.22       1.0  T
   4   -100.3700608  0.669171E-02  0.452E-01    0.32       1.0  T
   5   -100.3904416 -0.203809E-01  0.200E-01    0.10       1.0  T
   6   -100.3945022 -0.406056E-02  0.948E-02    0.10       1.0  T
   7   -100.3953958 -0.893632E-03  0.371E-02    0.09       1.0  T
   8   -100.3955438 -0.147963E-03  0.798E-03    0.09       1.5  T
   9   -100.3955496 -0.577215E-05  0.350E-03    0.09       3.4  T
  10   -100.3955498 -0.279418E-06  0.167E-03    0.09       7.1  T
  11   -100.3955500 -0.196389E-06  0.490E-04    0.09      24.1  T
  12   -100.3955500 -0.156307E-07  0.238E-04    0.09      49.5  T
     SCC iter.                  ...        0 min,  0.097 sec
     gradient                   ...        0 min,  0.069 sec
 * total energy  :   -99.0728456 Eh     change       -0.4802444E-02 Eh
   gradient norm :     0.0717288 Eh/α   predicted    -0.1243642E-01 ( 158.96%)
   displ. norm   :     0.5209108 α      lambda       -0.1822587E-01
   maximum displ.:     0.2455379 α      in ANC's #53, #1, #31, ...

........................................................................
.............................. CYCLE   25 ..............................
........................................................................

 iter      E             dE          RMSdq      gap      omega  full diag
   1   -100.4129612 -0.100413E+03  0.378E-01    0.08       0.0  T
   2   -100.3794127  0.335486E-01  0.539E-01    0.40       1.0  T
   3   -100.3884314 -0.901877E-02  0.488E-01    0.31       1.0  T
   4   -100.4009627 -0.125313E-01  0.349E-01    0.14       1.0  T
   5   -100.4136658 -0.127031E-01  0.125E-01    0.07       1.0  T
   6   -100.4153382 -0.167243E-02  0.187E-02    0.08       1.0  T
   7   -100.4153504 -0.121586E-04  0.131E-02    0.08       1.0  T
   8   -100.4153663 -0.158677E-04  0.695E-03    0.08       1.7  T
   9   -100.4153696 -0.334489E-05  0.249E-03    0.08       4.7  T
  10   -100.4153700 -0.395221E-06  0.654E-04    0.08      18.0  T
  11   -100.4153700 -0.208263E-07  0.302E-04    0.08      39.0  T
     SCC iter.                  ...        0 min,  0.089 sec
     gradient                   ...        0 min,  0.069 sec
 * total energy  :   -99.0823782 Eh     change       -0.9532549E-02 Eh
   gradient norm :     0.0571644 Eh/α   predicted    -0.1158571E-01 (  21.54%)
   displ. norm   :     0.3004874 α      lambda       -0.6756299E-02
   maximum displ.:     0.1176596 α      in ANC's #16, #31, #53, ...

........................................................................
.............................. CYCLE   26 ..............................
........................................................................

 iter      E             dE          RMSdq      gap      omega  full diag
   1   -100.4209627 -0.100421E+03  0.192E-01    0.11       0.0  T
   2   -100.4082442  0.127185E-01  0.377E-01    0.19       1.0  T
   3   -100.4189973 -0.107530E-01  0.207E-01    0.20       1.0  T
   4   -100.4230127 -0.401547E-02  0.881E-02    0.09       1.0  T
   5   -100.4229872  0.255660E-04  0.795E-02    0.10       1.0  T
   6   -100.4232807 -0.293508E-03  0.592E-02    0.09       1.0  T
   7   -100.4237214 -0.440756E-03  0.152E-02    0.09       1.0  T
   8   -100.4237407 -0.192402E-04  0.429E-03    0.09       2.7  T
   9   -100.4237423 -0.166020E-05  0.176E-03    0.09       6.7  T
  10   -100.4237425 -0.182242E-06  0.615E-04    0.09      19.2  T
  11   -100.4237425  0.981493E-08  0.397E-04    0.09      29.7  T
     SCC iter.                  ...        0 min,  0.088 sec
     gradient                   ...        0 min,  0.069 sec
 * total energy  :   -99.0871770 Eh     change       -0.4798760E-02 Eh
   gradient norm :     0.0314350 Eh/α   predicted    -0.3683176E-02 ( -23.25%)
   displ. norm   :     0.5797323 α      lambda       -0.6961832E-02
   maximum displ.:     0.2351969 α      in ANC's #53, #16, #31, ...

........................................................................
.............................. CYCLE   27 ..............................
........................................................................

 iter      E             dE          RMSdq      gap      omega  full diag
   1   -100.4317237 -0.100432E+03  0.222E-01    0.10       0.0  T
   2   -100.4220973  0.962634E-02  0.310E-01    0.09       1.0  T
   3   -100.4293953 -0.729794E-02  0.205E-01    0.11       1.0  T
   4   -100.4314795 -0.208428E-02  0.124E-01    0.09       1.0  T
   5   -100.4330255 -0.154598E-02  0.565E-02    0.12       1.0  T
   6   -100.4328393  0.186269E-03  0.645E-02    0.08       1.0  T
   7   -100.4333592 -0.519955E-03  0.774E-03    0.10       1.5  T
   8   -100.4333636 -0.437622E-05  0.385E-03    0.10       3.1  T
   9   -100.4333647 -0.109772E-05  0.128E-03    0.10       9.2  T
  10   -100.4333648 -0.128806E-06  0.459E-04    0.10      25.7  T
  11   -100.4333648  0.252101E-10  0.321E-04    0.10      36.7  T
     SCC iter.                  ...        0 min,  0.089 sec
     gradient                   ...        0 min,  0.070 sec
 * total energy  :   -99.0922548 Eh     change       -0.5077875E-02 Eh
   gradient norm :     0.0272795 Eh/α   predicted    -0.4650816E-02 (  -8.41%)
   displ. norm   :     0.5763429 α      lambda       -0.4947039E-02
   maximum displ.:     0.2151376 α      in ANC's #16, #53, #31, ...

........................................................................
.............................. CYCLE   28 ..............................
........................................................................

 iter      E             dE          RMSdq      gap      omega  full diag
   1   -100.4393178 -0.100439E+03  0.237E-01    0.14       0.0  T
   2   -100.4308680  0.844982E-02  0.299E-01    0.10       1.0  T
   3   -100.4333307 -0.246264E-02  0.275E-01    0.23       1.0  T
   4   -100.4321770  0.115366E-02  0.252E-01    0.12       1.0  T
   5   -100.4391387 -0.696167E-02  0.991E-02    0.15       1.0  T
   6   -100.4403302 -0.119157E-02  0.182E-02    0.11       1.0  T
   7   -100.4403597 -0.294402E-04  0.727E-03    0.11       1.6  T
   8   -100.4403626 -0.291953E-05  0.448E-03    0.11       2.6  T
   9   -100.4403640 -0.144335E-05  0.135E-03    0.11       8.7  T
  10   -100.4403642 -0.133098E-06  0.386E-04    0.12      30.5  T
  11   -100.4403642 -0.979024E-08  0.248E-04    0.12      47.5  T
     SCC iter.                  ...        0 min,  0.089 sec
     gradient                   ...        0 min,  0.069 sec
 * total energy  :   -99.0956099 Eh     change       -0.3355100E-02 Eh
   gradient norm :     0.0255009 Eh/α   predicted    -0.3295152E-02 (  -1.79%)
   displ. norm   :     0.4729617 α      lambda       -0.3146769E-02
   maximum displ.:     0.1973089 α      in ANC's #16, #10, #13, ...

........................................................................
.............................. CYCLE   29 ..............................
........................................................................

 iter      E             dE          RMSdq      gap      omega  full diag
   1   -100.4500052 -0.100450E+03  0.186E-01    0.14       0.0  T
   2   -100.4448890  0.511624E-02  0.236E-01    0.09       1.0  T
   3   -100.4474333 -0.254436E-02  0.191E-01    0.18       1.0  T
   4   -100.4474177  0.155746E-04  0.162E-01    0.08       1.0  T
   5   -100.4495000 -0.208225E-02  0.982E-02    0.18       1.0  T
   6   -100.4506478 -0.114776E-02  0.128E-02    0.12       1.0  T
   7   -100.4506610 -0.132006E-04  0.589E-03    0.12       2.0  T
   8   -100.4506637 -0.275581E-05  0.299E-03    0.12       3.9  T
   9   -100.4506644 -0.638015E-06  0.534E-04    0.12      22.0  T
  10   -100.4506644 -0.388614E-08  0.253E-04    0.12      46.7  T
     SCC iter.                  ...        0 min,  0.081 sec
     gradient                   ...        0 min,  0.069 sec
 * total energy  :   -99.0977492 Eh     change       -0.2139288E-02 Eh
   gradient norm :     0.0205978 Eh/α   predicted    -0.1925341E-02 ( -10.00%)
   displ. norm   :     0.5200575 α      lambda       -0.2532681E-02
   maximum displ.:     0.1921609 α      in ANC's #16, #10, #13, ...

........................................................................
.............................. CYCLE   30 ..............................
........................................................................

 iter      E             dE          RMSdq      gap      omega  full diag
   1   -100.4503146 -0.100450E+03  0.212E-01    0.15       0.0  T
   2   -100.4487885  0.152611E-02  0.167E-01    0.13       1.0  T
   3   -100.4430907  0.569772E-02  0.269E-01    0.15       1.0  T
   4   -100.4498019 -0.671119E-02  0.943E-02    0.15       1.0  T
   5   -100.4503757 -0.573765E-03  0.498E-02    0.11       1.0  T
   6   -100.4506313 -0.255610E-03  0.143E-02    0.15       1.0  T
   7   -100.4506544 -0.231305E-04  0.560E-03    0.14       2.1  T
   8   -100.4506569 -0.245197E-05  0.293E-03    0.14       4.0  T
   9   -100.4506576 -0.711787E-06  0.984E-04    0.14      12.0  T
  10   -100.4506577 -0.474268E-07  0.253E-04    0.14      46.6  T
     SCC iter.                  ...        0 min,  0.080 sec
     gradient                   ...        0 min,  0.069 sec
 * total energy  :   -99.0995742 Eh     change       -0.1825009E-02 Eh
   gradient norm :     0.0170193 Eh/α   predicted    -0.1608840E-02 ( -11.84%)
   displ. norm   :     0.5575216 α      lambda       -0.2801669E-02
   maximum displ.:     0.2180908 α      in ANC's #10, #13, #7, ...

........................................................................
.............................. CYCLE   31 ..............................
........................................................................

 iter      E             dE          RMSdq      gap      omega  full diag
   1   -100.4534937 -0.100453E+03  0.219E-01    0.18       0.0  T
   2   -100.4512628  0.223093E-02  0.194E-01    0.08       1.0  T
   3   -100.4403095  0.109533E-01  0.355E-01    0.39       1.0  T
   4   -100.4520118 -0.117022E-01  0.127E-01    0.11       1.0  T
   5   -100.4528899 -0.878112E-03  0.849E-02    0.16       1.0  T
   6   -100.4537815 -0.891650E-03  0.100E-02    0.15       1.2  T
   7   -100.4537893 -0.778750E-05  0.459E-03    0.15       2.6  T
   8   -100.4537907 -0.141181E-05  0.251E-03    0.15       4.7  T
   9   -100.4537913 -0.570476E-06  0.821E-04    0.15      14.4  T
  10   -100.4537913 -0.214708E-07  0.273E-04    0.15      43.1  T
     SCC iter.                  ...        0 min,  0.080 sec
     gradient                   ...        0 min,  0.069 sec
 * total energy  :   -99.1016770 Eh     change       -0.2102799E-02 Eh
   gradient norm :     0.0264496 Eh/α   predicted    -0.1836260E-02 ( -12.68%)
   displ. norm   :     0.5467847 α      lambda       -0.2995373E-02
   maximum displ.:     0.2085641 α      in ANC's #7, #10, #9, ...

........................................................................
.............................. CYCLE   32 ..............................
........................................................................

 iter      E             dE          RMSdq      gap      omega  full diag
   1   -100.4541786 -0.100454E+03  0.223E-01    0.22       0.0  T
   2   -100.4461460  0.803257E-02  0.286E-01    0.09       1.0  T
   3   -100.4455272  0.618839E-03  0.296E-01    0.37       1.0  T
   4   -100.4527616 -0.723437E-02  0.138E-01    0.15       1.0  T
   5   -100.4540619 -0.130029E-02  0.740E-02    0.20       1.0  T
   6   -100.4546485 -0.586660E-03  0.132E-02    0.18       1.0  T
   7   -100.4546663 -0.177664E-04  0.462E-03    0.18       2.6  T
   8   -100.4546675 -0.125143E-05  0.301E-03    0.18       3.9  T
   9   -100.4546684 -0.865566E-06  0.973E-04    0.18      12.1  T
  10   -100.4546684 -0.303798E-07  0.269E-04    0.18      43.7  T
     SCC iter.                  ...        0 min,  0.080 sec
     gradient                   ...        0 min,  0.071 sec
 * total energy  :   -99.1040639 Eh     change       -0.2386895E-02 Eh
   gradient norm :     0.0281472 Eh/α   predicted    -0.1945458E-02 ( -18.49%)
   displ. norm   :     0.6102999 α      lambda       -0.3863468E-02
   maximum displ.:     0.2311147 α      in ANC's #7, #10, #9, ...

........................................................................
.............................. CYCLE   33 ..............................
........................................................................

 iter      E             dE          RMSdq      gap      omega  full diag
   1   -100.4506208 -0.100451E+03  0.237E-01    0.23       0.0  T
   2   -100.4436911  0.692968E-02  0.269E-01    0.09       1.0  T
   3   -100.4389959  0.469522E-02  0.335E-01    0.40       1.0  T
   4   -100.4449371 -0.594124E-02  0.241E-01    0.11       1.0  T
   5   -100.4509317 -0.599458E-02  0.296E-02    0.21       1.0  T
   6   -100.4510250 -0.932860E-04  0.117E-02    0.20       1.0  T
   7   -100.4510407 -0.157106E-04  0.328E-03    0.20       3.6  T
   8   -100.4510411 -0.452339E-06  0.169E-03    0.20       7.0  T
   9   -100.4510413 -0.166080E-06  0.772E-04    0.20      15.3  T
  10   -100.4510413 -0.277540E-07  0.337E-04    0.20      35.0  T
     SCC iter.                  ...        0 min,  0.080 sec
     gradient                   ...        0 min,  0.069 sec
 * total energy  :   -99.1070325 Eh     change       -0.2968530E-02 Eh
   gradient norm :     0.0307514 Eh/α   predicted    -0.2651245E-02 ( -10.69%)
   displ. norm   :     0.5957758 α      lambda       -0.5294416E-02
   maximum displ.:     0.2151375 α      in ANC's #7, #9, #10, ...

........................................................................
.............................. CYCLE   34 ..............................
........................................................................

 iter      E             dE          RMSdq      gap      omega  full diag
   1   -100.4573000 -0.100457E+03  0.257E-01    0.29       0.0  T
   2   -100.4234462  0.338537E-01  0.534E-01    0.17       1.0  T
   3   -100.4542205 -0.307743E-01  0.238E-01    0.37       1.0  T
   4   -100.4531228  0.109768E-02  0.241E-01    0.17       1.0  T
   5   -100.4583729 -0.525001E-02  0.797E-02    0.25       1.0  T
   6   -100.4590946 -0.721779E-03  0.128E-02    0.22       1.0  T
   7   -100.4591083 -0.136282E-04  0.551E-03    0.22       2.1  T
   8   -100.4591092 -0.973317E-06  0.439E-03    0.22       2.7  T
   9   -100.4591105 -0.126638E-05  0.174E-03    0.22       6.8  T
  10   -100.4591108 -0.267298E-06  0.410E-04    0.22      28.7  T
  11   -100.4591108 -0.619154E-08  0.202E-04    0.22      58.4  T
     SCC iter.                  ...        0 min,  0.088 sec
     gradient                   ...        0 min,  0.069 sec
 * total energy  :   -99.1102288 Eh     change       -0.3196300E-02 Eh
   gradient norm :     0.0331460 Eh/α   predicted    -0.3586839E-02 (  12.22%)
   displ. norm   :     0.6690558 α      lambda       -0.4192429E-02
   maximum displ.:     0.2558263 α      in ANC's #10, #7, #9, ...

........................................................................
.............................. CYCLE   35 ..............................
........................................................................

 iter      E             dE          RMSdq      gap      omega  full diag
   1   -100.4472724 -0.100447E+03  0.279E-01    0.24       0.0  T
   2   -100.4472810 -0.866009E-05  0.164E-01    0.23       1.0  T
   3   -100.4449476  0.233345E-02  0.146E-01    0.33       1.0  T
   4   -100.4471863 -0.223873E-02  0.322E-02    0.21       1.0  T
   5   -100.4472517 -0.653655E-04  0.214E-02    0.24       1.0  T
   6   -100.4472954 -0.437148E-04  0.103E-02    0.23       1.1  T
   7   -100.4473055 -0.101080E-04  0.291E-03    0.23       4.0  T
   8   -100.4473059 -0.392694E-06  0.194E-03    0.23       6.1  T
   9   -100.4473063 -0.353581E-06  0.775E-04    0.23      15.2  T
  10   -100.4473063 -0.254007E-07  0.292E-04    0.23      40.4  T
     SCC iter.                  ...        0 min,  0.080 sec
     gradient                   ...        0 min,  0.069 sec
 * total energy  :   -99.1124936 Eh     change       -0.2264811E-02 Eh
   gradient norm :     0.0473111 Eh/α   predicted    -0.3034560E-02 (  33.99%)
   displ. norm   :     0.4652603 α      lambda       -0.7149104E-02
   maximum displ.:     0.1473941 α      in ANC's #117, #15, #115, ...

........................................................................
.............................. CYCLE   36 ..............................
........................................................................

 iter      E             dE          RMSdq      gap      omega  full diag
   1   -100.4614533 -0.100461E+03  0.269E-01    0.08       0.0  T
   2   -100.3866147  0.748386E-01  0.835E-01    0.82       1.0  T
   3   -100.4652787 -0.786640E-01  0.115E-01    0.16       1.0  T
   4   -100.4628491  0.242963E-02  0.158E-01    0.19       1.0  T
   5   -100.4647202 -0.187110E-02  0.903E-02    0.17       1.0  T
   6   -100.4655192 -0.798980E-03  0.191E-02    0.19       1.0  T
   7   -100.4655408 -0.216727E-04  0.114E-02    0.19       1.0  T
   8   -100.4655490 -0.818034E-05  0.397E-03    0.18       3.0  T
   9   -100.4655499 -0.888322E-06  0.230E-03    0.18       5.1  T
  10   -100.4655504 -0.481895E-06  0.712E-04    0.18      16.6  T
  11   -100.4655504 -0.159264E-07  0.395E-04    0.18      29.8  T
     SCC iter.                  ...        0 min,  0.088 sec
     gradient                   ...        0 min,  0.073 sec
 * total energy  :   -99.1119659 Eh     change        0.5276661E-03 Eh
   gradient norm :     0.0948281 Eh/α   predicted    -0.4348325E-02 (-924.07%)
   displ. norm   :     0.2787389 α      lambda       -0.1197888E-01
   maximum displ.:     0.1241575 α      in ANC's #1, #13, #14, ...

........................................................................
.............................. CYCLE   37 ..............................
........................................................................

 iter      E             dE          RMSdq      gap      omega  full diag
   1   -100.4749692 -0.100475E+03  0.174E-01    0.18       0.0  T
   2   -100.4747314  0.237726E-03  0.130E-01    0.19       1.0  T
   3   -100.4729852  0.174622E-02  0.139E-01    0.13       1.0  T
   4   -100.4711791  0.180615E-02  0.186E-01    0.29       1.0  T
   5   -100.4748458 -0.366676E-02  0.559E-02    0.15       1.0  T
   6   -100.4751600 -0.314139E-03  0.206E-02    0.18       1.0  T
   7   -100.4751983 -0.383673E-04  0.778E-03    0.18       1.5  T
   8   -100.4752031 -0.475897E-05  0.311E-03    0.18       3.8  T
   9   -100.4752035 -0.460727E-06  0.132E-03    0.18       8.9  T
  10   -100.4752037 -0.114818E-06  0.388E-04    0.18      30.4  T
  11   -100.4752037 -0.675571E-08  0.193E-04    0.18      61.2  T
     SCC iter.                  ...        0 min,  0.089 sec
     gradient                   ...        0 min,  0.068 sec
 * total energy  :   -99.1160663 Eh     change       -0.4100374E-02 Eh
   gradient norm :     0.0670229 Eh/α   predicted    -0.6454798E-02 (  57.42%)
   displ. norm   :     0.3737723 α      lambda       -0.7572068E-02
   maximum displ.:     0.1302938 α      in ANC's #1, #9, #7, ...

........................................................................
.............................. CYCLE   38 ..............................
........................................................................

 iter      E             dE          RMSdq      gap      omega  full diag
   1   -100.4675503 -0.100468E+03  0.190E-01    0.23       0.0  T
   2   -100.4609672  0.658312E-02  0.280E-01    0.07       1.0  T
   3   -100.4666357 -0.566856E-02  0.135E-01    0.26       1.0  T
   4   -100.4664451  0.190657E-03  0.134E-01    0.14       1.0  T
   5   -100.4669647 -0.519655E-03  0.971E-02    0.21       1.0  T
   6   -100.4680344 -0.106968E-02  0.109E-02    0.19       1.1  T
   7   -100.4680425 -0.810483E-05  0.679E-03    0.19       1.7  T
   8   -100.4680449 -0.240396E-05  0.338E-03    0.19       3.5  T
   9   -100.4680456 -0.672840E-06  0.176E-03    0.19       6.7  T
  10   -100.4680458 -0.192270E-06  0.495E-04    0.19      23.8  T
  11   -100.4680458 -0.834241E-08  0.206E-04    0.19      57.1  T
     SCC iter.                  ...        0 min,  0.089 sec
     gradient                   ...        0 min,  0.069 sec
 * total energy  :   -99.1186499 Eh     change       -0.2583644E-02 Eh
   gradient norm :     0.0440439 Eh/α   predicted    -0.4314969E-02 (  67.01%)
   displ. norm   :     0.4296410 α      lambda       -0.3823192E-02
   maximum displ.:     0.1563690 α      in ANC's #7, #117, #20, ...

........................................................................
.............................. CYCLE   39 ..............................
........................................................................

 iter      E             dE          RMSdq      gap      omega  full diag
   1   -100.4682500 -0.100468E+03  0.140E-01    0.12       0.0  T
   2   -100.4581661  0.100838E-01  0.318E-01    0.40       1.0  T
   3   -100.4683814 -0.102153E-01  0.852E-02    0.13       1.0  T
   4   -100.4674897  0.891661E-03  0.113E-01    0.19       1.0  T
   5   -100.4686629 -0.117312E-02  0.374E-02    0.17       1.0  T
   6   -100.4688031 -0.140256E-03  0.110E-02    0.17       1.1  T
   7   -100.4688148 -0.117000E-04  0.535E-03    0.17       2.2  T
   8   -100.4688169 -0.205074E-05  0.197E-03    0.17       6.0  T
   9   -100.4688171 -0.196668E-06  0.803E-04    0.17      14.7  T
  10   -100.4688171 -0.410280E-07  0.282E-04    0.17      41.7  T
     SCC iter.                  ...        0 min,  0.081 sec
     gradient                   ...        0 min,  0.068 sec
 * total energy  :   -99.1214536 Eh     change       -0.2803719E-02 Eh
   gradient norm :     0.0311221 Eh/α   predicted    -0.2264464E-02 ( -19.23%)
   displ. norm   :     0.4471960 α      lambda       -0.5639124E-02
   maximum displ.:     0.1585315 α      in ANC's #15, #3, #117, ...

........................................................................
.............................. CYCLE   40 ..............................
........................................................................

 iter      E             dE          RMSdq      gap      omega  full diag
   1   -100.4817597 -0.100482E+03  0.209E-01    0.07       0.0  T
   2   -100.4239610  0.577988E-01  0.747E-01    0.69       1.0  T
   3   -100.4849077 -0.609467E-01  0.866E-02    0.14       1.0  T
   4   -100.4836249  0.128283E-02  0.115E-01    0.14       1.0  T
   5   -100.4845889 -0.964031E-03  0.631E-02    0.12       1.0  T
   6   -100.4850370 -0.448072E-03  0.135E-02    0.13       1.0  T
   7   -100.4850468 -0.986555E-05  0.766E-03    0.13       1.5  T
   8   -100.4850505 -0.370005E-05  0.468E-03    0.13       2.5  T
   9   -100.4850521 -0.154310E-05  0.167E-03    0.13       7.1  T
  10   -100.4850523 -0.177819E-06  0.509E-04    0.13      23.1  T
  11   -100.4850523 -0.322443E-08  0.280E-04    0.13      42.2  T
     SCC iter.                  ...        0 min,  0.088 sec
     gradient                   ...        0 min,  0.068 sec
 * total energy  :   -99.1239035 Eh     change       -0.2449849E-02 Eh
   gradient norm :     0.0383892 Eh/α   predicted    -0.3383438E-02 (  38.11%)
   displ. norm   :     0.6462125 α      lambda       -0.4998623E-02
   maximum displ.:     0.2176437 α      in ANC's #7, #117, #9, ...

........................................................................
.............................. CYCLE   41 ..............................
........................................................................

 iter      E             dE          RMSdq      gap      omega  full diag
   1   -100.4730894 -0.100473E+03  0.226E-01    0.07       0.0  T
   2   -100.4614734  0.116160E-01  0.345E-01    0.33       1.0  T
   3   -100.4678924 -0.641899E-02  0.260E-01    0.10       1.0  T
   4   -100.4673147  0.577627E-03  0.228E-01    0.17       1.0  T
   5   -100.4737782 -0.646350E-02  0.987E-03    0.11       1.2  T
   6   -100.4737832 -0.497205E-05  0.485E-03    0.11       2.4  T
   7   -100.4737825  0.693324E-06  0.406E-03    0.11       2.9  T
   8   -100.4737841 -0.155044E-05  0.208E-03    0.11       5.7  T
   9   -100.4737843 -0.273608E-06  0.635E-04    0.11      18.6  T
  10   -100.4737844 -0.174757E-07  0.288E-04    0.11      40.9  T
     SCC iter.                  ...        0 min,  0.081 sec
     gradient                   ...        0 min,  0.069 sec
 * total energy  :   -99.1277356 Eh     change       -0.3832160E-02 Eh
   gradient norm :     0.0338983 Eh/α   predicted    -0.3543008E-02 (  -7.55%)
   displ. norm   :     0.5716253 α      lambda       -0.4284108E-02
   maximum displ.:     0.1766306 α      in ANC's #117, #50, #20, ...

........................................................................
.............................. CYCLE   42 ..............................
........................................................................

 iter      E             dE          RMSdq      gap      omega  full diag
   1   -100.4711588 -0.100471E+03  0.228E-01    0.06       0.0  T
   2   -100.4470709  0.240879E-01  0.477E-01    0.41       1.0  T
   3   -100.4682647 -0.211938E-01  0.225E-01    0.11       1.0  T
   4   -100.4677481  0.516557E-03  0.216E-01    0.11       1.0  T
   5   -100.4720678 -0.431966E-02  0.650E-02    0.08       1.0  T
   6   -100.4726322 -0.564409E-03  0.167E-02    0.08       1.0  T
   7   -100.4726593 -0.271137E-04  0.490E-03    0.08       2.4  T
   8   -100.4726599 -0.629077E-06  0.341E-03    0.08       3.5  T
   9   -100.4726607 -0.754294E-06  0.111E-03    0.08      10.6  T
  10   -100.4726607 -0.683468E-07  0.455E-04    0.08      25.9  T
  11   -100.4726608 -0.784918E-08  0.185E-04    0.08      63.6  T
     SCC iter.                  ...        0 min,  0.089 sec
     gradient                   ...        0 min,  0.069 sec
 * total energy  :   -99.1305504 Eh     change       -0.2814711E-02 Eh
   gradient norm :     0.0337124 Eh/α   predicted    -0.2841989E-02 (   0.97%)
   displ. norm   :     0.4413426 α      lambda       -0.3159809E-02
   maximum displ.:     0.1530670 α      in ANC's #15, #117, #3, ...
 * RMSD in coord.:     0.8865014 α      energy gain  -0.1271254E+00 Eh

generating ANC from model Hessian ...
Using Lindh-Hessian (1995)
 Shifting diagonal of input Hessian by    1.1018757839078599E-002
 Lowest  eigenvalues of input Hessian
    0.010000    0.010773    0.000000    0.000000    0.000000    0.000000
    0.000000    0.000000    0.011027    0.011150    0.011281    0.011408
    0.011535    0.011695    0.011740    0.011941    0.012454    0.012902
 Highest eigenvalues
    1.927692    1.979341    2.036500    2.042109    2.106358    2.180146


........................................................................
.............................. CYCLE   43 ..............................
........................................................................

 iter      E             dE          RMSdq      gap      omega  full diag
   1   -100.4694006 -0.100469E+03  0.164E-01    0.07       0.0  T
   2   -100.4562847  0.131159E-01  0.351E-01    0.29       1.0  T
   3   -100.4681999 -0.119152E-01  0.151E-01    0.09       1.0  T
   4   -100.4670245  0.117539E-02  0.161E-01    0.09       1.0  T
   5   -100.4700563 -0.303179E-02  0.397E-02    0.07       1.0  T
   6   -100.4701902 -0.133894E-03  0.588E-03    0.07       2.0  T
   7   -100.4701914 -0.121201E-05  0.385E-03    0.07       3.1  T
   8   -100.4701918 -0.390244E-06  0.268E-03    0.07       4.4  T
   9   -100.4701925 -0.680953E-06  0.114E-03    0.07      10.3  T
  10   -100.4701926 -0.643992E-07  0.336E-04    0.07      35.0  T
  11   -100.4701926 -0.682343E-08  0.152E-04    0.07      77.6  T
     SCC iter.                  ...        0 min,  0.088 sec
     gradient                   ...        0 min,  0.069 sec
 * total energy  :   -99.1329652 Eh     change       -0.2414875E-02 Eh
   gradient norm :     0.0334963 Eh/α   predicted     0.0000000E+00 (-100.00%)
   displ. norm   :     0.3567244 α      lambda       -0.4514423E-02
   maximum displ.:     0.1620746 α      in ANC's #30, #26, #20, ...

........................................................................
.............................. CYCLE   44 ..............................
........................................................................

 iter      E             dE          RMSdq      gap      omega  full diag
   1   -100.4831905 -0.100483E+03  0.157E-01    0.09       0.0  T
   2   -100.4801435  0.304691E-02  0.178E-01    0.10       1.0  T
   3   -100.4771314  0.301210E-02  0.246E-01    0.22       1.0  T
   4   -100.4824665 -0.533508E-02  0.940E-02    0.06       1.0  T
   5   -100.4833116 -0.845120E-03  0.261E-02    0.07       1.0  T
   6   -100.4833506 -0.389217E-04  0.171E-02    0.07       1.0  T
   7   -100.4833881 -0.375789E-04  0.185E-03    0.07       6.4  T
   8   -100.4833882 -0.805977E-07  0.872E-04    0.07      13.5  T
   9   -100.4833882  0.293106E-08  0.281E-04    0.07      42.0  T
     SCC iter.                  ...        0 min,  0.073 sec
     gradient                   ...        0 min,  0.069 sec
 * total energy  :   -99.1364898 Eh     change       -0.3524584E-02 Eh
   gradient norm :     0.0195063 Eh/α   predicted    -0.2544534E-02 ( -27.81%)
   displ. norm   :     0.5685298 α      lambda       -0.4316238E-02
   maximum displ.:     0.2560068 α      in ANC's #26, #30, #20, ...

........................................................................
.............................. CYCLE   45 ..............................
........................................................................

 iter      E             dE          RMSdq      gap      omega  full diag
   1   -100.4911986 -0.100491E+03  0.236E-01    0.08       0.0  T
   2   -100.4909945  0.204105E-03  0.145E-01    0.06       1.0  T
   3   -100.4807076  0.102869E-01  0.299E-01    0.24       1.0  T
   4   -100.4891220 -0.841443E-02  0.135E-01    0.08       1.0  T
   5   -100.4911932 -0.207120E-02  0.270E-02    0.08       1.0  T
   6   -100.4912343 -0.410623E-04  0.206E-02    0.07       1.0  T
   7   -100.4912831 -0.488530E-04  0.355E-03    0.07       3.3  T
   8   -100.4912839 -0.790068E-06  0.139E-03    0.07       8.5  T
   9   -100.4912840 -0.857606E-07  0.560E-04    0.07      21.1  T
  10   -100.4912841 -0.396591E-07  0.217E-04    0.07      54.3  T
     SCC iter.                  ...        0 min,  0.081 sec
     gradient                   ...        0 min,  0.069 sec
 * total energy  :   -99.1401400 Eh     change       -0.3650213E-02 Eh
   gradient norm :     0.0246195 Eh/α   predicted    -0.2855680E-02 ( -21.77%)
   displ. norm   :     0.7053464 α      lambda       -0.4831728E-02
   maximum displ.:     0.3211168 α      in ANC's #26, #20, #30, ...

........................................................................
.............................. CYCLE   46 ..............................
........................................................................

 iter      E             dE          RMSdq      gap      omega  full diag
   1   -100.4922066 -0.100492E+03  0.321E-01    0.06       0.0  T
   2   -100.4901352  0.207145E-02  0.232E-01    0.14       1.0  T
   3   -100.4319061  0.582291E-01  0.693E-01    0.48       1.0  T
   4   -100.4915116 -0.596055E-01  0.790E-02    0.09       1.0  T
   5   -100.4920667 -0.555086E-03  0.503E-02    0.06       1.0  T
   6   -100.4923483 -0.281613E-03  0.138E-02    0.07       1.0  T
   7   -100.4923642 -0.158985E-04  0.587E-03    0.06       2.0  T
   8   -100.4923664 -0.218580E-05  0.274E-03    0.07       4.3  T
   9   -100.4923668 -0.387286E-06  0.130E-03    0.07       9.1  T
  10   -100.4923669 -0.125859E-06  0.384E-04    0.07      30.7  T
  11   -100.4923669 -0.441858E-08  0.220E-04    0.07      53.6  T
     SCC iter.                  ...        0 min,  0.088 sec
     gradient                   ...        0 min,  0.069 sec
 * total energy  :   -99.1440054 Eh     change       -0.3865332E-02 Eh
[...]
 molecular gradient             ...        0 min,  0.069 sec ( 58.957%)
 printout                       ...        0 min,  0.001 sec (  0.553%)

         :::::::::::::::::::::::::::::::::::::::::::::::::::::
         ::                     SUMMARY                     ::
         :::::::::::::::::::::::::::::::::::::::::::::::::::::
         :: total energy             -99.162240553477 Eh    ::
         :: gradient norm              0.002079587767 Eh/a0 ::
         :: HOMO-LUMO gap              0.286311581887 eV    ::
         ::.................................................::
         :: SCC energy              -100.514764012585 Eh    ::
         :: -> isotropic ES            0.108168358967 Eh    ::
         :: -> anisotropic ES          0.003525574301 Eh    ::
         :: -> anisotropic XC          0.048500634552 Eh    ::
         :: -> dispersion             -0.073272541727 Eh    ::
         :: repulsion energy           1.345072026241 Eh    ::
         :: add. restraining           0.006207887287 Eh    ::
         :: total charge               1.000000000000 e     ::
         :::::::::::::::::::::::::::::::::::::::::::::::::::::

           -------------------------------------------------
          |                Property Printout                |
           -------------------------------------------------

    * Orbital Energies and Occupations

         #    Occupation            Energy/Eh            Energy/eV
      -------------------------------------------------------------
         1        2.0000           -0.8089490             -22.0126
       ...           ...                  ...                  ...
        78        1.9985           -0.5237998             -14.2533
        79        1.9984           -0.5234237             -14.2431
        80        1.9978           -0.5178251             -14.0907
        81        1.9976           -0.5163034             -14.0493
        82        1.9964           -0.5100842             -13.8801
        83        1.9958           -0.5078137             -13.8183
        84        1.9953           -0.5059913             -13.7687
        85        1.9950           -0.5047499             -13.7349
        86        1.9832           -0.4856301             -13.2147
        87        1.9423           -0.4657467             -12.6736
        88        1.8888           -0.4549136             -12.3788
        89        1.5980           -0.4319200             -11.7531
        90        1.2220           -0.4172156             -11.3530 (HOMO)
        91        0.8939           -0.4066938             -11.0667 (LUMO)
        92        0.4262           -0.3893807             -10.5956
        93        0.0543           -0.3534065              -9.6167
        94        0.0153           -0.3330120              -9.0617
        95        0.0040           -0.3117674              -8.4836
        96        0.0033           -0.3084831              -8.3943
        97        0.0006           -0.2804687              -7.6319
        98        0.0000           -0.2252176              -6.1285
        99        0.0000           -0.1858637              -5.0576
       100                         -0.1303069              -3.5458
       101                         -0.0931685              -2.5352
       ...                                ...                  ...
       171                          0.6683819              18.1876
      -------------------------------------------------------------
                  HL-Gap            0.0105218 Eh            0.2863 eV
             Fermi-level           -0.4100666 Eh          -11.1585 eV

     #   Z          covCN         q      C6AA      α(0)
     1   7 N        1.774    -0.271    27.862     7.816
     2   6 C        2.827     0.101    25.748     8.315
     3   6 C        3.907     0.006    20.414     6.422
     4   6 C        2.974     0.002    27.988     8.678
     5   6 C        2.921    -0.081    30.015     8.984
     6   6 C        2.862     0.128    25.191     8.227
     7   8 O        1.706    -0.233    17.865     5.707
     8   6 C        3.644     0.029    20.431     6.497
     9   6 C        2.864     0.127    25.213     8.231
    10   8 O        1.706    -0.232    17.844     5.703
    11   6 C        3.645     0.028    20.439     6.497
    12   6 C        2.914    -0.075    29.880     8.964
    13   6 C        2.921    -0.054    29.330     8.881
    14   6 C        3.812    -0.064    21.717     6.633
    15   6 C        3.802    -0.068    21.808     6.649
    16   6 C        2.843     0.003    27.944     8.663
    17   7 N        2.729     0.004    21.187     6.836
    18   6 C        3.757    -0.013    20.868     6.513
    19   6 C        3.802    -0.048    21.436     6.592
    20   6 C        1.975    -0.101    33.861     9.397
    21   6 C        1.909    -0.089    33.541     9.353
    22   6 C        2.883    -0.032    28.786     8.796
    23   6 C        2.830     0.121    25.328     8.247
    24   8 O        1.710    -0.212    17.521     5.652
    25   6 C        3.635     0.025    20.536     6.521
    26   6 C        2.838     0.122    25.312     8.245
    27   8 O        1.710    -0.227    17.762     5.690
    28   6 C        3.634     0.030    20.448     6.508
    29   6 C        2.885    -0.053    29.321     8.877
    30   6 C        3.699    -0.068    21.978     6.705
    31   6 C        3.853    -0.007    20.669     6.466
    32   6 C        3.756    -0.118    22.817     6.811
    33   6 C        3.755    -0.118    22.825     6.812
    34   1 H        0.926     0.051     2.308     2.376
    35   1 H        0.924     0.053     2.285     2.364
    36   1 H        0.925     0.080     1.982     2.201
    37   1 H        0.924     0.046     2.375     2.410
    38   1 H        0.924     0.054     2.270     2.356
    39   1 H        0.925     0.080     1.982     2.202
    40   1 H        0.924     0.046     2.368     2.406
    41   1 H        0.926     0.051     2.310     2.377
    42   1 H        0.926     0.039     2.466     2.456
    43   1 H        0.925     0.059     2.210     2.325
    44   1 H        0.924     0.053     2.287     2.365
    45   1 H        0.925     0.065     2.145     2.290
    46   1 H        0.923     0.077     2.014     2.219
    47   1 H        0.922     0.005     2.980     2.700
    48   1 H        0.926     0.066     2.126     2.280
    49   1 H        0.924     0.065     2.140     2.287
    50   1 H        0.924     0.070     2.090     2.261
    51   1 H        0.924     0.062     2.171     2.304
    52   1 H        0.923     0.056     2.250     2.346
    53   1 H        0.928     0.093     1.846     2.125
    54   1 H        0.924     0.086     1.914     2.164
    55   1 H        0.924     0.063     2.166     2.302
    56   1 H        0.924     0.063     2.164     2.300
    57   1 H        0.924     0.088     1.902     2.157
    58   1 H        0.925     0.082     1.960     2.189
    59   1 H        0.924     0.052     2.299     2.371
    60   1 H        0.924     0.054     2.275     2.359
    61   1 H        0.925     0.062     2.173     2.305
    62   1 H        0.924     0.073     2.051     2.240
    63   1 H        0.924     0.079     1.987     2.204
    64   1 H        0.925     0.077     2.015     2.220
    65   1 H        0.924     0.036     2.504     2.475
    66   1 H        0.925     0.068     2.108     2.271
    67   1 H        0.925     0.035     2.519     2.482
    68   1 H        0.925     0.050     2.322     2.383
    69   1 H        0.925     0.061     2.189     2.314
    70   1 H        0.925     0.034     2.532     2.488
    71   1 H        0.925     0.053     2.280     2.361
    72   1 H        0.860     0.155     1.367     1.832

 Mol. C6AA /au·bohr⁶  :      47662.906482
 Mol. C8AA /au·bohr⁸  :    1088469.035957
 Mol. α(0) /au        :        334.953580


Wiberg/Mayer (AO) data.
largest (>0.10) Wiberg bond orders for each atom

 ---------------------------------------------------------------------------
     #   Z sym  total        # sym  WBO       # sym  WBO       # sym  WBO
 ---------------------------------------------------------------------------
     1   7 N    3.036 --     2 C    1.955    72 H    0.943
     2   6 C    3.929 --     1 N    1.955     3 C    0.995    47 H    0.904
     3   6 C    3.977 --     2 C    0.995     4 C    0.971    14 C    0.956
                            31 C    0.943
     4   6 C    3.953 --    13 C    1.417     5 C    1.367     3 C    0.971
     5   6 C    3.964 --     6 C    1.403     4 C    1.367    34 H    0.958
     6   6 C    3.909 --     5 C    1.403     9 C    1.225     7 O    1.095
     7   8 O    2.253 --     6 C    1.095     8 C    0.979
     8   6 C    3.934 --     7 O    0.979    36 H    0.977    35 H    0.974
                            37 H    0.974
     9   6 C    3.905 --    12 C    1.395     6 C    1.225    10 O    1.097
    10   8 O    2.252 --     9 C    1.097    11 C    0.978
    11   6 C    3.933 --    10 O    0.978    39 H    0.977    40 H    0.974
                            38 H    0.974
    12   6 C    3.965 --    13 C    1.400     9 C    1.395    41 H    0.964
    13   6 C    3.958 --     4 C    1.417    12 C    1.400    42 H    0.963
    14   6 C    3.971 --    15 C    0.980    44 H    0.973    43 H    0.968
                             3 C    0.956
    15   6 C    3.987 --    16 C    1.060    14 C    0.980    45 H    0.962
                            46 H    0.929
    16   6 C    3.567 --    17 N    1.383    15 C    1.060    48 H    0.958
    17   7 N    3.464 --    16 C    1.383    30 C    0.999    18 C    0.992
    18   6 C    3.949 --    17 N    0.992    50 H    0.968    49 H    0.965
                            19 C    0.954
    19   6 C    3.950 --    20 C    1.056    18 C    0.954    51 H    0.953
                            52 H    0.939
    20   6 C    2.996 --    29 C    1.790    19 C    1.056
    21   6 C    3.036 --    22 C    1.926    53 H    0.956
    22   6 C    3.954 --    21 C    1.926    23 C    1.076    54 H    0.892
    23   6 C    3.693 --    26 C    1.348    24 O    1.100    22 C    1.076
    24   8 O    2.233 --    23 C    1.100    25 C    0.982
    25   6 C    3.915 --    24 O    0.982    57 H    0.968    56 H    0.962
                            55 H    0.961
    26   6 C    3.754 --    23 C    1.348    29 C    1.132    27 O    1.094
    27   8 O    2.227 --    26 C    1.094    28 C    0.981
    28   6 C    3.929 --    27 O    0.981    58 H    0.972    60 H    0.971
                            59 H    0.968
    29   6 C    3.928 --    20 C    1.790    26 C    1.132    61 H    0.900
    30   6 C    3.958 --    17 N    0.999    64 H    0.978    62 H    0.966
                            63 H    0.961
    31   6 C    3.974 --    33 C    1.009    32 C    1.008    65 H    0.961
                             3 C    0.943
    32   6 C    3.981 --    31 C    1.008    67 H    0.982    68 H    0.982
                            66 H    0.975
    33   6 C    3.984 --    31 C    1.009    70 H    0.983    71 H    0.981
                            69 H    0.977
    34   1 H    0.996 --     5 C    0.958
    35   1 H    0.994 --     8 C    0.974
    36   1 H    0.993 --     8 C    0.977
    37   1 H    0.994 --     8 C    0.974
    38   1 H    0.993 --    11 C    0.974
    39   1 H    0.993 --    11 C    0.977
    40   1 H    0.994 --    11 C    0.974
    41   1 H    0.996 --    12 C    0.964
    42   1 H    0.998 --    13 C    0.963
    43   1 H    0.995 --    14 C    0.968
    44   1 H    0.996 --    14 C    0.973
    45   1 H    0.995 --    15 C    0.962
    46   1 H    0.969 --    15 C    0.929
    47   1 H    0.988 --     2 C    0.904
    48   1 H    0.995 --    16 C    0.958
    49   1 H    0.991 --    18 C    0.965
    50   1 H    0.993 --    18 C    0.968
    51   1 H    0.978 --    19 C    0.953
    52   1 H    0.956 --    19 C    0.939
    53   1 H    0.978 --    21 C    0.956
    54   1 H    0.930 --    22 C    0.892
    55   1 H    0.985 --    25 C    0.961
    56   1 H    0.986 --    25 C    0.962
    57   1 H    0.985 --    25 C    0.968
    58   1 H    0.990 --    28 C    0.972
    59   1 H    0.989 --    28 C    0.968
    60   1 H    0.990 --    28 C    0.971
    61   1 H    0.923 --    29 C    0.900
    62   1 H    0.985 --    30 C    0.966
    63   1 H    0.987 --    30 C    0.961
    64   1 H    0.994 --    30 C    0.978
    65   1 H    0.993 --    31 C    0.961
    66   1 H    0.992 --    32 C    0.975
    67   1 H    0.997 --    32 C    0.982
    68   1 H    0.995 --    32 C    0.982
    69   1 H    0.993 --    33 C    0.977
    70   1 H    0.997 --    33 C    0.983
    71   1 H    0.994 --    33 C    0.981
    72   1 H    0.971 --     1 N    0.943
 ---------------------------------------------------------------------------

Topologies differ in total number of bonds
Writing topology from bond orders to xtbtopo.mol

molecular dipole:
                 x           y           z       tot (Debye)
 q only:        1.875      -0.135      -0.759
   full:        2.175      -0.472      -0.799       6.011
molecular quadrupole (traceless):
                xx          xy          yy          xz          yz          zz
 q only:       71.544       5.878     -24.782       3.701     -11.072     -46.762
  q+dip:       66.958       9.050     -23.594       7.646     -14.418     -43.364
   full:       66.817       7.683     -24.749       5.505     -14.120     -42.068

           -------------------------------------------------
          |                Geometry Summary                 |
           -------------------------------------------------

      molecular mass/u    :      455.6105846
   center of mass at/Å    :       -0.0061227       0.0334942      -0.0132993
  moments of inertia/u·Å² :        0.2509250E+04   0.1182233E+05   0.1320138E+05
rotational constants/cm⁻¹ :        0.6718196E-02   0.1425915E-02   0.1276960E-02

 * 61 selected distances

     #   Z          #   Z                                           value/Å
     1   7 N        2   6 C                                       1.2492437
     4   6 C        5   6 C                                       1.3966319
     5   6 C        6   6 C                                       1.3844942
     6   6 C        7   8 O                                       1.3504315
     7   8 O        8   6 C                                       1.4080203
     6   6 C        9   6 C                                       1.4205108
     9   6 C       10   8 O                                       1.3494430
    10   8 O       11   6 C                                       1.4082606
     9   6 C       12   6 C                                       1.3853016
     4   6 C       13   6 C                                       1.3856658
    12   6 C       13   6 C                                       1.3898800
    14   6 C       15   6 C                                       1.5404737 (max)
    15   6 C       16   6 C                                       1.4799952
    16   6 C       17   7 N                                       1.3315729
    17   7 N       18   6 C                                       1.4420776
    21   6 C       22   6 C                                       1.3231081
    23   6 C       24   8 O                                       1.3609333
    24   8 O       25   6 C                                       1.4000300
    23   6 C       26   6 C                                       1.4307828
    26   6 C       27   8 O                                       1.3663788
    27   8 O       28   6 C                                       1.4047715
    20   6 C       29   6 C                                       1.3242200
    17   7 N       30   6 C                                       1.4435394
    31   6 C       32   6 C                                       1.5269464
    31   6 C       33   6 C                                       1.5262021
     5   6 C       34   1 H                                       1.0773335 (min)
     8   6 C       35   1 H                                       1.0941242
     8   6 C       36   1 H                                       1.0881982
     8   6 C       37   1 H                                       1.0950820
    11   6 C       38   1 H                                       1.0939602
    11   6 C       39   1 H                                       1.0881825
    11   6 C       40   1 H                                       1.0949144
    12   6 C       41   1 H                                       1.0778719
    13   6 C       42   1 H                                       1.0790319
    14   6 C       43   1 H                                       1.0896026
    14   6 C       44   1 H                                       1.0907424
    15   6 C       45   1 H                                       1.0883406
    15   6 C       46   1 H                                       1.0982058
    16   6 C       48   1 H                                       1.0799519
    18   6 C       49   1 H                                       1.0929172
    18   6 C       50   1 H                                       1.0918641
    19   6 C       51   1 H                                       1.0953045
    19   6 C       52   1 H                                       1.0994267
    22   6 C       54   1 H                                       1.0960636
    25   6 C       55   1 H                                       1.0944854
    25   6 C       56   1 H                                       1.0937680
    25   6 C       57   1 H                                       1.0907059
    28   6 C       58   1 H                                       1.0900133
    28   6 C       59   1 H                                       1.0959794
    28   6 C       60   1 H                                       1.0946607
    29   6 C       61   1 H                                       1.0875992
    30   6 C       62   1 H                                       1.0926230
    30   6 C       63   1 H                                       1.0923877
    30   6 C       64   1 H                                       1.0873245
    31   6 C       65   1 H                                       1.0962315
    32   6 C       66   1 H                                       1.0851550
    32   6 C       67   1 H                                       1.0873087
    32   6 C       68   1 H                                       1.0868348
    33   6 C       69   1 H                                       1.0855136
    33   6 C       70   1 H                                       1.0867892
    33   6 C       71   1 H                                       1.0868833

 * 4 distinct bonds (by element types)

   Z      Z             #   av. dist./Å        max./Å        min./Å
   1 H    6 C          36     1.0901495     1.0994267     1.0773335
   6 C    6 C          13     1.4241702     1.5404737     1.3231081
   6 C    7 N           4     1.3666084     1.4435394     1.2492437
   6 C    8 O           8     1.3810336     1.4082606     1.3494430


optimized geometry written to: xtbopt.xyz


           -------------------------------------------------
          | TOTAL ENERGY              -99.162240553477 Eh   |
          | GRADIENT NORM               0.002079587767 Eh/α |
          | HOMO-LUMO GAP               0.286311581887 eV   |
           -------------------------------------------------

------------------------------------------------------------------------
 * finished run on 2024/04/06 at 11:14:13.130     
------------------------------------------------------------------------
 total:
 * wall-time:     0 d,  0 h,  0 min, 14.034 sec
 *  cpu-time:     0 d,  0 h,  0 min, 14.012 sec
 * ratio c/w:     0.998 speedup
 SCF:
 * wall-time:     0 d,  0 h,  0 min,  0.190 sec
 *  cpu-time:     0 d,  0 h,  0 min,  0.190 sec
 * ratio c/w:     1.000 speedup
 ANC optimizer:
 * wall-time:     0 d,  0 h,  0 min, 13.801 sec
 *  cpu-time:     0 d,  0 h,  0 min, 13.797 sec
 * ratio c/w:     1.000 speedup

