25
 energy: -42.542536777313 xtb: 6.6.1 (8d0f1dd)
C            3.24576053221259        1.19148515300818        0.08964851631700
N            2.30893957105395        0.09495918348139        0.02941048708776
C            2.55201074733380       -1.24673476077947        0.03364483753211
N            1.41942643267091       -1.95258010083223        0.00236416360766
C            0.42032712417724       -1.04871572843132       -0.01620463070896
C            0.93693680847754        0.24465462367344        0.00488548305400
C            0.10913368555515        1.41950588352730       -0.00911778958711
O            0.48146231749914        2.58166817810409       -0.00653103283311
N           -1.25721186371637        1.07994258239718       -0.03198975965322
C           -2.23295932786578        2.16023582793227       -0.05023749367334
C           -1.80371133152686       -0.19009792276931       -0.04604549511267
O           -3.00235183759435       -0.36537614141105       -0.06625806457520
N           -0.92261530837028       -1.26562845838027       -0.03967900838971
C           -1.43852657554740       -2.62077153750122       -0.05909450329767
H            3.71989796173314        1.23882466278508        1.07240060990653
H            4.01555486867544        1.06963998298052       -0.67239938731157
H            2.70419753202159        2.12493534126919       -0.07634287345194
H            3.55810758614639       -1.62562863618229        0.04767251131705
H           -1.69396677557770        3.10457718815266       -0.02996045161633
H           -2.84258492097879        2.09262877846021       -0.95154960554402
H           -2.88839010016396        2.07908057450509        0.81687800595367
H           -1.10158028059350       -3.16299086854081        0.82567903294529
H           -1.08688401967435       -3.14225506508217       -0.95048194206455
H           -2.52240411414917       -2.56171619400957       -0.06801559894363
H            1.10326002805161       -3.57604131966165       -0.02695292280557
