25
 energy: 0.000000000000 xtb: 6.6.1 (8d0f1dd)
C            3.23720132972391        1.16630909158653        0.08434468864950
N            2.29877796055224        0.07527476373246        0.03981602671198
C            2.58028186251803       -1.21425391179017        0.03006175752192
N            1.43813944744728       -1.93419254010258        0.00098261751768
C            0.39035684826767       -1.05887462812143       -0.00790371763344
C            0.93510047688824        0.21347817468824        0.01709077332874
C            0.09450143016486        1.40504290868848       -0.00410946993748
O            0.49712746915594        2.54126690785742       -0.00342325656480
N           -1.25076628431515        1.06271869620815       -0.03085477937476
C           -2.21907191394203        2.15522079838987       -0.05001256521996
C           -1.81739470187490       -0.20012724136556       -0.04692818139228
O           -2.99983858926755       -0.37846413507442       -0.07008877579474
N           -0.92618577614240       -1.30210203518959       -0.03682761236648
C           -1.46982251276835       -2.64643077634382       -0.06029819901142
H            3.71247229913541        1.21471443890471        1.06488839270555
H            4.00791460421487        1.03430799217987       -0.67357688121503
H            2.69909982127087        2.09770098766290       -0.09130154035862
H            3.56654087521359       -1.63682977417947        0.04233139674524
H           -1.67107945562430        3.09322822573871       -0.02552706696334
H           -2.82428927394145        2.09428605349656       -0.95318074103337
H           -2.87644002486466        2.07745706351925        0.81450059976605
H           -1.17061985538665       -3.19584861009707        0.83242224714061
H           -1.14560246782873       -3.17511580834413       -0.95688266944647
H           -2.55549768731684       -2.55659960601237       -0.07459039105944
H            1.38130842369251       -2.94313824728853       -0.01389874052104
25
 energy: -6.034756792543 xtb: 6.6.1 (8d0f1dd)
C            3.24023366799705        1.17225748348215        0.08628552642297
N            2.30461179835109        0.09427795588817        0.03406981768207
C            2.59421816377689       -1.25606057220526        0.03193011070395
N            1.40992444666178       -1.96553594414453        0.00070801226238
C            0.40144657415393       -1.06662580575274       -0.00863098427398
C            0.92039705047343        0.22189072218697        0.01412247127819
C            0.11649275716116        1.38742301737547       -0.00508809901711
O            0.49368916371018        2.56209388164829       -0.00409443865228
N           -1.26833911743836        1.05441905616098       -0.03130053265510
C           -2.22280419955819        2.15154158719404       -0.04967612498186
C           -1.81543095509394       -0.19250850446421       -0.04738428685325
O           -3.01417604320015       -0.38200940554843       -0.07039962037578
N           -0.93732872205188       -1.29528266366893       -0.03734575230090
C           -1.46469960110067       -2.63869424690758       -0.06029895979995
H            3.71953365286836        1.22291760072444        1.06791313292621
H            4.01161848794151        1.04249325540782       -0.67496743123075
H            2.70126926498335        2.10301194878048       -0.08945217591509
H            3.57337690366169       -1.66174050386451        0.04321994724112
H           -1.66835645921713        3.08761098104699       -0.02540299768489
H           -2.82887259090255        2.09573398673598       -0.95356970090987
H           -2.88038236836239        2.07885727893836        0.81599107934062
H           -1.15648743449853       -3.18866347942844        0.83212917601516
H           -1.13167526191960       -3.16835134759238       -0.95621984892477
H           -2.54961720507844       -2.55554632565397       -0.07462958977577
H            1.32258094728870       -2.98588924678217       -0.01350623832261
25
 energy: -4.782702836144 xtb: 6.6.1 (8d0f1dd)
C            3.23980725771640        1.17177818040038        0.08645444826583
N            2.30600038601664        0.08635722192467        0.02976822881224
C            2.58782312924234       -1.27361561958362        0.03072995445574
N            1.39723743913417       -1.99243824883261        0.00059851693094
C            0.40321692427078       -1.07216997179563       -0.01007093679681
C            0.92121311775683        0.21718848704766        0.01042755867213
C            0.11763240455622        1.38648478705765       -0.00637422917939
O            0.49184433316140        2.56289941073315       -0.00449854515287
N           -1.26934935814809        1.05669183544534       -0.03183338495335
C           -2.22528975860180        2.15259411480267       -0.04941494900785
C           -1.81655907161364       -0.18983279079538       -0.04805284939289
O           -3.01558409271531       -0.38061492721817       -0.07066225382383
N           -0.93714813638157       -1.29016576552717       -0.03791046331702
C           -1.45801814734869       -2.63515422642356       -0.06026262268577
H            3.72059239031286        1.22601780093880        1.06767168122551
H            4.01245669200585        1.04852894313271       -0.67480075457437
H            2.70193015386749        2.10510723204842       -0.08734964983709
H            3.57144925495983       -1.66785072121229        0.04668103308421
H           -1.67102982294582        3.08851276642087       -0.02517375050563
H           -2.83205767270540        2.09696319950164       -0.95304695579859
H           -2.88270719433575        2.07968538894417        0.81656332993849
H           -1.14367543220513       -3.18138383069476        0.83246353870494
H           -1.11917494758151       -3.16153280160063       -0.95606941762250
H           -2.54264962895462       -2.55750292130575       -0.07449825449599
H            1.26695407921180       -3.02833987770927       -0.01151111813753
25
 energy: -2.284917766929 xtb: 6.6.1 (8d0f1dd)
C            3.23971575375450        1.17254747438214        0.08674564139340
N            2.30738083611922        0.08068749770188        0.02884201856923
C            2.58206286182905       -1.28878245097042        0.03008036594934
N            1.38519418028334       -2.01811617173411        0.00003415114610
C            0.40542887902946       -1.07722049629903       -0.00979958708146
C            0.92346363133203        0.21406338314902        0.01079859980405
C            0.11932735617271        1.38743128933835       -0.00438285692626
O            0.49244544042170        2.56430871675714       -0.00190039550809
N           -1.26929767728936        1.06042391153372       -0.03110803242922
C           -2.22781300754829        2.15442701281263       -0.05045598731452
C           -1.81646034281396       -0.18627851759069       -0.04769830160456
O           -3.01567494309014       -0.37783295147394       -0.07140944209884
N           -0.93645552465540       -1.28484293691682       -0.03727136526797
C           -1.45208749777284       -2.63162672092379       -0.05973532183560
H            3.72323630720296        1.22945539665260        1.06675841279823
H            4.01149773042183        1.05564340575101       -0.67665584965191
H            2.70119702740421        2.10755601492971       -0.08360572322205
H            3.57389471087240       -1.66224641997768        0.04492660747808
H           -1.67685348456659        3.09209708421989       -0.02602944580644
H           -2.83369871817600        2.09714670032150       -0.95468103019080
H           -2.88686186218371        2.08068301626875        0.81432277848715
H           -1.13291424961093       -3.17565255107343        0.83283012069605
H           -1.10839379392093       -3.15548649363094       -0.95535308315053
H           -2.53643254628925       -2.55899907570658       -0.07400564996413
H            1.21566949711218       -3.07382020258832       -0.01248970799457
25
 energy: 1.598739267029 xtb: 6.6.1 (8d0f1dd)
C            3.24077702194294        1.17493745354391        0.08759481030167
N            2.30902005515636        0.07706343044791        0.02833629798373
C            2.57641222254229       -1.30239287605664        0.03123300790406
N            1.37508162352133       -2.04467845291383       -0.00065723380576
C            0.40872172435013       -1.08218677735950       -0.01064185404968
C            0.92584234422216        0.21201927050628        0.00977244642920
C            0.12064756413394        1.38979458862617       -0.00528627986118
O            0.49343746362027        2.56647953682306       -0.00207710785917
N           -1.26882582606062        1.06504843387178       -0.03170599611199
C           -2.23104200417094        2.15628753228718       -0.05029717191252
C           -1.81486264017195       -0.18231455221469       -0.04850047115715
O           -3.01420179516153       -0.37400697963339       -0.07264991672112
N           -0.93489165213559       -1.27959622540084       -0.03775490289188
C           -1.44621316272368       -2.62827909721399       -0.05926153287105
H            3.72558910494317        1.23513218419962        1.06695309109177
H            4.01301436822304        1.06357790844513       -0.67636771094061
H            2.70387724059559        2.11263966734030       -0.07964093842655
H            3.57537176988132       -1.65734015022811        0.04450688406097
H           -1.68581469128079        3.09718023407741       -0.02621832595529
H           -2.83794459039704        2.09645660695598       -0.95367954144766
H           -2.88988177006466        2.07976182539289        0.81443146663569
H           -1.12313274534796       -3.17082760133115        0.83305986945172
H           -1.09937552870765       -3.15185991703607       -0.95408588539620
H           -2.53005839303428       -2.55947363906381       -0.07317218358326
H            1.19099093350838       -3.13014498452712       -0.01572467198949
25
 energy: 23.741144652279 xtb: 6.6.1 (8d0f1dd)
C            3.24576053221259        1.19148515300818        0.08964851631700
N            2.30893957105395        0.09495918348139        0.02941048708776
C            2.55201074733380       -1.24673476077947        0.03364483753211
N            1.41942643267091       -1.95258010083223        0.00236416360766
C            0.42032712417724       -1.04871572843132       -0.01620463070896
C            0.93693680847754        0.24465462367344        0.00488548305400
C            0.10913368555515        1.41950588352730       -0.00911778958711
O            0.48146231749914        2.58166817810409       -0.00653103283311
N           -1.25721186371637        1.07994258239718       -0.03198975965322
C           -2.23295932786578        2.16023582793227       -0.05023749367334
C           -1.80371133152686       -0.19009792276931       -0.04604549511267
O           -3.00235183759435       -0.36537614141105       -0.06625806457520
N           -0.92261530837028       -1.26562845838027       -0.03967900838971
C           -1.43852657554740       -2.62077153750122       -0.05909450329767
H            3.71989796173314        1.23882466278508        1.07240060990653
H            4.01555486867544        1.06963998298052       -0.67239938731157
H            2.70419753202159        2.12493534126919       -0.07634287345194
H            3.55810758614639       -1.62562863618229        0.04767251131705
H           -1.69396677557770        3.10457718815266       -0.02996045161633
H           -2.84258492097879        2.09262877846021       -0.95154960554402
H           -2.88839010016396        2.07908057450509        0.81687800595367
H           -1.10158028059350       -3.16299086854081        0.82567903294529
H           -1.08688401967435       -3.14225506508217       -0.95048194206455
H           -2.52240411414917       -2.56171619400957       -0.06801559894363
H            1.10326002805161       -3.57604131966165       -0.02695292280557
25
 energy: 20.860298503697 xtb: 6.6.1 (8d0f1dd)
C            3.24661207149703        1.19970826600816        0.08675839615476
N            2.30771563148794        0.10009943072047        0.03387478928124
C            2.54300783624446       -1.23902804490346        0.03606425715414
N            1.42074806602412       -1.95719105078612        0.00443336423479
C            0.42324875626479       -1.04594055530279       -0.00943395525352
C            0.93756263523695        0.24794023580584        0.01045226927860
C            0.10271002039002        1.42147198792864       -0.00489064613016
O            0.47458031402658        2.58047166671041        0.00094762556788
N           -1.25756400453027        1.08338238956194       -0.03191974799030
C           -2.23444939635504        2.16332668365962       -0.04980773458162
C           -1.80341165473608       -0.19169976921172       -0.04937638457452
O           -3.00075948700458       -0.36633188416486       -0.07460309369768
N           -0.92000328688583       -1.26143870589432       -0.03809750501791
C           -1.43100578119125       -2.61801901590126       -0.05972080042610
H            3.72973343189913        1.24928279128370        1.06440126848172
H            4.01286082385946        1.07857599353371       -0.67876156280668
H            2.70958163682417        2.13635042768108       -0.07676280589768
H            3.55325980429559       -1.61342583331301        0.04454716556046
H           -1.69442310939872        3.10663940297212       -0.02525242375559
H           -2.84157987164488        2.09992108087206       -0.95257046091368
H           -2.89286934438722        2.08201260740785        0.81464312531210
H           -1.09229048128358       -3.15518028982480        0.82749058529051
H           -1.06823291412787       -3.13595388067431       -0.94890190340531
H           -2.51478267424241       -2.56292525800805       -0.07413540308728
H            1.07506069978800       -3.69058427163718       -0.02429243218285
25
 energy: 19.492609474738 xtb: 6.6.1 (8d0f1dd)
C            3.24788851954597        1.20630798829241        0.08605406408642
N            2.30732016599475        0.10787894063367        0.03335276103656
C            2.54124404372803       -1.23026973770622        0.03803670358825
N            1.42274355717062       -1.95552066291279        0.00790196726861
C            0.42625397830033       -1.04072394038419       -0.00925717499272
C            0.93765717510634        0.25461258449263        0.01022719632654
C            0.10050753935584        1.42628599251249       -0.00333353272723
O            0.46863428942742        2.58563929307849        0.00494159303112
N           -1.25910637643543        1.08769772555141       -0.03164767759727
C           -2.23742648834536        2.16622370294793       -0.05039715075936
C           -1.80234582016944       -0.18802820182928       -0.04940970461988
O           -2.99896459673415       -0.36681103297359       -0.07395859333759
N           -0.91730823912668       -1.25538825787009       -0.03845317040336
C           -1.42321308809579       -2.61351716200980       -0.05949672134887
H            3.73158663725703        1.25437492482172        1.06349326067825
H            4.01362041055631        1.08577901157523       -0.68017784595494
H            2.71136093866952        2.14352561619506       -0.07693501378950
H            3.55359252282024       -1.60055270813052        0.04623278350645
H           -1.69844954850652        3.11019506226506       -0.02583094043363
H           -2.84373914039808        2.10147352893092       -0.95362348890660
H           -2.89711491695809        2.08441748682154        0.81310933070423
H           -1.07893697498030       -3.14764000989408        0.82747616468994
H           -1.05744384295850       -3.12895721397220       -0.94900083054492
H           -2.50727599379702       -2.56487744595866       -0.07255676118987
H            1.05429906324543       -3.77958090358449       -0.02758026037668
25
 energy: 18.729409666621 xtb: 6.6.1 (8d0f1dd)
C            3.25027271668186        1.21496721727393        0.08598802739715
N            2.30642320060379        0.11952678904592        0.03445719241754
C            2.53965121979713       -1.21795315945350        0.03990356488679
N            1.42438009643242       -1.94771871067484        0.00918834284193
C            0.42817075769406       -1.03206923268363       -0.00834281571383
C            0.93703299651053        0.26426054465483        0.01059319390597
C            0.09756527993841        1.43326130966440       -0.00377278702857
O            0.46105349384559        2.59356453494688        0.00450326392838
N           -1.26114111630192        1.09227519608293       -0.03225602152236
C           -2.24063027479419        2.16929387220930       -0.05016349947467
C           -1.80197423527363       -0.18430406925579       -0.04989184515937
O           -2.99774257084591       -0.36676732820486       -0.07467549904365
N           -0.91507688560595       -1.24902308841091       -0.03844472005922
C           -1.41467020795155       -2.60969477086290       -0.05956024704128
H            3.73648893664706        1.26079081055445        1.06226266716537
H            4.01441296028178        1.09205000654417       -0.68136982973695
H            2.71806931047191        2.15474872508196       -0.07642552946749
H            3.55290173272869       -1.58643586130856        0.04515795650993
H           -1.70259738171847        3.11397349720114       -0.02561307061372
H           -2.84751456122778        2.10347241755421       -0.95293290675380
H           -2.89978373728650        2.08591756297965        0.81365426618660
H           -1.06776176040227       -3.14170955026150        0.82781181695857
H           -1.04434210137327       -3.12305989623514       -0.94854015518417
H           -2.49902266114225       -2.56812915359483       -0.07383806346737
H            1.03054144883349       -3.88062107500543       -0.02780271745768
25
 energy: 18.507541201693 xtb: 6.6.1 (8d0f1dd)
C            3.25240636240200        1.22300379093621        0.08658352859852
N            2.30545723094624        0.13058187240586        0.03711334539039
C            2.53883763379989       -1.20586532690190        0.04161865190259
N            1.42681362584209       -1.93815787604901        0.01052218238319
C            0.43013149576905       -1.02249238687516       -0.00726785302759
C            0.93656699230684        0.27419875814856        0.01123251923361
C            0.09562550247363        1.44080343083386       -0.00532613908324
O            0.45566429999964        2.60176060565248        0.00220432378351
N           -1.26244428141102        1.09755273725463       -0.03331637486712
C           -2.24378175557098        2.17274427528999       -0.05033827177333
C           -1.80028173204886       -0.18038342484516       -0.04995082156611
O           -2.99576332880673       -0.36535983956445       -0.07442527158044
N           -0.91268776315759       -1.24258311259275       -0.03807994474635
C           -1.40550238671437       -2.60622572027830       -0.05873222414597
H            3.74185061243774        1.26726371275205        1.06128625757121
H            4.01454884934286        1.09982897822538       -0.68289935677227
H            2.72162934641907        2.16326098111575       -0.07492287371086
H            3.55265549908432       -1.57422504765342        0.04571918638814
H           -1.70830710567353        3.11900354970306       -0.02576102813245
H           -2.85147225527640        2.10554352055608       -0.95241889533672
H           -2.90244218782154        2.08735471970518        0.81365819691145
H           -1.05355859565457       -3.13567758056323        0.82827877640165
H           -1.03070584510867       -3.11711443303439       -0.94734246309205
H           -2.49046784653705       -2.57448487164861       -0.07279263830643
H            1.00567660714957       -3.98791516984416       -0.03408342789452
25
 energy: 18.580769413649 xtb: 6.6.1 (8d0f1dd)
C            3.25164326235449        1.23293391620420        0.08739829036205
N            2.30342653033373        0.14264280630736        0.03859228060648
C            2.53875759084849       -1.19137328533223        0.03944159464957
N            1.43230663195516       -1.92651042157426        0.00899152462554
C            0.43299745625816       -1.01315649929965       -0.00773473937458
C            0.93572483144356        0.28414122015467        0.01157506029545
C            0.09278010987749        1.44837167039267       -0.00432922653087
O            0.44972731159704        2.61031747501093        0.00421142296986
N           -1.26296044802310        1.10209248891042       -0.03325675753757
C           -2.24568471508678        2.17549853262803       -0.05095187781892
C           -1.79738413845149       -0.17786901267961       -0.04983376342628
O           -2.99281178036718       -0.36408336150029       -0.07427847115239
N           -0.90885800813174       -1.23672843365281       -0.03810028216490
C           -1.39701912173744       -2.60149232358295       -0.05785424755032
H            3.74128423804055        1.27432296691927        1.06228213951917
H            4.01349510569671        1.10806265333212       -0.68231476725022
H            2.72333304491542        2.17436747470776       -0.07392336979109
H            3.55295089048075       -1.55793640170793        0.04265275969528
H           -1.71072153184707        3.12195889891995       -0.02671410942644
H           -2.85290409423859        2.10683629968054       -0.95328372741315
H           -2.90454910114547        2.08947624722037        0.81290546403798
H           -1.04169971085141       -3.12694570069643        0.83029957449521
H           -1.01883087489788       -3.10934626843793       -0.94686274477264
H           -2.48252210855084       -2.57541709140146       -0.07183066648120
H            0.98124758926346       -4.11119428926657       -0.03421275003380
25
 energy: 18.803254881310 xtb: 6.6.1 (8d0f1dd)
C            3.25368507390060        1.24199247678106        0.08671727113391
N            2.30316513037615        0.15551490583765        0.03894698099844
C            2.53866244761077       -1.17665277465036        0.03761948128856
N            1.43623769427037       -1.91355182720896        0.00791112650765
C            0.43506419628848       -1.00237674965782       -0.00741876724999
C            0.93543555007858        0.29499803808674        0.01229529157005
C            0.09093130777963        1.45695240071007       -0.00439345487289
O            0.44807599948518        2.61909666728834        0.00384188269221
N           -1.26375047951327        1.10757203900019       -0.03343178565245
C           -2.24843826780719        2.17879308962236       -0.05100039676159
C           -1.79586903429416       -0.17448605413245       -0.04965855580357
O           -2.99144546132284       -0.36112304195853       -0.07385399868924
N           -0.90621882331348       -1.22985466127738       -0.03799021000168
C           -1.39013452204231       -2.59611106860087       -0.05781553861214
H            3.74492213769598        1.28155950830620        1.06115771160173
H            4.01493087845632        1.11530745502679       -0.68353287801164
H            2.72709559828439        2.18352142298025       -0.07521396260501
H            3.55227167783427       -1.54281273042222        0.04354507380190
H           -1.71552323336438        3.12620260532184       -0.02672785419451
H           -2.85570619614095        2.10937429475482       -0.95314727428641
H           -2.90704203615121        2.09193309422549        0.81290485449363
H           -1.03244664467191       -3.11810754814108        0.83118508311203
H           -1.00812696435245       -3.10107075948399       -0.94669219610619
H           -2.47522030428296       -2.57742169871311       -0.07256566767830
H            0.96223683483909       -4.22804946501466       -0.03561666519306
25
 energy: 19.059313478454 xtb: 6.6.1 (8d0f1dd)
C            3.25592847976797        1.25165099682748        0.08627790731367
N            2.30353122230844        0.16875456055286        0.03874373329099
C            2.53938569389603       -1.16167652626282        0.03451179233024
N            1.44078088879622       -1.89952602167512        0.00662120424315
C            0.43746091217775       -0.99107574140248       -0.00736771092580
C            0.93567067161115        0.30625340217513        0.01273444882587
C            0.08924041729964        1.46601804056747       -0.00437428826503
O            0.44644388555521        2.62857452796628        0.00381569682462
N           -1.26398955099825        1.11348082402381       -0.03368788802338
C           -2.25107417255697        2.18211682183294       -0.05116719181741
C           -1.79410528998171       -0.17115249198880       -0.04954391199649
O           -2.98985704225430       -0.35748609112306       -0.07350964676813
N           -0.90296996047133       -1.22243186269132       -0.03779388008798
C           -1.38404633362159       -2.58916870822161       -0.05751107838758
H            3.74622882789061        1.28949491142694        1.06115450067353
H            4.01682630702321        1.12277267981507       -0.68390493744183
H            2.73073881578178        2.19312469171195       -0.07721312202649
H            3.55063341507968       -1.53248256794235        0.04255852627586
H           -1.72051432536300        3.13061995776850       -0.02695265659171
H           -2.85829569778403        2.11150134851841       -0.95325125272313
H           -2.90931658128575        2.09402673101942        0.81292311046564
H           -1.02573028742903       -3.10766916489481        0.83206161915912
H           -1.00169260935097       -3.09118533376837       -0.94671781328330
H           -2.46846830493867       -2.57656575249905       -0.07219387703729
H            0.94414042270197       -4.35311917292059       -0.03671801059089
25
 energy: 19.259737578884 xtb: 6.6.1 (8d0f1dd)
C            3.25820951276909        1.26122255382342        0.08624724638427
N            2.30429603267264        0.18163329307362        0.03854582500683
C            2.54084570780901       -1.14694774420506        0.03371191357204
N            1.44568026920953       -1.88514651992785        0.00612016295885
C            0.43991535997616       -0.98015022464929       -0.00727394450817
C            0.93607105861593        0.31720261482448        0.01316220253009
C            0.08745251624365        1.47459994190784       -0.00404722142136
O            0.44401254680035        2.63780479916677        0.00386994382810
N           -1.26404612644466        1.11817295585746       -0.03379847210695
C           -2.25372262319387        2.18475600313904       -0.05137715344790
C           -1.79184859701557       -0.16877038267381       -0.04928388010785
O           -2.98791496074698       -0.35476526590363       -0.07315186809428
N           -0.89903816438496       -1.21696548271037       -0.03750283084772
C           -1.37815106350122       -2.58315999699207       -0.05726394637020
H            3.74611803803184        1.29581305440011        1.06215635809336
H            4.01831195862092        1.13029524886440       -0.68384489175998
H            2.73470464524908        2.20294814264571       -0.07862180525500
H            3.54601074410895       -1.52956943988067        0.04371741683603
H           -1.72521855565363        3.13432815976111       -0.02707173107843
H           -2.86118268204370        2.11245609881964       -0.95343002776625
H           -2.91228657173263        2.09458622559621        0.81256619677662
H           -1.01641076308196       -3.09888249759056        0.83148865285966
H           -0.99276619336614       -3.08275934636228       -0.94554387651483
H           -2.46303060463668       -2.57160460152471       -0.07190552274950
H            0.92306144207182       -4.47834952579560       -0.03853647980156
25
 energy: 19.430243974948 xtb: 6.6.1 (8d0f1dd)
C            3.26099707113150        1.27079202836338        0.08648325807019
N            2.30541906641799        0.19446807530024        0.03924444463514
C            2.54370032364021       -1.13184633799669        0.03400159103172
N            1.45222075611053       -1.87085543102025        0.00574322015526
C            0.44293399944111       -0.97024868083939       -0.00714619745079
C            0.93683299208916        0.32736416942022        0.01387562188012
C            0.08605209698274        1.48211701099653       -0.00355053901705
O            0.44092582149718        2.64628101944279        0.00347783691330
N           -1.26270516390703        1.12066195457060       -0.03378338943336
C           -2.25449689253947        2.18567406225325       -0.05151990151743
C           -1.78872624316890       -0.16738142046207       -0.04878712788967
O           -2.98528371223216       -0.35254737644974       -0.07275179753801
N           -0.89421395053861       -1.21363957581967       -0.03691381998956
C           -1.37285425278134       -2.57839682293291       -0.05699602796485
H            3.74825685195679        1.30441257688688        1.06282132932420
H            4.02050129299309        1.13134078941616       -0.68273520468303
H            2.73949890072530        2.21317095150668       -0.07965239993979
H            3.54076821239682       -1.52768307078199        0.04721293495119
H           -1.72916920835116        3.13745013500732       -0.02716859195266
H           -2.86245751260047        2.11179980134015       -0.95321344423006
H           -2.91250644153583        2.09286452301450        0.81239052634439
H           -1.00717496097574       -3.09310739952917        0.83001012059623
H           -0.98387562304140       -3.07646251573847       -0.94381837725482
H           -2.45912004040890       -2.56504231982122       -0.07171305142844
H            0.90049626960792       -4.60446657283409       -0.04100280854506
25