      -----------------------------------------------------------      
     |                   =====================                   |     
     |                           x T B                           |     
     |                   =====================                   |     
     |                         S. Grimme                         |     
     |          Mulliken Center for Theoretical Chemistry        |     
     |                    University of Bonn                     |     
      -----------------------------------------------------------      

   * xtb version 6.6.1 (8d0f1dd) compiled by 'conda@1efc2f54142f' on 2023-08-01

   xtb is free software: you can redistribute it and/or modify it under
   the terms of the GNU Lesser General Public License as published by
   the Free Software Foundation, either version 3 of the License, or
   (at your option) any later version.
   
   xtb is distributed in the hope that it will be useful,
   but WITHOUT ANY WARRANTY; without even the implied warranty of
   MERCHANTABILITY or FITNESS FOR A PARTICULAR PURPOSE.  See the
   GNU Lesser General Public License for more details.
   
   Cite this work as:
   * C. Bannwarth, E. Caldeweyher, S. Ehlert, A. Hansen, P. Pracht,
     J. Seibert, S. Spicher, S. Grimme, WIREs Comput. Mol. Sci., 2020, 11,
     e01493. DOI: 10.1002/wcms.1493
   
   for GFN2-xTB:
   * C. Bannwarth, S. Ehlert and S. Grimme., J. Chem. Theory Comput., 2019,
     15, 1652-1671. DOI: 10.1021/acs.jctc.8b01176
   for GFN1-xTB:
   * S. Grimme, C. Bannwarth, P. Shushkov, J. Chem. Theory Comput., 2017,
     13, 1989-2009. DOI: 10.1021/acs.jctc.7b00118
   for GFN0-xTB:
   * P. Pracht, E. Caldeweyher, S. Ehlert, S. Grimme, ChemRxiv, 2019, preprint.
     DOI: 10.26434/chemrxiv.8326202.v1
   for GFN-FF:
   * S. Spicher and S. Grimme, Angew. Chem. Int. Ed., 2020, 59, 15665-15673.
     DOI: 10.1002/anie.202004239
   
   for ALPB and GBSA implicit solvation:
   * S. Ehlert, M. Stahn, S. Spicher, S. Grimme, J. Chem. Theory Comput.,
     2021, 17, 4250-4261. DOI: 10.1021/acs.jctc.1c00471
   
   for DFT-D4:
   * E. Caldeweyher, C. Bannwarth and S. Grimme, J. Chem. Phys., 2017,
     147, 034112. DOI: 10.1063/1.4993215
   * E. Caldeweyher, S. Ehlert, A. Hansen, H. Neugebauer, S. Spicher,
     C. Bannwarth and S. Grimme, J. Chem. Phys., 2019, 150, 154122.
     DOI: 10.1063/1.5090222
   * E. Caldeweyher, J.-M. Mewes, S. Ehlert and S. Grimme, Phys. Chem. Chem. Phys.
     2020, 22, 8499-8512. DOI: 10.1039/D0CP00502A
   
   for sTDA-xTB:
   * S. Grimme and C. Bannwarth, J. Chem. Phys., 2016, 145, 054103.
     DOI: 10.1063/1.4959605
   
   in the mass-spec context:
   * V. Asgeirsson, C. Bauer and S. Grimme, Chem. Sci., 2017, 8, 4879.
     DOI: 10.1039/c7sc00601b
   * J. Koopman and S. Grimme, ACS Omega 2019, 4, 12, 15120-15133.
     DOI: 10.1021/acsomega.9b02011
   
   for metadynamics refer to:
   * S. Grimme, J. Chem. Theory Comput., 2019, 155, 2847-2862
     DOI: 10.1021/acs.jctc.9b00143
   
   for SPH calculations refer to:
   * S. Spicher and S. Grimme, J. Chem. Theory Comput., 2021, 17, 1701-1714
     DOI: 10.1021/acs.jctc.0c01306
   
   with help from (in alphabetical order)
   P. Atkinson, C. Bannwarth, F. Bohle, G. Brandenburg, E. Caldeweyher
   M. Checinski, S. Dohm, S. Ehlert, S. Ehrlich, I. Gerasimov, C. Hölzer
   A. Katbashev, J. Koopman, C. Lavigne, S. Lehtola, F. März, M. Müller,
   F. Musil, H. Neugebauer, J. Pisarek, C. Plett, P. Pracht, F. Pultar,
   J. Seibert, P. Shushkov, S. Spicher, M. Stahn, M. Steiner, T. Strunk,
   J. Stückrath, T. Rose, and J. Unsleber
   
 * started run on 2024/06/05 at 19:58:57.133     

           -------------------------------------------------
          |                Calculation Setup                |
           -------------------------------------------------

          program call               : xtb struc.xyz --opt loose --input .xc1 --gfn2
          hostname                   : n-62-29-9
          coordinate file            : struc.xyz
          omp threads                :                     1

   ID    Z sym.   atoms
    1    6 C      1, 3, 5-7, 10, 11, 14
    2    7 N      2, 4, 9, 13
    3    8 O      8, 12
    4    1 H      15-25
constraining bond 5 25 to    2.7133300 Å, actual value:    2.1289605 Å

           -------------------------------------------------
          |                 G F N 2 - x T B                 |
           -------------------------------------------------

        Reference                      10.1021/acs.jctc.8b01176
      * Hamiltonian:
        H0-scaling (s, p, d)           1.850000    2.230000    2.230000
        zeta-weighting                 0.500000
      * Dispersion:
        s8                             2.700000
        a1                             0.520000
        a2                             5.000000
        s9                             5.000000
      * Repulsion:
        kExp                           1.500000    1.000000
        rExp                           1.000000
      * Coulomb:
        alpha                          2.000000
        third order                    shell-resolved
        anisotropic                    true
        a3                             3.000000
        a5                             4.000000
        cn-shift                       1.200000
        cn-exp                         4.000000
        max-rad                        5.000000


          ...................................................
          :                      SETUP                      :
          :.................................................:
          :  # basis functions                  67          :
          :  # atomic orbitals                  67          :
          :  # shells                           39          :
          :  # electrons                        74          :
          :  max. iterations                   250          :
          :  Hamiltonian                  GFN2-xTB          :
          :  restarted?                      false          :
          :  GBSA solvation                  false          :
          :  PC potential                    false          :
          :  electronic temp.         7500.0000000     K    :
          :  accuracy                    1.0000000          :
          :  -> integral cutoff          0.2500000E+02      :
          :  -> integral neglect         0.1000000E-07      :
          :  -> SCF convergence          0.1000000E-05 Eh   :
          :  -> wf. convergence          0.1000000E-03 e    :
          :  Broyden damping             0.4000000          :
          ...................................................

 iter      E             dE          RMSdq      gap      omega  full diag
   1    -42.5960780 -0.425961E+02  0.440E+00    3.52       0.0  T
   2    -42.7780033 -0.181925E+00  0.248E+00    3.37       1.0  T
   3    -42.7871777 -0.917437E-02  0.149E+00    3.50       1.0  T
   4    -42.7817164  0.546128E-02  0.642E-01    3.42       1.0  T
   5    -42.7911189 -0.940247E-02  0.115E-01    3.49       1.0  T
   6    -42.7912109 -0.920486E-04  0.685E-02    3.46       1.0  T
   7    -42.7912647 -0.537856E-04  0.265E-02    3.48       1.0  T
   8    -42.7912686 -0.385526E-05  0.113E-02    3.47       1.8  T
   9    -42.7912697 -0.111307E-05  0.441E-03    3.47       4.5  T
  10    -42.7912698 -0.733569E-07  0.139E-03    3.47      14.4  T
  11    -42.7912698 -0.243437E-08  0.602E-04    3.47      33.2  T
  12    -42.7912698 -0.222032E-08  0.181E-04    3.47     110.6  T

   *** convergence criteria satisfied after 12 iterations ***

         #    Occupation            Energy/Eh            Energy/eV
      -------------------------------------------------------------
         1        2.0000           -0.9116047             -24.8060
       ...           ...                  ...                  ...
        31        1.9942           -0.6212459             -16.9050
        32        1.9930           -0.6166804             -16.7807
        33        1.9876           -0.6031136             -16.4116
        34        1.9710           -0.5827317             -15.8569
        35        1.9403           -0.5651917             -15.3796
        36        1.9387           -0.5645672             -15.3627
        37        1.9155           -0.5566412             -15.1470 (HOMO)
        38        0.1907           -0.4290919             -11.6762 (LUMO)
        39        0.0640           -0.4015676             -10.9272
        40        0.0206           -0.3740689             -10.1789
        41        0.0006           -0.2879107              -7.8344
        42        0.0000           -0.2065811              -5.6214
       ...           ...                  ...                  ...
        67                          0.5613577              15.2753
      -------------------------------------------------------------
                  HL-Gap            0.1275493 Eh            3.4708 eV
             Fermi-level           -0.4825284 Eh          -13.1303 eV

 SCC (total)                   0 d,  0 h,  0 min,  0.035 sec
 SCC setup                      ...        0 min,  0.000 sec (  0.870%)
 Dispersion                     ...        0 min,  0.000 sec (  1.116%)
 classical contributions        ...        0 min,  0.000 sec (  0.293%)
 integral evaluation            ...        0 min,  0.005 sec ( 14.775%)
 iterations                     ...        0 min,  0.018 sec ( 49.936%)
 molecular gradient             ...        0 min,  0.012 sec ( 32.581%)
 printout                       ...        0 min,  0.000 sec (  0.390%)

         :::::::::::::::::::::::::::::::::::::::::::::::::::::
         ::                     SUMMARY                     ::
         :::::::::::::::::::::::::::::::::::::::::::::::::::::
         :: total energy             -42.869787575467 Eh    ::
         :: gradient norm              1.565218406342 Eh/a0 ::
         :: HOMO-LUMO gap              3.470793873671 eV    ::
         ::.................................................::
         :: SCC energy               -42.791269777655 Eh    ::
         :: -> isotropic ES            0.136760385929 Eh    ::
         :: -> anisotropic ES         -0.005341405309 Eh    ::
         :: -> anisotropic XC          0.011501049227 Eh    ::
         :: -> dispersion             -0.022650340738 Eh    ::
         :: repulsion energy           0.531105277918 Eh    ::
         :: add. restraining          -0.609737234738 Eh    ::
         :: total charge               1.000000000010 e     ::
         :::::::::::::::::::::::::::::::::::::::::::::::::::::

      ----------------------------------------------------------- 
     |                   =====================                   |
     |                        A N C O P T                        |
     |                   =====================                   |
     |               Approximate Normal Coordinate               |
     |                Rational Function Optimizer                |
      ----------------------------------------------------------- 

          ...................................................
          :                      SETUP                      :
          :.................................................:
          :   optimization level             loose          :
          :   max. optcycles                   200          :
          :   ANC micro-cycles                  20          :
          :   degrees of freedom                69          :
          :.................................................:
          :   RF solver                   davidson          :
          :   write xtbopt.log                true          :
          :   linear?                        false          :
          :   energy convergence         0.5000000E-04 Eh   :
          :   grad. convergence          0.4000000E-02 Eh/α :
          :   maxmium RF displ.          1.0000000          :
          :   Hlow (freq-cutoff)         0.1000000E-01      :
          :   Hmax (freq-cutoff)         5.0000000          :
          :   S6 in model hess.         20.0000000          :
          ...................................................

generating ANC from model Hessian ...
Using Lindh-Hessian (1995)
 Shifting diagonal of input Hessian by    1.2820624743741036     
 Lowest  eigenvalues of input Hessian
    0.010000    0.000000    0.000000    0.000000    0.000000    0.000000
    0.000000    1.285563    1.287398    1.287698    1.291026    1.291855
    1.294030    1.294701    1.296086    1.302444    1.307109    1.320384
 Highest eigenvalues
    3.350124    3.432183    3.505779    3.635745    3.689771    3.862753


........................................................................
.............................. CYCLE    1 ..............................
........................................................................

 iter      E             dE          RMSdq      gap      omega  full diag
   1    -42.7912698 -0.427913E+02  0.838E-05    3.47       0.0  T
   2    -42.7912698 -0.247127E-10  0.452E-05    3.47     442.9  T
   3    -42.7912698 -0.149214E-11  0.279E-05    3.47     715.8  T
     SCC iter.                  ...        0 min,  0.005 sec
     gradient                   ...        0 min,  0.011 sec
 * total energy  :   -42.8697876 Eh     change       -0.2401990E-09 Eh
   gradient norm :     1.5652179 Eh/α   predicted     0.0000000E+00 (-100.00%)
   displ. norm   :     0.9893872 α      lambda       -0.1530673E+01
   maximum displ.:     0.9844770 α      in ANC's #1, #41, #64, ...

........................................................................
.............................. CYCLE    2 ..............................
........................................................................

 iter      E             dE          RMSdq      gap      omega  full diag
   1    -42.7236358 -0.427236E+02  0.129E+00    3.12       0.0  T
   2    -42.7338418 -0.102060E-01  0.866E-01    3.03       1.0  T
   3    -42.7360627 -0.222099E-02  0.478E-01    3.03       1.0  T
   4    -42.7369288 -0.866100E-03  0.238E-01    3.04       1.0  T
   5    -42.7376232 -0.694313E-03  0.657E-02    3.04       1.0  T
   6    -42.7377132 -0.900760E-04  0.253E-02    3.03       1.0  T
   7    -42.7377179 -0.470973E-05  0.111E-02    3.03       1.8  T
   8    -42.7377187 -0.731637E-06  0.185E-03    3.03      10.8  T
   9    -42.7377187 -0.505199E-07  0.818E-04    3.03      24.4  T
  10    -42.7377187 -0.224063E-08  0.206E-04    3.03      97.2  T
     SCC iter.                  ...        0 min,  0.014 sec
     gradient                   ...        0 min,  0.012 sec
 * total energy  :   -45.0349008 Eh     change       -0.2165113E+01 Eh
   gradient norm :     2.8241563 Eh/α   predicted    -0.1514515E+01 ( -30.05%)
   displ. norm   :     0.9859937 α      lambda       -0.2752673E+01
   maximum displ.:     0.9727872 α      in ANC's #1, #50, #45, ...

........................................................................
.............................. CYCLE    3 ..............................
........................................................................

 iter      E             dE          RMSdq      gap      omega  full diag
   1    -42.4305002 -0.424305E+02  0.159E+00    2.52       0.0  T
   2    -42.4166610  0.138392E-01  0.192E+00    2.62       1.0  T
   3    -42.4871932 -0.705322E-01  0.650E-01    2.67       1.0  T
   4    -42.4839890  0.320421E-02  0.495E-01    2.61       1.0  T
   5    -42.4875773 -0.358822E-02  0.110E-01    2.68       1.0  T
   6    -42.4877610 -0.183747E-03  0.416E-02    2.66       1.0  T
   7    -42.4877737 -0.127006E-04  0.179E-02    2.66       1.1  T
   8    -42.4877757 -0.196730E-05  0.426E-03    2.66       4.7  T
   9    -42.4877761 -0.432428E-06  0.201E-03    2.66       9.9  T
  10    -42.4877761 -0.258328E-07  0.856E-04    2.66      23.4  T
  11    -42.4877761 -0.566382E-08  0.269E-04    2.66      74.3  T
     SCC iter.                  ...        0 min,  0.015 sec
     gradient                   ...        0 min,  0.011 sec
 * total energy  :   -48.3444664 Eh     change       -0.3309566E+01 Eh
   gradient norm :     4.0898582 Eh/α   predicted    -0.2714388E+01 ( -17.98%)
   displ. norm   :     0.9225376 α      lambda       -0.3622973E+01
   maximum displ.:     0.8165249 α      in ANC's #1, #50, #67, ...

........................................................................
.............................. CYCLE    4 ..............................
........................................................................

 iter      E             dE          RMSdq      gap      omega  full diag
   1    -42.2035173 -0.422035E+02  0.332E+00    1.28       0.0  T
   2    -41.9675436  0.235974E+00  0.393E+00    1.63       1.0  T
   3    -42.4854054 -0.517862E+00  0.123E+00    1.25       1.0  T
   4    -42.5068389 -0.214335E-01  0.750E-01    1.07       1.0  T
   5    -42.5120286 -0.518973E-02  0.452E-01    1.17       1.0  T
   6    -42.5173667 -0.533812E-02  0.790E-02    1.15       1.0  T
   7    -42.5174344 -0.676611E-04  0.375E-02    1.15       1.0  T
   8    -42.5174603 -0.259428E-04  0.186E-02    1.15       1.1  T
   9    -42.5174628 -0.250584E-05  0.967E-03    1.15       2.1  T
  10    -42.5174654 -0.261665E-05  0.237E-03    1.15       8.4  T
  11    -42.5174655 -0.881504E-07  0.121E-03    1.15      16.5  T
  12    -42.5174655 -0.878599E-08  0.425E-04    1.15      47.1  T
  13    -42.5174655 -0.138215E-08  0.135E-04    1.15     147.8  T
     SCC iter.                  ...        0 min,  0.018 sec
     gradient                   ...        0 min,  0.011 sec
 * total energy  :   -34.1674592 Eh     change        0.1417701E+02 Eh
   gradient norm :   162.2982891 Eh/α   predicted    -0.3353239E+01 (-123.65%)
   displ. norm   :     0.5420284 α      lambda       -0.8788972E+02
   maximum displ.:     0.5206105 α      in ANC's #1, #64, #41, ...

........................................................................
.............................. CYCLE    5 ..............................
........................................................................

 iter      E             dE          RMSdq      gap      omega  full diag
   1    -42.4941905 -0.424942E+02  0.139E+00    2.10       0.0  T
   2    -42.5047272 -0.105367E-01  0.903E-01    2.14       1.0  T
   3    -42.5146848 -0.995764E-02  0.491E-01    2.20       1.0  T
   4    -42.5160921 -0.140727E-02  0.262E-01    2.14       1.0  T
   5    -42.5171957 -0.110359E-02  0.138E-01    2.16       1.0  T
   6    -42.5177031 -0.507350E-03  0.479E-02    2.17       1.0  T
   7    -42.5177686 -0.655459E-04  0.142E-02    2.16       1.4  T
   8    -42.5177700 -0.141147E-05  0.644E-03    2.16       3.1  T
   9    -42.5177708 -0.821922E-06  0.118E-03    2.16      16.9  T
  10    -42.5177708 -0.546377E-08  0.629E-04    2.16      31.8  T
  11    -42.5177708 -0.100333E-08  0.148E-04    2.16     134.8  T
     SCC iter.                  ...        0 min,  0.015 sec
     gradient                   ...        0 min,  0.011 sec
 * total energy  :   -49.5532458 Eh     change       -0.1538579E+02 Eh
   gradient norm :     1.0234834 Eh/α   predicted    -0.5685564E+02 ( 269.53%)
   displ. norm   :     0.8113614 α      lambda       -0.2690386E+00
   maximum displ.:     0.3576653 α      in ANC's #50, #67, #59, ...

........................................................................
.............................. CYCLE    6 ..............................
........................................................................

 iter      E             dE          RMSdq      gap      omega  full diag
   1    -42.4637804 -0.424638E+02  0.198E+00    0.29       0.0  T
   2    -42.3499355  0.113845E+00  0.269E+00    0.89       1.0  T
   3    -42.5414043 -0.191469E+00  0.905E-01    0.60       1.0  T
   4    -42.5245048  0.168995E-01  0.949E-01    0.47       1.0  T
   5    -42.5430595 -0.185547E-01  0.381E-01    0.58       1.0  T
   6    -42.5473388 -0.427933E-02  0.102E-01    0.54       1.0  T
   7    -42.5474901 -0.151277E-03  0.499E-02    0.52       1.0  T
   8    -42.5475338 -0.436915E-04  0.158E-02    0.53       1.3  T
   9    -42.5475393 -0.548637E-05  0.473E-03    0.53       4.2  T
  10    -42.5475395 -0.206014E-06  0.197E-03    0.53      10.1  T
  11    -42.5475395 -0.273644E-07  0.963E-04    0.53      20.8  T
  12    -42.5475395 -0.134230E-07  0.397E-04    0.53      50.4  T
     SCC iter.                  ...        0 min,  0.017 sec
     gradient                   ...        0 min,  0.011 sec
 * total energy  :   -49.5484594 Eh     change        0.4786418E-02 Eh
   gradient norm :     1.4200477 Eh/α   predicted    -0.2230749E+00 (*******%)
   displ. norm   :     0.6099178 α      lambda       -0.4707245E+00
   maximum displ.:     0.2744595 α      in ANC's #45, #66, #62, ...

........................................................................
.............................. CYCLE    7 ..............................
........................................................................

 iter      E             dE          RMSdq      gap      omega  full diag
   1    -42.4169449 -0.424169E+02  0.130E+00    0.45       0.0  T
   2    -42.3535525  0.633924E-01  0.201E+00    1.11       1.0  T
   3    -42.4787404 -0.125188E+00  0.567E-01    0.67       1.0  T
   4    -42.4738218  0.491863E-02  0.602E-01    0.75       1.0  T
   5    -42.4769316 -0.310988E-02  0.363E-01    0.70       1.0  T
   6    -42.4795133 -0.258163E-02  0.164E-01    0.68       1.0  T
   7    -42.4805865 -0.107326E-02  0.244E-02    0.66       1.0  T
   8    -42.4805925 -0.593792E-05  0.153E-02    0.65       1.3  T
   9    -42.4805941 -0.164349E-05  0.512E-03    0.65       3.9  T
  10    -42.4805947 -0.592945E-06  0.160E-03    0.65      12.5  T
  11    -42.4805947 -0.112192E-07  0.103E-03    0.65      19.4  T
  12    -42.4805947 -0.114989E-07  0.542E-04    0.65      36.9  T
  13    -42.4805947 -0.837132E-08  0.132E-04    0.65     151.7  T
     SCC iter.                  ...        0 min,  0.018 sec
     gradient                   ...        0 min,  0.011 sec
 * total energy  :   -49.6698371 Eh     change       -0.1213777E+00 Eh
   gradient norm :     0.7082800 Eh/α   predicted    -0.3229169E+00 ( 166.04%)
   displ. norm   :     0.1696744 α      lambda       -0.2724637E-01
   maximum displ.:     0.0795552 α      in ANC's #50, #45, #66, ...

........................................................................
.............................. CYCLE    8 ..............................
........................................................................

 iter      E             dE          RMSdq      gap      omega  full diag
   1    -42.4935595 -0.424936E+02  0.301E-01    0.93       0.0  T
   2    -42.4929165  0.642977E-03  0.340E-01    0.80       1.0  T
   3    -42.4957248 -0.280828E-02  0.125E-01    0.86       1.0  T
   4    -42.4955646  0.160202E-03  0.740E-02    0.86       1.0  T
   5    -42.4956643 -0.997178E-04  0.504E-02    0.86       1.0  T
   6    -42.4957451 -0.808468E-04  0.105E-02    0.87       1.9  T
   7    -42.4957439  0.125951E-05  0.105E-02    0.86       1.9  T
   8    -42.4957469 -0.304119E-05  0.181E-03    0.87      11.0  T
   9    -42.4957470 -0.805796E-07  0.649E-04    0.87      30.8  T
  10    -42.4957470 -0.480788E-08  0.300E-04    0.87      66.7  T
     SCC iter.                  ...        0 min,  0.014 sec
     gradient                   ...        0 min,  0.011 sec
 * total energy  :   -49.6929015 Eh     change       -0.2306440E-01 Eh
   gradient norm :     0.7138590 Eh/α   predicted    -0.1401601E-01 ( -39.23%)
   displ. norm   :     0.3365693 α      lambda       -0.4194411E-01
   maximum displ.:     0.1551754 α      in ANC's #50, #45, #66, ...

........................................................................
.............................. CYCLE    9 ..............................
........................................................................

 iter      E             dE          RMSdq      gap      omega  full diag
   1    -42.5144481 -0.425144E+02  0.628E-01    1.43       0.0  T
   2    -42.5155944 -0.114632E-02  0.561E-01    1.24       1.0  T
   3    -42.5207394 -0.514505E-02  0.257E-01    1.32       1.0  T
   4    -42.5181991  0.254033E-02  0.325E-01    1.31       1.0  T
   5    -42.5211665 -0.296738E-02  0.682E-02    1.30       1.0  T
   6    -42.5213074 -0.140930E-03  0.356E-02    1.31       1.0  T
   7    -42.5213298 -0.224058E-04  0.154E-02    1.31       1.3  T
   8    -42.5213339 -0.409598E-05  0.435E-03    1.31       4.6  T
   9    -42.5213343 -0.381001E-06  0.875E-04    1.31      22.9  T
  10    -42.5213343 -0.864410E-08  0.270E-04    1.31      74.1  T
     SCC iter.                  ...        0 min,  0.014 sec
     gradient                   ...        0 min,  0.011 sec
 * total energy  :   -49.7159072 Eh     change       -0.2300571E-01 Eh
   gradient norm :     0.7205453 Eh/α   predicted    -0.2334786E-01 (   1.49%)
   displ. norm   :     0.0654696 α      lambda       -0.6202571E-02
   maximum displ.:     0.0319981 α      in ANC's #41, #18, #7, ...

........................................................................
.............................. CYCLE   10 ..............................
........................................................................

 iter      E             dE          RMSdq      gap      omega  full diag
   1    -42.5216146 -0.425216E+02  0.857E-02    1.40       0.0  T
   2    -42.5216049  0.972566E-05  0.658E-02    1.38       1.0  T
   3    -42.5216304 -0.254677E-04  0.388E-02    1.39       1.0  T
   4    -42.5216429 -0.125631E-04  0.287E-02    1.39       1.0  T
   5    -42.5216659 -0.229408E-04  0.745E-03    1.39       2.7  T
   6    -42.5216675 -0.164337E-05  0.266E-03    1.39       7.5  T
   7    -42.5216676 -0.600099E-07  0.598E-04    1.39      33.4  T
   8    -42.5216676 -0.179925E-08  0.230E-04    1.39      86.8  T
     SCC iter.                  ...        0 min,  0.011 sec
     gradient                   ...        0 min,  0.011 sec
 * total energy  :   -49.7217671 Eh     change       -0.5859886E-02 Eh
   gradient norm :     0.6417852 Eh/α   predicted    -0.3114910E-02 ( -46.84%)
   displ. norm   :     0.4696758 α      lambda       -0.4388188E-01
   maximum displ.:     0.2307391 α      in ANC's #41, #18, #7, ...

........................................................................
.............................. CYCLE   11 ..............................
........................................................................

 iter      E             dE          RMSdq      gap      omega  full diag
   1    -42.5196295 -0.425196E+02  0.526E-01    1.75       0.0  T
   2    -42.5198312 -0.201683E-03  0.354E-01    1.72       1.0  T
   3    -42.5196541  0.177156E-03  0.218E-01    1.73       1.0  T
   4    -42.5205563 -0.902239E-03  0.554E-02    1.72       1.0  T
   5    -42.5206295 -0.731717E-04  0.307E-02    1.72       1.0  T
   6    -42.5206501 -0.205776E-04  0.129E-02    1.72       1.5  T
   7    -42.5206507 -0.657190E-06  0.599E-03    1.72       3.3  T
   8    -42.5206522 -0.148445E-05  0.199E-03    1.72      10.1  T
   9    -42.5206523 -0.101291E-06  0.812E-04    1.72      24.6  T
  10    -42.5206523 -0.162269E-08  0.237E-04    1.72      84.4  T
     SCC iter.                  ...        0 min,  0.014 sec
     gradient                   ...        0 min,  0.011 sec
 * total energy  :   -49.7513748 Eh     change       -0.2960771E-01 Eh
   gradient norm :     0.1351134 Eh/α   predicted    -0.2678144E-01 (  -9.55%)
   displ. norm   :     0.3379988 α      lambda       -0.1770052E-01
   maximum displ.:     0.1568241 α      in ANC's #41, #18, #7, ...

........................................................................
.............................. CYCLE   12 ..............................
........................................................................

 iter      E             dE          RMSdq      gap      omega  full diag
   1    -42.5257113 -0.425257E+02  0.374E-01    1.87       0.0  T
   2    -42.5257218 -0.104819E-04  0.234E-01    1.88       1.0  T
   3    -42.5252899  0.431838E-03  0.193E-01    1.85       1.0  T
   4    -42.5259790 -0.689078E-03  0.670E-02    1.88       1.0  T
   5    -42.5261362 -0.157221E-03  0.203E-02    1.87       1.0  T
   6    -42.5261473 -0.110654E-04  0.811E-03    1.87       2.5  T
   7    -42.5261473 -0.550271E-07  0.351E-03    1.87       5.7  T
   8    -42.5261478 -0.449447E-06  0.113E-03    1.87      17.7  T
   9    -42.5261478 -0.274586E-07  0.533E-04    1.87      37.5  T
  10    -42.5261478 -0.125479E-08  0.190E-04    1.87     105.5  T
     SCC iter.                  ...        0 min,  0.014 sec
     gradient                   ...        0 min,  0.011 sec
 * total energy  :   -49.7660359 Eh     change       -0.1466105E-01 Eh
   gradient norm :     0.1419978 Eh/α   predicted    -0.9861582E-02 ( -32.74%)
   displ. norm   :     0.5119338 α      lambda       -0.2722799E-01
   maximum displ.:     0.2084086 α      in ANC's #41, #18, #7, ...

........................................................................
.............................. CYCLE   13 ..............................
........................................................................

 iter      E             dE          RMSdq      gap      omega  full diag
   1    -42.5388899 -0.425389E+02  0.549E-01    1.86       0.0  T
   2    -42.5384625  0.427455E-03  0.377E-01    1.94       1.0  T
   3    -42.5388060 -0.343516E-03  0.270E-01    1.84       1.0  T
   4    -42.5403985 -0.159248E-02  0.935E-02    1.91       1.0  T
   5    -42.5406487 -0.250205E-03  0.246E-02    1.89       1.0  T
   6    -42.5406583 -0.963414E-05  0.128E-02    1.89       1.6  T
   7    -42.5406600 -0.165708E-05  0.527E-03    1.89       3.8  T
   8    -42.5406607 -0.721937E-06  0.149E-03    1.89      13.4  T
   9    -42.5406607 -0.321307E-07  0.763E-04    1.89      26.2  T
  10    -42.5406607 -0.408522E-08  0.281E-04    1.89      71.1  T
     SCC iter.                  ...        0 min,  0.014 sec
     gradient                   ...        0 min,  0.011 sec
 * total energy  :   -49.7821396 Eh     change       -0.1610372E-01 Eh
   gradient norm :     0.4138058 Eh/α   predicted    -0.1718192E-01 (   6.70%)
   displ. norm   :     0.2771594 α      lambda       -0.2246514E-01
   maximum displ.:     0.0986182 α      in ANC's #18, #64, #7, ...

........................................................................
.............................. CYCLE   14 ..............................
........................................................................

 iter      E             dE          RMSdq      gap      omega  full diag
   1    -42.5557600 -0.425558E+02  0.356E-01    1.59       0.0  T
   2    -42.5537872  0.197283E-02  0.395E-01    1.72       1.0  T
   3    -42.5580194 -0.423222E-02  0.121E-01    1.63       1.0  T
   4    -42.5579624  0.569288E-04  0.729E-02    1.66       1.0  T
   5    -42.5580960 -0.133589E-03  0.197E-02    1.64       1.0  T
   6    -42.5580981 -0.201444E-05  0.126E-02    1.65       1.6  T
   7    -42.5581013 -0.326246E-05  0.428E-03    1.64       4.7  T
   8    -42.5581018 -0.498805E-06  0.945E-04    1.64      21.2  T
   9    -42.5581018 -0.772230E-08  0.428E-04    1.64      46.8  T
     SCC iter.                  ...        0 min,  0.013 sec
     gradient                   ...        0 min,  0.011 sec
 * total energy  :   -49.7977478 Eh     change       -0.1560820E-01 Eh
   gradient norm :     0.1760165 Eh/α   predicted    -0.1209558E-01 ( -22.50%)
   displ. norm   :     0.2927379 α      lambda       -0.2573116E-01
   maximum displ.:     0.1328747 α      in ANC's #50, #49, #64, ...

........................................................................
.............................. CYCLE   15 ..............................
........................................................................

 iter      E             dE          RMSdq      gap      omega  full diag
   1    -42.5931772 -0.425932E+02  0.401E-01    1.20       0.0  T
   2    -42.5894675  0.370975E-02  0.501E-01    1.37       1.0  T
   3    -42.5964630 -0.699551E-02  0.172E-01    1.24       1.0  T
   4    -42.5961737  0.289289E-03  0.103E-01    1.30       1.0  T
   5    -42.5964936 -0.319882E-03  0.384E-02    1.26       1.0  T
   6    -42.5965178 -0.242149E-04  0.137E-02    1.26       1.5  T
   7    -42.5965187 -0.898382E-06  0.547E-03    1.26       3.7  T
   8    -42.5965196 -0.841661E-06  0.172E-03    1.26      11.6  T
   9    -42.5965196 -0.351081E-07  0.576E-04    1.26      34.7  T
  10    -42.5965196 -0.934790E-09  0.238E-04    1.26      83.9  T
     SCC iter.                  ...        0 min,  0.014 sec
     gradient                   ...        0 min,  0.011 sec
 * total energy  :   -49.8180480 Eh     change       -0.2030019E-01 Eh
   gradient norm :     0.3644175 Eh/α   predicted    -0.1396807E-01 ( -31.19%)
   displ. norm   :     0.3870603 α      lambda       -0.2648042E-01
   maximum displ.:     0.1877578 α      in ANC's #50, #41, #49, ...

........................................................................
.............................. CYCLE   16 ..............................
........................................................................

 iter      E             dE          RMSdq      gap      omega  full diag
   1    -42.6342473 -0.426342E+02  0.510E-01    0.86       0.0  T
   2    -42.6314156  0.283173E-02  0.475E-01    1.03       1.0  T
   3    -42.6350840 -0.366841E-02  0.265E-01    0.84       1.0  T
   4    -42.6358409 -0.756878E-03  0.130E-01    0.97       1.0  T
   5    -42.6364144 -0.573508E-03  0.323E-02    0.91       1.0  T
   6    -42.6364316 -0.171356E-04  0.127E-02    0.92       1.6  T
   7    -42.6364325 -0.981195E-06  0.510E-03    0.92       3.9  T
   8    -42.6364332 -0.694634E-06  0.161E-03    0.92      12.4  T
   9    -42.6364333 -0.347296E-07  0.681E-04    0.92      29.4  T
  10    -42.6364333 -0.307800E-08  0.273E-04    0.92      73.1  T
     SCC iter.                  ...        0 min,  0.014 sec
     gradient                   ...        0 min,  0.011 sec
 * total energy  :   -49.8321908 Eh     change       -0.1414278E-01 Eh
   gradient norm :     0.3520641 Eh/α   predicted    -0.1522391E-01 (   7.64%)
   displ. norm   :     0.1019167 α      lambda       -0.4257081E-02
   maximum displ.:     0.0330838 α      in ANC's #63, #18, #22, ...

........................................................................
.............................. CYCLE   17 ..............................
........................................................................

 iter      E             dE          RMSdq      gap      omega  full diag
   1    -42.6400364 -0.426400E+02  0.950E-02    0.92       0.0  T
   2    -42.6400415 -0.503901E-05  0.702E-02    0.92       1.0  T
   3    -42.6400919 -0.504034E-04  0.405E-02    0.91       1.0  T
   4    -42.6400849  0.695512E-05  0.297E-02    0.93       1.0  T
   5    -42.6401137 -0.287667E-04  0.106E-02    0.92       1.9  T
   6    -42.6401181 -0.439525E-05  0.250E-03    0.92       8.0  T
   7    -42.6401181 -0.295491E-07  0.937E-04    0.92      21.3  T
   8    -42.6401181 -0.107330E-07  0.256E-04    0.92      78.2  T
     SCC iter.                  ...        0 min,  0.012 sec
     gradient                   ...        0 min,  0.011 sec
 * total energy  :   -49.8349318 Eh     change       -0.2740995E-02 Eh
   gradient norm :     0.1688531 Eh/α   predicted    -0.2150791E-02 ( -21.53%)
   displ. norm   :     0.1488972 α      lambda       -0.7169381E-02
   maximum displ.:     0.0592079 α      in ANC's #41, #47, #69, ...

........................................................................
.............................. CYCLE   18 ..............................
........................................................................

 iter      E             dE          RMSdq      gap      omega  full diag
   1    -42.6405714 -0.426406E+02  0.226E-01    0.83       0.0  T
   2    -42.6406082 -0.368198E-04  0.139E-01    0.85       1.0  T
   3    -42.6402945  0.313715E-03  0.110E-01    0.81       1.0  T
   4    -42.6405942 -0.299732E-03  0.508E-02    0.86       1.0  T
   5    -42.6406966 -0.102410E-03  0.173E-02    0.84       1.2  T
   6    -42.6407053 -0.866868E-05  0.492E-03    0.84       4.1  T
   7    -42.6407053 -0.593586E-07  0.202E-03    0.84       9.9  T
   8    -42.6407054 -0.795753E-07  0.666E-04    0.84      30.0  T
   9    -42.6407054 -0.441455E-08  0.284E-04    0.84      70.5  T
     SCC iter.                  ...        0 min,  0.013 sec
     gradient                   ...        0 min,  0.011 sec
 * total energy  :   -49.8400807 Eh     change       -0.5148917E-02 Eh
   gradient norm :     0.1178892 Eh/α   predicted    -0.3664348E-02 ( -28.83%)
   displ. norm   :     0.2011509 α      lambda       -0.6011403E-02
   maximum displ.:     0.0593650 α      in ANC's #22, #63, #24, ...

........................................................................
.............................. CYCLE   19 ..............................
........................................................................

 iter      E             dE          RMSdq      gap      omega  full diag
   1    -42.6414155 -0.426414E+02  0.248E-01    0.74       0.0  T
   2    -42.6414012  0.143107E-04  0.154E-01    0.78       1.0  T
   3    -42.6406656  0.735615E-03  0.149E-01    0.70       1.0  T
   4    -42.6414266 -0.761012E-03  0.596E-02    0.78       1.0  T
   5    -42.6415578 -0.131254E-03  0.136E-02    0.76       1.5  T
   6    -42.6415606 -0.272534E-05  0.532E-03    0.76       3.8  T
   7    -42.6415608 -0.259056E-06  0.176E-03    0.76      11.4  T
   8    -42.6415609 -0.581813E-07  0.719E-04    0.76      27.8  T
   9    -42.6415609 -0.988578E-10  0.336E-04    0.76      59.6  T
     SCC iter.                  ...        0 min,  0.013 sec
     gradient                   ...        0 min,  0.011 sec
 * total energy  :   -49.8439448 Eh     change       -0.3864155E-02 Eh
   gradient norm :     0.1620297 Eh/α   predicted    -0.3127717E-02 ( -19.06%)
   displ. norm   :     0.0926763 α      lambda       -0.2235032E-02
   maximum displ.:     0.0300892 α      in ANC's #22, #24, #19, ...

........................................................................
.............................. CYCLE   20 ..............................
........................................................................

 iter      E             dE          RMSdq      gap      omega  full diag
   1    -42.6438526 -0.426439E+02  0.101E-01    0.73       0.0  T
   2    -42.6438630 -0.103864E-04  0.534E-02    0.72       1.0  T
   3    -42.6438407  0.223567E-04  0.338E-02    0.74       1.0  T
   4    -42.6438612 -0.205460E-04  0.148E-02    0.72       1.4  T
   5    -42.6438680 -0.677084E-05  0.654E-03    0.73       3.1  T
   6    -42.6438689 -0.971076E-06  0.287E-03    0.73       7.0  T
   7    -42.6438692 -0.220343E-06  0.872E-04    0.73      22.9  T
   8    -42.6438692 -0.219832E-07  0.329E-04    0.73      60.7  T
     SCC iter.                  ...        0 min,  0.011 sec
     gradient                   ...        0 min,  0.011 sec
 * total energy  :   -49.8457287 Eh     change       -0.1783907E-02 Eh
   gradient norm :     0.2257730 Eh/α   predicted    -0.1127236E-02 ( -36.81%)
   displ. norm   :     0.1718435 α      lambda       -0.4502825E-02
   maximum displ.:     0.0572418 α      in ANC's #13, #24, #22, ...
 * RMSD in coord.:     0.8031853 α      energy gain  -0.6975941E+01 Eh

generating ANC from model Hessian ...
Using Lindh-Hessian (1995)
 Shifting diagonal of input Hessian by    8.1086370992680297E-003
 Lowest  eigenvalues of input Hessian
    0.000000    0.000000    0.000000    0.000000    0.000000    0.000000
    0.010000    0.010967    0.013806    0.015140    0.016438    0.018899
    0.019585    0.021454    0.021859    0.026179    0.030824    0.038440
 Highest eigenvalues
    2.085538    2.255277    2.352574    2.516131    9.852049   14.447379


........................................................................
.............................. CYCLE   21 ..............................
........................................................................

 iter      E             dE          RMSdq      gap      omega  full diag
   1    -42.6486244 -0.426486E+02  0.159E-01    0.69       0.0  T
   2    -42.6486606 -0.361028E-04  0.866E-02    0.68       1.0  T
   3    -42.6486309  0.296376E-04  0.445E-02    0.69       1.0  T
   4    -42.6486737 -0.428240E-04  0.152E-02    0.68       1.3  T
   5    -42.6486759 -0.217895E-05  0.909E-03    0.69       2.2  T
   6    -42.6486768 -0.880868E-06  0.666E-03    0.68       3.0  T
   7    -42.6486786 -0.182749E-05  0.170E-03    0.68      11.8  T
   8    -42.6486787 -0.656226E-07  0.607E-04    0.68      32.9  T
   9    -42.6486787 -0.220238E-08  0.220E-04    0.68      90.9  T
     SCC iter.                  ...        0 min,  0.013 sec
     gradient                   ...        0 min,  0.011 sec
 * total energy  :   -49.8493203 Eh     change       -0.3591565E-02 Eh
   gradient norm :     0.3006611 Eh/α   predicted     0.0000000E+00 (-100.00%)
   displ. norm   :     0.2502023 α      lambda       -0.5443060E-01
   maximum displ.:     0.0919363 α      in ANC's #13, #49, #64, ...

........................................................................
.............................. CYCLE   22 ..............................
........................................................................

 iter      E             dE          RMSdq      gap      omega  full diag
   1    -42.6626169 -0.426626E+02  0.277E-01    0.59       0.0  T
   2    -42.6621346  0.482256E-03  0.195E-01    0.71       1.0  T
   3    -42.6617532  0.381410E-03  0.198E-01    0.56       1.0  T
   4    -42.6628537 -0.110044E-02  0.876E-02    0.65       1.0  T
   5    -42.6630401 -0.186429E-03  0.124E-02    0.64       1.6  T
   6    -42.6630406 -0.568289E-06  0.956E-03    0.64       2.1  T
   7    -42.6630420 -0.133285E-05  0.257E-03    0.64       7.8  T
   8    -42.6630421 -0.130328E-06  0.107E-03    0.64      18.7  T
   9    -42.6630421 -0.142231E-07  0.430E-04    0.64      46.5  T
  10    -42.6630421 -0.478278E-08  0.140E-04    0.64     142.8  T
     SCC iter.                  ...        0 min,  0.014 sec
     gradient                   ...        0 min,  0.011 sec
 * total energy  :   -49.5724628 Eh     change        0.2768575E+00 Eh
   gradient norm :     2.9831215 Eh/α   predicted    -0.2891901E-01 (-110.45%)
   displ. norm   :     0.1668031 α      lambda       -0.4658332E+00
   maximum displ.:     0.0672669 α      in ANC's #64, #49, #50, ...

........................................................................
.............................. CYCLE   23 ..............................
........................................................................

 iter      E             dE          RMSdq      gap      omega  full diag
   1    -42.6553489 -0.426553E+02  0.206E-01    0.62       0.0  T
   2    -42.6554159 -0.669375E-04  0.107E-01    0.59       1.0  T
   3    -42.6553345  0.814021E-04  0.991E-02    0.65       1.0  T
   4    -42.6553738 -0.393637E-04  0.574E-02    0.59       1.0  T
   5    -42.6555071 -0.133247E-03  0.102E-02    0.62       2.0  T
   6    -42.6555108 -0.377754E-05  0.552E-03    0.61       3.6  T
   7    -42.6555110 -0.199491E-06  0.215E-03    0.61       9.3  T
   8    -42.6555112 -0.117166E-06  0.584E-04    0.61      34.2  T
   9    -42.6555112 -0.655968E-08  0.204E-04    0.61      98.0  T
     SCC iter.                  ...        0 min,  0.013 sec
     gradient                   ...        0 min,  0.011 sec
 * total energy  :   -49.8557966 Eh     change       -0.2833338E+00 Eh
   gradient norm :     0.2800192 Eh/α   predicted    -0.2393972E+00 ( -15.51%)
   displ. norm   :     0.2638724 α      lambda       -0.1096040E-01
   maximum displ.:     0.1655757 α      in ANC's #4, #13, #14, ...

........................................................................
.............................. CYCLE   24 ..............................
........................................................................

 iter      E             dE          RMSdq      gap      omega  full diag
   1    -42.6652354 -0.426652E+02  0.145E-01    0.55       0.0  T
   2    -42.6651992  0.362173E-04  0.923E-02    0.58       1.0  T
   3    -42.6646767  0.522503E-03  0.117E-01    0.51       1.0  T
   4    -42.6652695 -0.592816E-03  0.304E-02    0.57       1.0  T
   5    -42.6652871 -0.175377E-04  0.759E-03    0.57       2.6  T
   6    -42.6652891 -0.205744E-05  0.302E-03    0.57       6.6  T
   7    -42.6652892 -0.111677E-06  0.136E-03    0.57      14.7  T
   8    -42.6652893 -0.310465E-07  0.404E-04    0.57      49.5  T
   9    -42.6652893 -0.119650E-08  0.204E-04    0.57      98.0  T
     SCC iter.                  ...        0 min,  0.013 sec
     gradient                   ...        0 min,  0.011 sec
 * total energy  :   -49.8626105 Eh     change       -0.6813941E-02 Eh
   gradient norm :     0.1738215 Eh/α   predicted    -0.5861913E-02 ( -13.97%)
   displ. norm   :     0.3287602 α      lambda       -0.7582391E-02
   maximum displ.:     0.2173226 α      in ANC's #4, #13, #19, ...

........................................................................
.............................. CYCLE   25 ..............................
........................................................................

 iter      E             dE          RMSdq      gap      omega  full diag
   1    -42.6756176 -0.426756E+02  0.173E-01    0.49       0.0  T
   2    -42.6756129  0.469728E-05  0.106E-01    0.52       1.0  T
   3    -42.6751688  0.444155E-03  0.113E-01    0.46       1.0  T
   4    -42.6756071 -0.438320E-03  0.567E-02    0.53       1.0  T
   5    -42.6757093 -0.102209E-03  0.113E-02    0.51       1.8  T
   6    -42.6757124 -0.314819E-05  0.444E-03    0.51       4.5  T
   7    -42.6757128 -0.383712E-06  0.127E-03    0.51      15.8  T
   8    -42.6757129 -0.422311E-07  0.519E-04    0.51      38.5  T
   9    -42.6757129 -0.269826E-08  0.239E-04    0.51      83.6  T
     SCC iter.                  ...        0 min,  0.013 sec
     gradient                   ...        0 min,  0.011 sec
 * total energy  :   -49.8686854 Eh     change       -0.6074853E-02 Eh
   gradient norm :     0.1032852 Eh/α   predicted    -0.4201012E-02 ( -30.85%)
   displ. norm   :     0.3631997 α      lambda       -0.9237134E-02
   maximum displ.:     0.2182861 α      in ANC's #4, #13, #19, ...

........................................................................
.............................. CYCLE   26 ..............................
........................................................................

 iter      E             dE          RMSdq      gap      omega  full diag
   1    -42.6855069 -0.426855E+02  0.233E-01    0.42       0.0  T
   2    -42.6855976 -0.907582E-04  0.143E-01    0.44       1.0  T
   3    -42.6856268 -0.291913E-04  0.103E-01    0.41       1.0  T
   4    -42.6856841 -0.573414E-04  0.648E-02    0.46       1.0  T
   5    -42.6858268 -0.142662E-03  0.252E-02    0.42       1.0  T
   6    -42.6858505 -0.237224E-04  0.476E-03    0.44       4.2  T
   7    -42.6858508 -0.288303E-06  0.147E-03    0.43      13.6  T
   8    -42.6858509 -0.495477E-07  0.636E-04    0.43      31.4  T
   9    -42.6858509 -0.231217E-08  0.343E-04    0.43      58.3  T
     SCC iter.                  ...        0 min,  0.013 sec
     gradient                   ...        0 min,  0.011 sec
 * total energy  :   -49.8733510 Eh     change       -0.4665614E-02 Eh
   gradient norm :     0.2850794 Eh/α   predicted    -0.5227854E-02 (  12.05%)
   displ. norm   :     0.0755719 α      lambda       -0.2641311E-02
   maximum displ.:     0.0490028 α      in ANC's #4, #13, #42, ...

........................................................................
.............................. CYCLE   27 ..............................
........................................................................

 iter      E             dE          RMSdq      gap      omega  full diag
   1    -42.6853334 -0.426853E+02  0.601E-02    0.43       0.0  T
   2    -42.6853292  0.422249E-05  0.385E-02    0.42       1.0  T
   3    -42.6852388  0.903791E-04  0.483E-02    0.45       1.0  T
   4    -42.6853364 -0.975720E-04  0.108E-02    0.42       1.9  T
   5    -42.6853396 -0.317504E-05  0.268E-03    0.43       7.5  T
   6    -42.6853396 -0.495118E-07  0.142E-03    0.43      14.1  T
   7    -42.6853397 -0.491636E-07  0.384E-04    0.43      52.1  T
   8    -42.6853397 -0.303819E-08  0.219E-04    0.43      91.3  T
     SCC iter.                  ...        0 min,  0.012 sec
     gradient                   ...        0 min,  0.011 sec
 * total energy  :   -49.8754522 Eh     change       -0.2101249E-02 Eh
   gradient norm :     0.1485025 Eh/α   predicted    -0.1328224E-02 ( -36.79%)
   displ. norm   :     0.1771710 α      lambda       -0.4769120E-02
   maximum displ.:     0.1072011 α      in ANC's #4, #68, #11, ...

........................................................................
.............................. CYCLE   28 ..............................
........................................................................

 iter      E             dE          RMSdq      gap      omega  full diag
   1    -42.6881647 -0.426882E+02  0.135E-01    0.39       0.0  T
   2    -42.6881864 -0.216959E-04  0.734E-02    0.39       1.0  T
   3    -42.6881753  0.111375E-04  0.612E-02    0.39       1.0  T
   4    -42.6882429 -0.676374E-04  0.125E-02    0.39       1.6  T
   5    -42.6882414  0.154547E-05  0.997E-03    0.40       2.0  T
   6    -42.6882438 -0.245757E-05  0.652E-03    0.39       3.1  T
   7    -42.6882452 -0.135330E-05  0.982E-04    0.39      20.4  T
   8    -42.6882452 -0.111063E-07  0.540E-04    0.39      37.1  T
   9    -42.6882452 -0.261692E-08  0.184E-04    0.39     108.6  T
     SCC iter.                  ...        0 min,  0.013 sec
     gradient                   ...        0 min,  0.011 sec
 * total energy  :   -49.8786012 Eh     change       -0.3148934E-02 Eh
   gradient norm :     0.1080965 Eh/α   predicted    -0.2459445E-02 ( -21.90%)
   displ. norm   :     0.1144318 α      lambda       -0.2014496E-02
   maximum displ.:     0.0455892 α      in ANC's #1, #11, #7, ...

........................................................................
.............................. CYCLE   29 ..............................
........................................................................

 iter      E             dE          RMSdq      gap      omega  full diag
   1    -42.6893205 -0.426893E+02  0.827E-02    0.39       0.0  T
   2    -42.6893232 -0.274299E-05  0.464E-02    0.40       1.0  T
   3    -42.6892448  0.783974E-04  0.529E-02    0.37       1.0  T
   4    -42.6893260 -0.812062E-04  0.212E-02    0.40       1.0  T
   5    -42.6893398 -0.137935E-04  0.666E-03    0.39       3.0  T
   6    -42.6893409 -0.104394E-05  0.305E-03    0.39       6.5  T
   7    -42.6893410 -0.135281E-06  0.596E-04    0.39      33.6  T
   8    -42.6893410 -0.371414E-08  0.368E-04    0.39      54.3  T
     SCC iter.                  ...        0 min,  0.012 sec
     gradient                   ...        0 min,  0.011 sec
 * total energy  :   -49.8800347 Eh     change       -0.1433497E-02 Eh
   gradient norm :     0.0478358 Eh/α   predicted    -0.1020447E-02 ( -28.81%)
   displ. norm   :     0.1148834 α      lambda       -0.1192350E-02
   maximum displ.:     0.0502807 α      in ANC's #4, #1, #68, ...

........................................................................
.............................. CYCLE   30 ..............................
........................................................................

 iter      E             dE          RMSdq      gap      omega  full diag
   1    -42.6897798 -0.426898E+02  0.752E-02    0.40       0.0  T
   2    -42.6897759  0.387243E-05  0.458E-02    0.41       1.0  T
   3    -42.6897309  0.450123E-04  0.475E-02    0.38       1.0  T
   4    -42.6897778 -0.469174E-04  0.250E-02    0.41       1.0  T
   5    -42.6898009 -0.230238E-04  0.520E-03    0.40       3.8  T
   6    -42.6898013 -0.448970E-06  0.228E-03    0.40       8.8  T
   7    -42.6898014 -0.828245E-07  0.620E-04    0.40      32.3  T
   8    -42.6898014 -0.863000E-08  0.314E-04    0.40      63.7  T
     SCC iter.                  ...        0 min,  0.012 sec
     gradient                   ...        0 min,  0.011 sec
 * total energy  :   -49.8807671 Eh     change       -0.7324694E-03 Eh
   gradient norm :     0.0829931 Eh/α   predicted    -0.6040571E-03 ( -17.53%)
   displ. norm   :     0.1523222 α      lambda       -0.9385453E-03
   maximum displ.:     0.1150353 α      in ANC's #4, #13, #1, ...

........................................................................
.............................. CYCLE   31 ..............................
........................................................................

 iter      E             dE          RMSdq      gap      omega  full diag
   1    -42.6887461 -0.426887E+02  0.732E-02    0.43       0.0  T
   2    -42.6887466 -0.434370E-06  0.442E-02    0.44       1.0  T
   3    -42.6886694  0.771132E-04  0.484E-02    0.41       1.0  T
   4    -42.6887462 -0.767109E-04  0.121E-02    0.44       1.7  T
   5    -42.6887524 -0.622484E-05  0.458E-03    0.43       4.4  T
   6    -42.6887531 -0.715923E-06  0.134E-03    0.43      14.9  T
   7    -42.6887531 -0.227944E-07  0.557E-04    0.43      35.9  T
   8    -42.6887531 -0.726367E-08  0.204E-04    0.43      98.2  T
     SCC iter.                  ...        0 min,  0.012 sec
     gradient                   ...        0 min,  0.011 sec
 * total energy  :   -49.8809617 Eh     change       -0.1945722E-03 Eh
   gradient norm :     0.0803903 Eh/α   predicted    -0.4801806E-03 ( 146.79%)
   displ. norm   :     0.0455817 α      lambda       -0.4428478E-03
   maximum displ.:     0.0211787 α      in ANC's #19, #1, #11, ...

........................................................................
.............................. CYCLE   32 ..............................
........................................................................

 iter      E             dE          RMSdq      gap      omega  full diag
   1    -42.6894614 -0.426895E+02  0.320E-02    0.43       0.0  T
   2    -42.6894629 -0.149419E-05  0.211E-02    0.43       1.0  T
   3    -42.6894662 -0.323668E-05  0.147E-02    0.42       1.4  T
   4    -42.6894645  0.170291E-05  0.129E-02    0.43       1.6  T
   5    -42.6894707 -0.628720E-05  0.306E-03    0.43       6.5  T
   6    -42.6894710 -0.264069E-06  0.611E-04    0.43      32.7  T
   7    -42.6894710 -0.243355E-08  0.210E-04    0.43      95.3  T
     SCC iter.                  ...        0 min,  0.010 sec
     gradient                   ...        0 min,  0.011 sec
 * total energy  :   -49.8811932 Eh     change       -0.2315045E-03 Eh
   gradient norm :     0.0161795 Eh/α   predicted    -0.2219376E-03 (  -4.13%)
   displ. norm   :     0.0324981 α      lambda       -0.5618696E-04
   maximum displ.:     0.0164716 α      in ANC's #11, #7, #1, ...

........................................................................
.............................. CYCLE   33 ..............................
........................................................................

 iter      E             dE          RMSdq      gap      omega  full diag
   1    -42.6896792 -0.426897E+02  0.197E-02    0.43       0.0  T
   2    -42.6896797 -0.494351E-06  0.110E-02    0.43       1.8  T
   3    -42.6896763  0.331493E-05  0.901E-03    0.42       2.2  T
   4    -42.6896790 -0.260255E-05  0.564E-03    0.43       3.5  T
   5    -42.6896801 -0.111846E-05  0.133E-03    0.43      15.0  T
   6    -42.6896801 -0.345924E-07  0.580E-04    0.43      34.5  T
   7    -42.6896801 -0.446242E-08  0.191E-04    0.43     104.6  T
     SCC iter.                  ...        0 min,  0.010 sec
     gradient                   ...        0 min,  0.011 sec
 * total energy  :   -49.8812330 Eh     change       -0.3982918E-04 Eh
   gradient norm :     0.0098267 Eh/α   predicted    -0.2815577E-04 ( -29.31%)
   displ. norm   :     0.0504506 α      lambda       -0.3458922E-04
   maximum displ.:     0.0355023 α      in ANC's #1, #11, #4, ...

........................................................................
.............................. CYCLE   34 ..............................
........................................................................

 iter      E             dE          RMSdq      gap      omega  full diag
   1    -42.6897592 -0.426898E+02  0.222E-02    0.43       0.0  T
   2    -42.6897585  0.712313E-06  0.136E-02    0.43       1.5  T
   3    -42.6897475  0.109920E-04  0.177E-02    0.42       1.1  T
   4    -42.6897602 -0.127186E-04  0.420E-03    0.43       4.8  T
   5    -42.6897607 -0.455207E-06  0.144E-03    0.43      13.9  T
   6    -42.6897607 -0.394157E-07  0.564E-04    0.43      35.4  T
   7    -42.6897607 -0.327866E-08  0.155E-04    0.43     129.0  T
     SCC iter.                  ...        0 min,  0.010 sec
     gradient                   ...        0 min,  0.011 sec
 * total energy  :   -49.8812554 Eh     change       -0.2234177E-04 Eh
   gradient norm :     0.0038338 Eh/α   predicted    -0.1738608E-04 ( -22.18%)
   displ. norm   :     0.0404613 α      lambda       -0.1311268E-04
   maximum displ.:     0.0337721 α      in ANC's #1, #4, #2, ...

   *** GEOMETRY OPTIMIZATION CONVERGED AFTER 34 ITERATIONS ***

------------------------------------------------------------------------
 total energy gain   :        -7.0114678 Eh    -4399.7625 kcal/mol
 total RMSD          :         0.8755333 a0        0.4633 Å
 total power (kW/mol):      -541.4295934 (step)********** (real)
------------------------------------------------------------------------

 ANCopt (total)                0 d,  0 h,  0 min,  1.020 sec
 optimizer setup                ...        0 min,  0.000 sec (  0.047%)
 model hessian                  ...        0 min,  0.013 sec (  1.309%)
 ANC generation                 ...        0 min,  0.002 sec (  0.185%)
 coordinate transformation      ...        0 min,  0.000 sec (  0.030%)
 single point calculation       ...        0 min,  0.995 sec ( 97.494%)
 optimization log               ...        0 min,  0.003 sec (  0.278%)
 hessian update                 ...        0 min,  0.000 sec (  0.039%)
 rational function              ...        0 min,  0.005 sec (  0.477%)

================
 final structure:
================
25
 xtb: 6.6.1 (8d0f1dd)
C            3.07984472691417        1.13899847936389       -0.01344442525773
N            2.27760788842468       -0.05947462882015       -0.01145814687259
C            2.99193651024858       -1.25466579940341        0.06144123469527
N            2.55302629694404       -2.40672214302590        0.10612709501291
C            0.26666696625583       -1.35002963377662       -0.07096253077381
C            0.90016548719499       -0.08758696703632       -0.02669156021642
C            0.11139270798750        1.15256864560430       -0.00687618248895
O            0.57151827920482        2.28067264134137       -0.01035287638565
N           -1.26073845009191        0.97329780901569        0.00620451637090
C           -2.11151344925387        2.14831393977254        0.01197640472260
C           -1.92551775446719       -0.23932632449186        0.02763764651247
O           -3.12856838471386       -0.30659444331047        0.07433857991922
N           -1.11634910743240       -1.36098471275258       -0.02016885612954
C           -1.75589866496098       -2.65930805186416       -0.02049079188410
H            3.58764811029933        1.25571283663623        0.94894425411984
H            3.83556809409064        1.08079096764695       -0.80009065968808
H            2.46044706134710        2.01976719976449       -0.18194050586243
H            4.07733977765452       -1.08412391960467        0.08613515773186
H           -1.48318180100791        3.03764084809127        0.02513383987894
H           -2.74676494389486        2.14814537363752       -0.87655402872643
H           -2.76246973526983        2.12936487812772        0.88845194651117
H           -1.46257941609432       -3.22435172116225        0.86637947379077
H           -1.46353075627902       -3.22540123103353       -0.90631768727719
H           -2.83639501484799       -2.51705808722071       -0.01720181957733
H            0.50077708584795       -1.77140741389939       -0.10904846022570

 Bond Distances (Angstroems)
 ---------------------------
C1-N2=1.4422         C1-H15=1.0944        C1-H16=1.0924        C1-H17=1.0899        N2-C1=1.4422         N2-C3=1.3943         
N2-C6=1.3778         C3-N2=1.3943         C3-N4=1.2336         C3-H18=1.0990        N4-C3=1.2336         C5-C6=1.4132         
C5-N13=1.3840        C5-H25=0.4835        C6-N2=1.3778         C6-C5=1.4132         C6-C7=1.4699         C7-C6=1.4699         
C7-O8=1.2183         C7-N9=1.3839         O8-C7=1.2183         N9-C7=1.3839         N9-C10=1.4507        N9-C11=1.3831        
C10-N9=1.4507        C10-H19=1.0890       C10-H20=1.0923       C10-H21=1.0919       C11-N9=1.3831        C11-O12=1.2058       
C11-N13=1.3839       O12-C11=1.2058       N13-C5=1.3840        N13-C11=1.3839       N13-C14=1.4473       C14-N13=1.4473       
C14-H22=1.0917       C14-H23=1.0912       C14-H24=1.0898       H15-C1=1.0944        H16-C1=1.0924        H17-C1=1.0899        
H18-C3=1.0990        H19-C10=1.0890       H20-C10=1.0923       H21-C10=1.0919       H22-C14=1.0917       H23-C14=1.0912       
H24-C14=1.0898       H25-C5=0.4835        
 C  H  Rav=1.0368 sigma=0.1750  Rmin=0.4835  Rmax=1.0990    11
 C  C  Rav=1.4415 sigma=0.0284  Rmin=1.4132  Rmax=1.4699     2
 N  C  Rav=1.3881 sigma=0.0587  Rmin=1.2336  Rmax=1.4507    10
 O  C  Rav=1.2121 sigma=0.0063  Rmin=1.2058  Rmax=1.2183     2

 selected bond angles (degree)
 --------------------
H15-C1-N2=110.21               H16-C1-N2=109.97               H16-C1-H15=108.54              H17-C1-N2=110.83               
H17-C1-H15=108.27              H17-C1-H16=108.96              C3-N2-C1=115.30                C6-N2-C1=124.96                
C6-N2-C3=119.69                N4-C3-N2=128.33                H18-C3-N2=111.97               H18-C3-N4=119.70               
N13-C5-C6=116.99               H25-C5-C6=124.33               H25-C5-N13=118.67              C5-C6-N2=117.82                
C7-C6-N2=121.27                C7-C6-C5=120.90                O8-C7-C6=125.35                N9-C7-C6=115.02                
N9-C7-O8=119.63                C10-N9-C7=118.46               C11-N9-C7=126.18               C11-N9-C10=115.35              
H19-C10-N9=108.85              H20-C10-N9=109.74              H20-C10-H19=110.21             H21-C10-N9=109.80              
H21-C10-H19=110.39             H21-C10-H20=107.83             

 selected dihedral angles (degree)
 ---------------------------------
C3-N2-C1-H15=293.62           C3-N2-C1-H16= 53.25           C3-N2-C1-H17=173.79           C6-N2-C1-H15=111.17           
C6-N2-C1-H16=230.80           C6-N2-C1-H17=351.34           N4-C3-N2-C1=178.39            N4-C3-N2-C6=  0.70            
H18-C3-N2-C1=358.85           H18-C3-N2-C6=181.16           C5-C6-N2-C1=177.77            C5-C6-N2-C3=355.22            
C7-C6-N2-C1=358.17            C7-C6-N2-C3=175.62            N2-C6-C5-N13=176.95           N2-C6-C5-H25=355.99           
C7-C6-C5-N13=356.55           C7-C6-C5-H25=175.58           O8-C7-C6-N2=  1.96            O8-C7-C6-C5=182.38            
N9-C7-C6-N2=181.45            N9-C7-C6-C5=  1.87            C10-N9-C7-C6=180.63           C10-N9-C7-O8=  0.15           
C11-N9-C7-C6=  1.30           C11-N9-C7-O8=180.82           H19-C10-N9-C7=358.85          H19-C10-N9-C11=178.26         
H20-C10-N9-C7=119.55          H20-C10-N9-C11=298.95         H21-C10-N9-C7=237.90          H21-C10-N9-C11= 57.31         
           -------------------------------------------------
          |                Final Singlepoint                |
           -------------------------------------------------

          ...................................................
          :                      SETUP                      :
          :.................................................:
          :  # basis functions                  67          :
          :  # atomic orbitals                  67          :
          :  # shells                           39          :
          :  # electrons                        74          :
          :  max. iterations                   250          :
          :  Hamiltonian                  GFN2-xTB          :
          :  restarted?                      false          :
          :  GBSA solvation                  false          :
          :  PC potential                    false          :
          :  electronic temp.         7500.0000000     K    :
          :  accuracy                    1.0000000          :
          :  -> integral cutoff          0.2500000E+02      :
          :  -> integral neglect         0.1000000E-07      :
          :  -> SCF convergence          0.1000000E-05 Eh   :
          :  -> wf. convergence          0.1000000E-03 e    :
          :  Broyden damping             0.4000000          :
          ...................................................

 iter      E             dE          RMSdq      gap      omega  full diag
   1    -42.6897607 -0.426898E+02  0.704E-05    0.43       0.0  T
   2    -42.6897607  0.159318E-09  0.769E-05    0.43     260.1  T
   3    -42.6897607 -0.201673E-09  0.449E-05    0.43     445.5  T

   *** convergence criteria satisfied after 3 iterations ***

         #    Occupation            Energy/Eh            Energy/eV
      -------------------------------------------------------------
         1        2.0000           -0.9040463             -24.6004
       ...           ...                  ...                  ...
        31        1.9736           -0.6296474             -17.1336
        32        1.9297           -0.6058939             -16.4872
        33        1.9247           -0.6041912             -16.4409
        34        1.8931           -0.5954840             -16.2039
        35        1.8831           -0.5932246             -16.1425
        36        1.8331           -0.5841312             -15.8950
        37        1.4211           -0.5485439             -14.9266 (HOMO)
        38        1.1180           -0.5328453             -14.4995 (LUMO)
        39        0.0898           -0.4545928             -12.3701
        40        0.0139           -0.4093805             -11.1398
        41        0.0035           -0.3763655             -10.2414
        42        0.0003           -0.3192025              -8.6859
       ...           ...                  ...                  ...
        67                          7.1226913             193.8183
      -------------------------------------------------------------
                  HL-Gap            0.0156986 Eh            0.4272 eV
             Fermi-level           -0.5272141 Eh          -14.3462 eV

 SCC (total)                   0 d,  0 h,  0 min,  0.021 sec
 SCC setup                      ...        0 min,  0.000 sec (  0.868%)
 Dispersion                     ...        0 min,  0.000 sec (  0.890%)
 classical contributions        ...        0 min,  0.000 sec (  0.322%)
 integral evaluation            ...        0 min,  0.004 sec ( 20.895%)
 iterations                     ...        0 min,  0.005 sec ( 22.535%)
 molecular gradient             ...        0 min,  0.011 sec ( 53.875%)
 printout                       ...        0 min,  0.000 sec (  0.557%)

         :::::::::::::::::::::::::::::::::::::::::::::::::::::
         ::                     SUMMARY                     ::
         :::::::::::::::::::::::::::::::::::::::::::::::::::::
         :: total energy             -49.881255371292 Eh    ::
         :: gradient norm              0.003833538373 Eh/a0 ::
         :: HOMO-LUMO gap              0.427179824966 eV    ::
         ::.................................................::
         :: SCC energy               -42.689760730528 Eh    ::
         :: -> isotropic ES            0.135840245649 Eh    ::
         :: -> anisotropic ES         -0.005414158061 Eh    ::
         :: -> anisotropic XC          0.016919988783 Eh    ::
         :: -> dispersion             -0.021899503265 Eh    ::
         :: repulsion energy           1.685951951212 Eh    ::
         :: add. restraining          -8.877547283617 Eh    ::
         :: total charge               1.000000000000 e     ::
         :::::::::::::::::::::::::::::::::::::::::::::::::::::

           -------------------------------------------------
          |                Property Printout                |
           -------------------------------------------------

    * Orbital Energies and Occupations

         #    Occupation            Energy/Eh            Energy/eV
      -------------------------------------------------------------
         1        2.0000           -0.9040463             -24.6004
       ...           ...                  ...                  ...
        25        1.9969           -0.6805326             -18.5182
        26        1.9918           -0.6578119             -17.9000
        27        1.9879           -0.6484648             -17.6456
        28        1.9877           -0.6479833             -17.6325
        29        1.9812           -0.6378529             -17.3569
        30        1.9809           -0.6374104             -17.3448
        31        1.9736           -0.6296474             -17.1336
        32        1.9297           -0.6058939             -16.4872
        33        1.9247           -0.6041912             -16.4409
        34        1.8931           -0.5954840             -16.2039
        35        1.8831           -0.5932246             -16.1425
        36        1.8331           -0.5841312             -15.8950
        37        1.4211           -0.5485439             -14.9266 (HOMO)
        38        1.1180           -0.5328453             -14.4995 (LUMO)
        39        0.0898           -0.4545928             -12.3701
        40        0.0139           -0.4093805             -11.1398
        41        0.0035           -0.3763655             -10.2414
        42        0.0003           -0.3192025              -8.6859
        43        0.0000           -0.2171746              -5.9096
        44        0.0000           -0.1667306              -4.5370
        45        0.0000           -0.1636307              -4.4526
        46                         -0.0724618              -1.9718
        47                         -0.0583374              -1.5874
        48                         -0.0440356              -1.1983
       ...                                ...                  ...
        67                          7.1226913             193.8183
      -------------------------------------------------------------
                  HL-Gap            0.0156986 Eh            0.4272 eV
             Fermi-level           -0.5272141 Eh          -14.3462 eV

     #   Z          covCN         q      C6AA      α(0)
     1   6 C        3.702    -0.089    22.358     6.761
     2   7 N        2.739     0.032    20.686     6.755
     3   6 C        2.778     0.122    25.296     8.238
     4   7 N        0.915    -0.208    25.498     7.301
     5   6 C        2.853    -0.027    28.666     8.775
     6   6 C        2.914     0.023    27.485     8.597
     7   6 C        2.765     0.264    22.541     7.775
     8   8 O        0.859    -0.335    20.420     6.059
     9   7 N        2.743    -0.052    22.246     7.005
    10   6 C        3.709    -0.064    21.882     6.686
    11   6 C        2.718     0.314    21.668     7.620
    12   8 O        0.859    -0.325    20.246     6.033
    13   7 N        2.752    -0.014    21.528     6.891
    14   6 C        3.707    -0.079    22.164     6.729
    15   1 H        0.924     0.114     1.661     2.015
    16   1 H        0.924     0.112     1.684     2.029
    17   1 H        0.925     0.148     1.402     1.852
    18   1 H        0.923     0.129     1.541     1.941
    19   1 H        0.925     0.131     1.524     1.931
    20   1 H        0.924     0.123     1.590     1.972
    21   1 H        0.924     0.125     1.577     1.964
    22   1 H        0.924     0.119     1.620     1.990
    23   1 H        0.924     0.118     1.630     1.996
    24   1 H        0.925     0.134     1.503     1.917
    25   1 H        0.950     0.184     1.183     1.700

 Mol. C6AA /au·bohr⁶  :       6490.778060
 Mol. C8AA /au·bohr⁸  :     149474.429403
 Mol. α(0) /au        :        122.533635


Wiberg/Mayer (AO) data.
largest (>0.10) Wiberg bond orders for each atom

 ---------------------------------------------------------------------------
     #   Z sym  total        # sym  WBO       # sym  WBO       # sym  WBO
 ---------------------------------------------------------------------------
     1   6 C    3.843 --     2 N    1.000    16 H    0.943    15 H    0.935
                            17 H    0.918
     2   7 N    3.384 --     6 C    1.184     3 C    1.082     1 C    1.000
     3   6 C    3.893 --     4 N    1.911     2 N    1.082    18 H    0.853
     4   7 N    2.039 --     3 C    1.911
     5   6 C    3.729 --     6 C    1.387    13 N    1.219    25 H    0.934
     6   6 C    3.820 --     5 C    1.387     2 N    1.184     7 C    1.051
     7   6 C    3.902 --     8 O    1.632     9 N    1.126     6 C    1.051
     8   8 O    1.922 --     7 C    1.632     9 N    0.119
     9   7 N    3.496 --     7 C    1.126    11 C    1.099    10 C    0.979
                             8 O    0.119    12 O    0.111
    10   6 C    3.843 --     9 N    0.979    19 H    0.948    21 H    0.936
                            20 H    0.936
    11   6 C    3.936 --    12 O    1.660     9 N    1.099    13 N    1.091
    12   8 O    1.938 --    11 C    1.660     9 N    0.111
    13   7 N    3.492 --     5 C    1.219    11 C    1.091    14 C    0.984
    14   6 C    3.865 --    13 N    0.984    24 H    0.951    23 H    0.944
                            22 H    0.942
    15   1 H    0.951 --     1 C    0.935
    16   1 H    0.958 --     1 C    0.943
    17   1 H    0.957 --     1 C    0.918
    18   1 H    0.873 --     3 C    0.853
    19   1 H    0.967 --    10 C    0.948
    20   1 H    0.954 --    10 C    0.936
    21   1 H    0.955 --    10 C    0.936
    22   1 H    0.958 --    14 C    0.942
    23   1 H    0.960 --    14 C    0.944
    24   1 H    0.970 --    14 C    0.951
    25   1 H    0.959 --     5 C    0.934
 ---------------------------------------------------------------------------

Topologies differ in total number of bonds
Writing topology from bond orders to xtbtopo.mol

molecular dipole:
                 x           y           z       tot (Debye)
 q only:        0.899      -0.362      -0.079
   full:        1.207      -0.210      -0.087       3.121
molecular quadrupole (traceless):
                xx          xy          yy          xz          yz          zz
 q only:       14.659       4.882       1.342       0.222       0.469     -16.002
  q+dip:       15.997       5.497      -4.318       0.394       0.640     -11.679
   full:       15.076       5.240      -5.093       0.424       0.657      -9.984

           -------------------------------------------------
          |                Geometry Summary                 |
           -------------------------------------------------

      molecular mass/u    :      195.1988581
   center of mass at/Å    :        0.0710909      -0.1145823       0.0083407
  moments of inertia/u·Å² :        0.4743003E+03   0.8217563E+03   0.1285810E+04
rotational constants/cm⁻¹ :        0.3554211E-01   0.2051415E-01   0.1311052E-01

 * 24 selected distances

     #   Z          #   Z                                           value/Å
     1   6 C        2   7 N                                       1.4421949
     2   7 N        3   6 C                                       1.3942962
     3   6 C        4   7 N                                       1.2336422
     2   7 N        6   6 C                                       1.3778136
     5   6 C        6   6 C                                       1.4131674
     7   6 C        8   8 O                                       1.2183376
     7   6 C        9   7 N                                       1.3838545
     9   7 N       10   6 C                                       1.4506946 (max)
     9   7 N       11   6 C                                       1.3830577
    11   6 C       12   8 O                                       1.2058346
     5   6 C       13   7 N                                       1.3839920
    11   6 C       13   7 N                                       1.3838921
    13   7 N       14   6 C                                       1.4472967
     1   6 C       15   1 H                                       1.0943851
     1   6 C       16   1 H                                       1.0923912
     1   6 C       17   1 H                                       1.0898615
     3   6 C       18   1 H                                       1.0989972
    10   6 C       19   1 H                                       1.0889795
    10   6 C       20   1 H                                       1.0922596
    10   6 C       21   1 H                                       1.0919307
    14   6 C       22   1 H                                       1.0917187
    14   6 C       23   1 H                                       1.0911599
    14   6 C       24   1 H                                       1.0898250
     5   6 C       25   1 H                                       0.4835467 (min)

 * 4 distinct bonds (by element types)

   Z      Z             #   av. dist./Å        max./Å        min./Å
   1 H    6 C          11     1.0368232     1.0989972     0.4835467
   6 C    6 C           1     1.4131674     1.4131674     1.4131674
   6 C    7 N          10     1.3880734     1.4506946     1.2336422
   6 C    8 O           2     1.2120861     1.2183376     1.2058346


optimized geometry written to: xtbopt.xyz


           -------------------------------------------------
          | TOTAL ENERGY              -49.881255371292 Eh   |
          | GRADIENT NORM               0.003833538373 Eh/α |
          | HOMO-LUMO GAP               0.427179824966 eV   |
           -------------------------------------------------

------------------------------------------------------------------------
 * finished run on 2024/06/05 at 19:58:58.246     
------------------------------------------------------------------------
 total:
 * wall-time:     0 d,  0 h,  0 min,  1.112 sec
 *  cpu-time:     0 d,  0 h,  0 min,  1.090 sec
 * ratio c/w:     0.980 speedup
 SCF:
 * wall-time:     0 d,  0 h,  0 min,  0.035 sec
 *  cpu-time:     0 d,  0 h,  0 min,  0.035 sec
 * ratio c/w:     1.000 speedup
 ANC optimizer:
 * wall-time:     0 d,  0 h,  0 min,  1.045 sec
 *  cpu-time:     0 d,  0 h,  0 min,  1.042 sec
 * ratio c/w:     0.997 speedup

