72
 energy: 0.000000000000 xtb: 6.6.1 (8d0f1dd)
N           -1.47310934822924        2.74401318561852        2.22063942287560
C           -1.55658894218425        2.16490305624665        1.13274284460745
C           -2.74549225258129        2.05621251263064        0.23826250649470
C           -3.31377583855761        0.64333417511334        0.32332515650284
C           -4.30230195924506        0.24487112428158       -0.58026167086503
C           -4.85238808050968       -1.02286499940159       -0.53363593669082
O           -5.81420026757557       -1.48606047972767       -1.36157895357670
C           -6.39655692584623       -0.60827005826649       -2.29568495601309
C           -4.39972542350640       -1.94646120241305        0.44396933240983
O           -4.98748357557592       -3.16146026488900        0.41085995818162
C           -4.66362171172287       -4.10093865802695        1.40909140816864
C           -3.42072545213514       -1.54561399150247        1.33436558640148
C           -2.88302826362110       -0.26315802838497        1.27400162590187
C           -2.19303818453636        2.30467021687947       -1.18742988123374
C           -1.26651549989641        1.17243380322503       -1.65249445018642
C            0.01082525039567        1.09745464658138       -0.89354811789923
N            0.61779399208289       -0.02034948241203       -0.57705527866251
C            2.00145228921113       -0.02376006609561       -0.15611401051620
C            2.92554961797610       -0.53865287672537       -1.27700100652360
C            4.35756883501756       -0.43050761225877       -0.83075552032494
C            5.07346182539911        0.73206415878124       -1.03980975472950
C            6.38628045899965        0.84224449235903       -0.60344828301384
C            7.00047329721665       -0.20824758267940        0.05722314949100
O            8.26703733840855       -0.21011315050632        0.52410948507466
C            9.06912311989339        0.92943609656965        0.31863060963839
C            6.27040022445068       -1.40439766990411        0.28033468609137
O            6.94830004375713       -2.38012947787858        0.92752007684741
C            6.31537376337817       -3.61583233633369        1.15217722400438
C            4.96302840674480       -1.49347485723979       -0.16064431849589
C           -0.05511211878686       -1.29906259857679       -0.62085692079872
C           -3.86758072907722        3.07992629005348        0.58498065642721
C           -4.49286201346546        2.77383518785172        1.94313307512182
C           -3.39165211343248        4.52917708609625        0.54797528556046
H           -4.66030069703099        0.94509076131725       -1.31640581036773
H           -6.85037992114187        0.25803164586058       -1.80468862056629
H           -7.17287509152171       -1.18600121846629       -2.79318183475679
H           -5.66836870040540       -0.26952968819383       -3.04040283452035
H           -4.88416765986127       -3.71589494995018        2.40913564538747
H           -5.29223619720187       -4.96637504833431        1.20969248126828
H           -3.61139846644506       -4.39919876145526        1.35529370415983
H           -3.07077825100221       -2.21868786295666        2.10002682176568
H           -2.14562774333496        0.02067850888151        2.01001363031684
H           -3.02188903413801        2.38238034416975       -1.88813562572432
H           -1.65198546223364        3.25146730843841       -1.20556295755141
H           -1.81103391047759        0.23006526775522       -1.62116316669324
H           -0.99335697743926        1.37490224954061       -2.69443281971844
H           -0.67628070635666        1.65183902374723        0.61785732877701
H            0.63525847086258        1.98466388206871       -0.92314029755375
H            2.11132572081740       -0.65949698961381        0.72532619960637
H            2.30680494458141        0.98978260887088        0.11078973822125
H            2.76694224489122        0.06750735773687       -2.17075272340394
H            2.67954606229959       -1.57455642411728       -1.51167757545099
H            4.62170041431221        1.56295626549351       -1.56123593485311
H            6.92357738865082        1.75715832247601       -0.79119604059515
H            8.65159193263071        1.81001840117181        0.81701562739969
H            9.20136256512460        1.14042868409438       -0.74698998879646
H           10.03428931104811        0.69003246578081        0.76064945022918
H            7.05567240429544       -4.23621211097668        1.65347581279537
H            5.43848051513375       -3.50813590722545        1.79970582482858
H            6.02060097762632       -4.09420535105165        0.21253284608183
H            4.40102799328555       -2.40127288651695       -0.00490198294521
H           -0.22071301762289       -1.61775598610935       -1.65116024301020
H           -1.01972267469312       -1.24102728946113       -0.10935207845464
H            0.55899959333766       -2.04486104898380       -0.12333731565713
H           -4.63991918782192        2.95501120214274       -0.18098089750912
H           -3.76095251366987        2.90314731895452        2.73380846416528
H           -4.87457659255110        1.75695657819473        1.97884621460846
H           -5.31925601899505        3.45579242388173        2.12325583951056
H           -2.60025614255587        4.69225089676674        1.27368930043085
H           -3.03987434616939        4.81897697030947       -0.43870979129779
H           -4.22191779840287        5.18069696155015        0.80616701440619
H           -0.59832439338922        2.77744720721660        2.72959009765665
72
 energy: -4.221548365880 xtb: 6.6.1 (8d0f1dd)
N           -1.55021277134590        2.74312899901228        2.26169602610456
C           -1.58440841058198        2.17344110247312        1.15138630990062
C           -2.75454146968326        2.06367708733481        0.23175623138229
C           -3.29442311494149        0.63742064921915        0.31999566467447
C           -4.28996524899903        0.24067197324360       -0.57322159488766
C           -4.85377474762459       -1.01892089291518       -0.51635296927873
O           -5.83699269545955       -1.47218023283303       -1.33435230584486
C           -6.40952930336493       -0.58505915333536       -2.26334440821820
C           -4.40630029952458       -1.94347993499831        0.45764592719604
O           -5.01625486559278       -3.15532128013989        0.43452164744505
C           -4.69010543701905       -4.09482157503072        1.42918884588908
C           -3.41382709601979       -1.55370352285458        1.33576160284383
C           -2.86294658277450       -0.27663456204070        1.26635626825716
C           -2.17967056845406        2.28697511840245       -1.19563821506543
C           -1.24875269336393        1.17094521166431       -1.70190370062512
C            0.02527313500955        1.10976545880191       -0.93158185150785
N            0.64579588416802       -0.04848272630363       -0.59342988656865
C            2.01844269491867       -0.04025843815199       -0.17712441691623
C            2.95366847233363       -0.55185045605987       -1.29032502364266
C            4.37868169088326       -0.44131217970211       -0.84288061332594
C            5.09179204338028        0.72548102310694       -1.04235886734416
C            6.40009200533938        0.83940375647019       -0.59649628250056
C            7.01291192793376       -0.21077701069559        0.06535069976120
O            8.28515569935169       -0.21135079749744        0.53922926923130
C            9.07972251256170        0.93107923953922        0.33570454865944
C            6.28608845515075       -1.40681346922280        0.28361683479505
O            6.96710828749468       -2.38550591647511        0.93490021579765
C            6.33311098392267       -3.62040381968925        1.15390904149691
C            4.98339335172992       -1.50097827947637       -0.16561847086510
C           -0.03534398471624       -1.31500909824252       -0.64307980452989
C           -3.90651816898426        3.09331461485008        0.57164376862061
C           -4.50667733925718        2.76215778244208        1.93609220100066
C           -3.45539144635508        4.55717462283068        0.56329821300626
H           -4.64293282050160        0.94191948051870       -1.31058184466213
H           -6.84239835952835        0.29160733636923       -1.77102457731816
H           -7.20097737613459       -1.15009304205463       -2.75182134437315
H           -5.68303645120151       -0.25989374099590       -3.01559006159142
H           -4.89146760836497       -3.70686707839248        2.43259382332914
H           -5.33244525719527       -4.95249286401829        1.23902968655549
H           -3.64255269108662       -4.40645874026257        1.36258286838114
H           -3.06294910105441       -2.23309043078949        2.09723819967608
H           -2.10685356405374       -0.00677463047969        1.98724775451735
H           -3.01022482560600        2.37171011090653       -1.89481845924984
H           -1.63178167790496        3.23037394792497       -1.21458899862638
H           -1.78396730959514        0.22247086361746       -1.66383414294780
H           -1.00556425639451        1.37878095179608       -2.75312124005629
H           -0.68190499218768        1.75610596109421        0.62805597408004
H            0.66420598499880        1.98001018438362       -0.99209243818512
H            2.12720371912134       -0.66665965676345        0.71206752399261
H            2.31169679645249        0.97924611429788        0.08538589644347
H            2.79099344513252        0.05268110509722       -2.18410370108709
H            2.70339399998226       -1.58764180034165       -1.52070868213914
H            4.63789644249177        1.55609824533641       -1.56209443855406
H            6.93636898077436        1.75645871532417       -0.78014242396566
H            8.65769309722284        1.81042274258268        0.83351767124738
H            9.21288264637598        1.14477153394311       -0.72984850010798
H           10.04508284519322        0.69459153437998        0.77942427630977
H            7.07160997837759       -4.24064331697097        1.65890336827521
H            5.45176754546176       -3.51476476477951        1.79587199385176
H            6.04286665643318       -4.09867338447194        0.21240676584482
H            4.42100514943737       -2.40906211633677       -0.01131104686179
H           -0.19807132090545       -1.63864027081092       -1.67548936862167
H           -1.00457085435278       -1.24804492083156       -0.14041710082405
H            0.57142532663940       -2.05961143084871       -0.13585453817192
H           -4.68686483460256        2.99143655165205       -0.19388552449908
H           -3.71020058872761        2.79467883934741        2.69767425948507
H           -4.94043671698027        1.76545658939615        1.93680638627343
H           -5.29811862765163        3.46179906406053        2.18017453704225
H           -2.69899000238810        4.73078873792140        1.32023240584012
H           -3.05703553930877        4.83931430219272       -0.40515051029441
H           -4.28815133894549        5.22485361370857        0.77527948550305
H           -0.67829860265589        2.78135414164283        2.77012769300710
72
 energy: 0.408638562987 xtb: 6.6.1 (8d0f1dd)
N           -1.65806766347208        2.72490294514194        2.31756586853274
C           -1.60736041725479        2.20690700499806        1.15934205642307
C           -2.76059108916842        2.07173142292445        0.21943052239667
C           -3.26853198253448        0.62959872893771        0.31771465125822
C           -4.27413686128435        0.23499708603511       -0.56198011043811
C           -4.85505730197516       -1.01375889577190       -0.49226648628392
O           -5.86899265129583       -1.45263321713076       -1.29692505904889
C           -6.42716924310274       -0.55304059239998       -2.21856826830749
C           -4.41462226850761       -1.93899235497492        0.47611020944789
O           -5.05690022978287       -3.14649077557848        0.46822105597561
C           -4.72657710178847       -4.08584225897491        1.45675095155686
C           -3.40267767945620       -1.56571666367783        1.33680195621501
C           -2.83400024998305       -0.29663758211902        1.25546989756165
C           -2.16405797369355        2.26748085461840       -1.21162351084267
C           -1.22724147187562        1.16503449758743       -1.75914041946527
C            0.04575203374864        1.12533940485149       -0.98643154212701
N            0.68144091891892       -0.08504202033940       -0.61461799814843
C            2.03826845162236       -0.05820962562190       -0.20618355636524
C            2.99104565697438       -0.56896356500480       -1.30754719375068
C            4.40586303327544       -0.45522161455129       -0.85634462283149
C            5.11642171311894        0.71620087549917       -1.04451243858678
C            6.41941649171987        0.83516543775580       -0.58724343632759
C            7.02912102161322       -0.21445265491542        0.07573376436037
O            8.30960876628610       -0.21273577153457        0.55979587039284
C            9.09356227014678        0.93308600995870        0.35912422987487
C            6.30752039692779       -1.40955602627982        0.28734274395506
O            6.99289714446161       -2.39300540402172        0.94462117224525
C            6.35741302694630       -3.62631532305041        1.15608340986168
C            5.01059289556891       -1.51081480452854       -0.17217921032342
C           -0.01006259805963       -1.33329994274348       -0.67508007605017
C           -3.96069183700938        3.11269112876793        0.55584893292777
C           -4.52752232446143        2.74323098586512        1.92649058960381
C           -3.53983609420853        4.59513168836672        0.58214737208182
H           -4.61889219109070        0.93813721335471       -1.30131254329227
H           -6.83130619614292        0.33782681030746       -1.72485005721902
H           -7.23966876291684       -1.10011485934766       -2.69436760385633
H           -5.70358337595259       -0.24689950644986       -2.98177605585272
H           -4.90132106419085       -3.69505997434499        2.46516042651474
H           -5.38790593052895       -4.93274866950697        1.27972500764378
H           -3.68576137870480       -4.41681659019205        1.37233072390293
H           -3.05219951337369       -2.25342838926422        2.09342534674992
H           -2.05357219507611       -0.04749479354420        1.95746030661018
H           -2.99774549456504        2.35990591488821       -1.90661011560909
H           -1.60444061675033        3.20546055843282       -1.22952305821783
H           -1.74789720698081        0.20682818457687       -1.72020756759874
H           -1.02217094868692        1.38514447227090       -2.82089827561629
H           -0.68960741503721        1.89924865586062        0.64987095603237
H            0.70695491488317        1.96805807038193       -1.08126616409488
H            2.14911234120629       -0.67389502310475        0.69318472538863
H            2.31942382967835        0.96779411956428        0.05165839554785
H            2.82433944268191        0.03213644886287       -2.20271397157321
H            2.73537143686933       -1.60501580331025       -1.53299273949910
H            4.65988993414509        1.54585126236090       -1.56329718328122
H            6.95391655509866        1.75539597970640       -0.76487412261927
H            8.66633866270904        1.81113410241116        0.85635243523364
H            9.22898596494510        1.15086163374124       -0.70622137393954
H           10.05936170502766        0.70080621845110        0.80514593229599
H            7.09343069921855       -4.24634564956814        1.66622438255920
H            5.47014866488514       -3.52405940476856        1.79074663845517
H            6.07388012883947       -4.10518830174445        0.21218721875158
H            4.44786458854021       -2.41952358526202       -0.02050327472657
H           -0.16690344007749       -1.66693522913014       -1.70974453357518
H           -0.98576454545514       -1.25830201123551       -0.18493201507002
H            0.58708453612334       -2.07670474975526       -0.15396933506866
H           -4.74779801560879        3.03766175698206       -0.21170642071869
H           -3.64576907256114        2.64199318395673        2.64608412536293
H           -5.03717965529277        1.77748456438418        1.88010061963911
H           -5.26312672738046        3.46822514413563        2.25934313756173
H           -2.83816053181561        4.78650833368905        1.38724205526252
H           -3.07449367721700        4.86671917927747       -0.35906254933808
H           -4.37850769181617        5.28197785022513        0.72627949835920
H           -0.78525574315997        2.78189567668869        2.81684223557975
72
 energy: 14.499354396004 xtb: 6.6.1 (8d0f1dd)
N           -1.76191796834237        2.69840636630984        2.36812402147182
C           -1.63035644258189        2.24016856722065        1.16816474429151
C           -2.76371150693515        2.07639034924436        0.20655213884217
C           -3.24413726941086        0.62138037757240        0.31704362206092
C           -4.25921511623504        0.22944989403948       -0.55077570558138
C           -4.85725499671067       -1.00832325671738       -0.46767088180244
O           -5.90064018953375       -1.43182655038809       -1.25909451685377
C           -6.44501825331688       -0.52028989104902       -2.17297448091945
C           -4.42354114446080       -1.93406657376411        0.49542166592968
O           -5.09714813041977       -3.13635453842492        0.50303987187761
C           -4.76351058290434       -4.07638729648260        1.48466814313086
C           -3.39063431540654       -1.57812050966386        1.33766903639936
C           -2.80415854104962       -0.31728527724157        1.24440926328652
C           -2.14959506789817        2.24895886692112       -1.22866966634503
C           -1.20723213873363        1.15711222493169       -1.81268261054687
C            0.06625169321749        1.13865004980354       -1.04683891728146
N            0.71572840868247       -0.12043636447683       -0.63919262295525
C            2.05763616796993       -0.07410213534329       -0.23527284436816
C            3.02790853053748       -0.58599976396199       -1.32517935817701
C            4.43298783124946       -0.46877359340307       -0.86793561743107
C            5.14140916482132        0.70688141705821       -1.04600273137498
C            6.43936209597509        0.83105541329964       -0.57796762031272
C            7.04557619725675       -0.21831235154855        0.08618004216095
O            8.33353645587049       -0.21386054464904        0.58025892430090
C            9.10737498947367        0.93492462961462        0.38292058060501
C            6.32949212962066       -1.41270755952196        0.29095677863202
O            7.01848528315457       -2.40063951361850        0.95401585790756
C            6.38203788818659       -3.63240774675577        1.15809280003088
C            5.03791980481381       -1.52108475847453       -0.17844625618718
C            0.01499273493406       -1.35113224711127       -0.70857900313441
C           -4.01469789317703        3.13456351397277        0.54337692315135
C           -4.54931322851664        2.71956946443889        1.91568576810783
C           -3.62326046903083        4.63385794075018        0.60065236191125
H           -4.59532737373413        0.93495283133991       -1.29164092131502
H           -6.82007728403175        0.38428802966457       -1.67806599854414
H           -7.27863178527501       -1.04858084444912       -2.63565079691489
H           -5.72511073251739       -0.23353879131705       -2.94766447049150
H           -4.91147689136452       -3.68359239487103        2.49793231551845
H           -5.44399694146301       -4.91207629136925        1.32113864419625
H           -3.73012799001511       -4.42761165313575        1.38233200509024
H           -3.04096887589740       -2.27391048043406        2.08930118102205
H           -1.99989609599109       -0.08932299175733        1.92758123628197
H           -2.98508129032852        2.34841299449473       -1.91957819133896
H           -1.57748283861812        3.18089175410163       -1.24534453226970
H           -1.71249853116237        0.18952204449028       -1.77703993526278
H           -1.03657370978391        1.39165691403486       -2.88279839761519
H           -0.69645923144759        2.05870528310894        0.67424823996483
H            0.74985607844952        1.95299923476699       -1.16772504259142
H            2.17194404506941       -0.68048826919921        0.67367979683284
H            2.32896591832013        0.95714487365999        0.01802621186856
H            2.85882062556517        0.01112046791548       -2.22258468329620
H            2.76786483485133       -1.62266508877762       -1.54577353468227
H            4.68241758339303        1.53533194274840       -1.56462011760865
H            6.97166632060987        1.75435521157066       -0.74954737522915
H            8.67542961196608        1.81175870037006        0.87976369761668
H            9.24565148874721        1.15701388735410       -0.68206035149814
H           10.07369891346539        0.70703881800279        0.83126594063519
H            7.11548832406306       -4.25217821435018        1.67345030288368
H            5.48897620331245       -3.53377756242521        1.78559330313366
H            6.10565837764273       -4.11214286624241        0.21186078245219
H            4.47514167007302       -2.43059834129044       -0.03002716192606
H           -0.13495476613038       -1.69586602502343       -1.74459993592748
H           -0.96698910356800       -1.26918830577618       -0.23082361409916
H            0.60232779566136       -2.09390355503469       -0.17310805885830
H           -4.80505252147538        3.08172064118893       -0.22823719034109
H           -3.60161243042430        2.49869475381240        2.59328142655248
H           -5.13345359640180        1.79103108736845        1.82695015881327
H           -5.22305375918239        3.46532078127508        2.33467648987106
H           -2.98232723871236        4.84400839202108        1.45531166191458
H           -3.09038967490481        4.89576940775092       -0.30932406699086
H           -4.46762872543915        5.33630856307066        0.67434015762718
H           -0.88819372753582        2.78142823082967        2.85801764615662
72
 energy: 32.888038497605 xtb: 6.6.1 (8d0f1dd)
N           -1.85115020390752        2.66182884685222        2.40107834792788
C           -1.64861807004753        2.27586366417945        1.17504962645470
C           -2.75755542303909        2.07129684884773        0.19226691404040
C           -3.22376196099447        0.61181660168562        0.31905927792194
C           -4.24680721198124        0.22338183490551       -0.54044720508607
C           -4.86088630739363       -1.00321520425329       -0.44332564093025
O           -5.93045133559831       -1.40994924505978       -1.22258781847961
C           -6.46233083393284       -0.48800121895599       -2.12788620798776
C           -4.43304268594464       -1.92866876113760        0.51522800748629
O           -5.13466364257025       -3.12486837677572        0.53813874273406
C           -4.79954740372447       -4.06657498017870        1.51172425477825
C           -3.37804035354202       -1.59104342624181        1.33817434830736
C           -2.77458843045493       -0.33909888340655        1.23324685752255
C           -2.13660173353493        2.23339869616127       -1.24786816976917
C           -1.18948341256998        1.14531685564205       -1.85750779739554
C            0.08569957492885        1.15009595011048       -1.11566931785205
N            0.74675699748085       -0.15300834851026       -0.66793488192686
C            2.07525026026006       -0.08548443472435       -0.26305880917957
C            3.06274504649686       -0.60250850532865       -1.34268155440073
C            4.45927902606105       -0.48144206345518       -0.87626295102137
C            5.16621272564379        0.69757245054701       -1.04658843706973
C            6.45978191806673        0.82724466462052       -0.56903428683329
C            7.06147005200024       -0.22231761245465        0.09623013034533
O            8.35581492198291       -0.21438746243386        0.59970846889565
C            9.12041597831335        0.93628172947644        0.40630158324142
C            6.35163180066916       -1.41603753397595        0.29415659924831
O            7.04276536646979       -2.40822399201911        0.96271345433795
C            6.40613971105880       -3.63830276131899        1.15979131238085
C            5.06457874014955       -1.53158850670903       -0.18448509837312
C            0.03852361016178       -1.36677642304936       -0.74288281547699
C           -4.07124049797734        3.16302192612542        0.53877782572003
C           -4.57358110326614        2.69060770146882        1.90466873562239
C           -3.70229946669573        4.67376117935834        0.61781687716961
H           -4.57280724603464        0.93236283525174       -1.28203503339114
H           -6.80882612447195        0.42856286431220       -1.63256318062712
H           -7.31583890929155       -0.99659129881832       -2.57727819266491
H           -5.74750299099596       -0.22029761749449       -2.91430383368790
H           -4.92166178378918       -3.67337740095412        2.52910280310772
H           -5.49835622994994       -4.89072443709855        1.36200262427773
H           -3.77477560129617       -4.43860272757796        1.39239674619089
H           -3.03022473176602       -2.29410774705624        2.08491988066125
H           -1.94881160493448       -0.13229591537820        1.89829659877811
H           -2.97282571794576        2.33783334693833       -1.93265904594851
H           -1.55087960522216        3.15824596074962       -1.26107360127747
H           -1.67821446732808        0.16960801075521       -1.83387102483696
H           -1.04743412815502        1.39877339244915       -2.93251275784701
H           -0.71063266275819        2.23347757042903        0.71356367993109
H            0.79280658371877        1.93266142838600       -1.24767070932095
H            2.19538057217999       -0.68638638815697        0.65398322353558
H            2.34112055798101        0.94808466385756       -0.01366049297900
H            2.89344284633612       -0.00982656215409       -2.24329409244388
H            2.79996365503328       -1.64032152594898       -1.55899500931972
H            4.70481885796446        1.52462066171730       -1.56606939268199
H            6.98901901159181        1.75337762754686       -0.73450053838063
H            8.68484144336123        1.81222641304237        0.90305259493535
H            9.26246116276091        1.16300672558950       -0.65810029853922
H           10.08756658892698        0.71315221647254        0.85684907355653
H            7.13688241117084       -4.25796259557454        1.68021757457022
H            5.50771930620598       -3.54370841630575        1.78061496601089
H            6.13729640173625       -4.11934014332345        0.21143067682834
H            4.50197344918719       -2.44188205440779       -0.03977964687391
H           -0.10344929540191       -1.72476237152687       -1.77840180990413
H           -0.94863310240907       -1.28060857677370       -0.27623398730157
H            0.61631295087531       -2.11042474170516       -0.19296419851888
H           -4.85742673995785        3.12265804853183       -0.24171515577551
H           -3.58789913848751        2.37223797499534        2.53679427318169
H           -5.22531028199369        1.81212511293547        1.78092883464951
H           -5.17250477103048        3.44526346422936        2.40303062694843
H           -3.12998883566264        4.90093426854202        1.51807827207283
H           -3.10724333434806        4.92612052275055       -0.25351442918211
H           -4.54783246679330        5.38555631117194        0.62174227958926
H           -0.98304288468868        2.77963166167631        2.89076786278134
72
 energy: 48.682632814668 xtb: 6.6.1 (8d0f1dd)
N           -1.92291475527709        2.62157943940919        2.41739265322860
C           -1.68253062373410        2.28775530324616        1.19765904549937
C           -2.74919322972496        2.05845071982834        0.17753266318326
C           -3.20497265314349        0.60052350339190        0.31791557907339
C           -4.23585341002889        0.21731289176393       -0.53397293736955
C           -4.86816790662702       -0.99817126019084       -0.42102019954845
O           -5.95573388358840       -1.38758917562567       -1.18699753913338
C           -6.47964999829297       -0.45696686582096       -2.08485329557051
C           -4.44390146505916       -1.92480242064854        0.53562760678549
O           -5.16613878136097       -3.11089455198281        0.57180078121001
C           -4.83388946618313       -4.05755046312541        1.53855339491057
C           -3.36691492515750       -1.60268066742259        1.33879699393742
C           -2.74675105305513       -0.35858458713529        1.22197378988902
C           -2.12252447110287        2.21762621884510       -1.26348878132030
C           -1.17189335223392        1.13503719085583       -1.90033496145457
C            0.10448330860860        1.15303353617875       -1.18222337278749
N            0.77156698489833       -0.17523361396583       -0.70381305029235
C            2.09472517849662       -0.09589023715332       -0.28775903521758
C            3.09339344207019       -0.61841254356316       -1.36014545814244
C            4.48609691257101       -0.49341537402390       -0.88370860361224