25
 energy: -42.056847021916 gnorm: 0.003417154746 xtb: 6.6.1 (8d0f1dd)
C            2.72224106709596        0.52956736004700       -0.27295922274415
N            1.70778285762636       -0.50604824862763       -0.11616538427753
C            2.15833649826149       -1.76736154965989        0.25776293485371
N            1.42721244739109       -2.55212290226677        0.91138144928907
C            0.41436493388457       -0.13794521673170       -0.10088639482489
C            0.70443772265508        2.31426587336651        0.86197535972877
C           -0.06061565500851        1.23410435342845        0.16753624739566
O            0.53969890252114        2.39539503903971       -0.40693562026519
N           -1.46881306366529        1.15638456751982        0.14788169260976
C           -2.36461850113311        2.25598570359193        0.41762345897767
C           -1.87058739809299       -0.11481792273495       -0.10064990439224
O           -2.96955319790632       -0.56158752474815       -0.19463489921159
N           -0.66595962665526       -0.89734231148747       -0.26412054832004
C           -0.79678716213456       -2.26655167327646       -0.66352316844249
H            2.73782005736384        1.18589491351585        0.60356383471587
H            3.69933781095951        0.06380707628910       -0.37017961912253
H            2.53102015056128        1.12727836355847       -1.16403072036843
H            3.19708381732690       -1.94062497550625       -0.03114596022633
H           -2.09112724193341        3.12279348626383       -0.18767436314518
H           -3.37140953724327        1.92916711161151        0.15880704579475
H           -2.32874838764489        2.52631014745834        1.47637818518355
H           -0.42592792043130       -2.92885563928656        0.12543166434862
H           -0.23116561848224       -2.45867003457049       -1.57494373358541
H           -1.85928130961375       -2.44757634266287       -0.83121433327045
H            1.82568986839757       -3.44321111253365        1.18189361719847
