25
 energy: 0.000000000000 xtb: 6.6.1 (8d0f1dd)
C            3.23720132972391        1.16630909158653        0.08434468864950
N            2.29877796055224        0.07527476373246        0.03981602671198
C            2.58028186251803       -1.21425391179017        0.03006175752192
N            1.43813944744728       -1.93419254010258        0.00098261751768
C            0.39035684826767       -1.05887462812143       -0.00790371763344
C            0.93510047688824        0.21347817468824        0.01709077332874
C            0.09450143016486        1.40504290868848       -0.00410946993748
O            0.49712746915594        2.54126690785742       -0.00342325656480
N           -1.25076628431515        1.06271869620815       -0.03085477937476
C           -2.21907191394203        2.15522079838987       -0.05001256521996
C           -1.81739470187490       -0.20012724136556       -0.04692818139228
O           -2.99983858926755       -0.37846413507442       -0.07008877579474
N           -0.92618577614240       -1.30210203518959       -0.03682761236648
C           -1.46982251276835       -2.64643077634382       -0.06029819901142
H            3.71247229913541        1.21471443890471        1.06488839270555
H            4.00791460421487        1.03430799217987       -0.67357688121503
H            2.69909982127087        2.09770098766290       -0.09130154035862
H            3.56654087521359       -1.63682977417947        0.04233139674524
H           -1.67107945562430        3.09322822573871       -0.02552706696334
H           -2.82428927394145        2.09428605349656       -0.95318074103337
H           -2.87644002486466        2.07745706351925        0.81450059976605
H           -1.17061985538665       -3.19584861009707        0.83242224714061
H           -1.14560246782873       -3.17511580834413       -0.95688266944647
H           -2.55549768731684       -2.55659960601237       -0.07459039105944
H            1.38130842369251       -2.94313824728853       -0.01389874052104
25
 energy: -6.102452465178 xtb: 6.6.1 (8d0f1dd)
C            3.24628432118645        1.17001682652990        0.08418610519645
N            2.30546640824523        0.10151051991082        0.03495352171766
C            2.60281336282328       -1.24097099775071        0.03151383176032
N            1.42211862645664       -1.94052994662511        0.00172363698196
C            0.40092608493228       -1.06173547722913       -0.00552796986035
C            0.91912935817724        0.22602587181463        0.02020055623469
C            0.11101053036574        1.38543351458418       -0.00101793499801
O            0.49395275834648        2.55948794527467        0.00586901625089
N           -1.28006601795657        1.05143768097434       -0.05165873448924
C           -2.23498946037326        2.15473537057168       -0.06727582921491
C           -1.81947454674677       -0.19878547859204       -0.04420010997781
O           -3.01758290230463       -0.39244363320926       -0.06112941954104
N           -0.93711955429653       -1.30122699926905       -0.03094405443642
C           -1.46612760233483       -2.64477791359299       -0.05672825905213
H            3.72339749267481        1.21624892429408        1.06706260866709
H            4.01713953210151        1.03087662190760       -0.67663454105307
H            2.70751513779194        2.09819565011550       -0.09500267901140
H            3.57957909860089       -1.65281347812485        0.04098613666715
H           -1.66298864950149        3.07823808943127        0.00536913932836
H           -2.85709687185337        2.17044472473053       -0.96675140491962
H           -2.90395640915475        2.05791211862326        0.78548782469253
H           -1.16086478620534       -3.19632825651082        0.83546849486517
H           -1.13527303864322       -3.17670628879191       -0.95242700303125
H           -2.55178746086907       -2.56129049778872       -0.07195602680549
H            1.36951045702182       -2.94523693053713       -0.01287969347858
25
 energy: -5.331688239766 xtb: 6.6.1 (8d0f1dd)
C            3.25340024119490        1.16719094110758        0.08428112481627
N            2.30903041751916        0.10027834429304        0.03604683296209
C            2.60689779154529       -1.24402714363515        0.02976460813655
N            1.42489653367300       -1.94309876569978        0.00121310743450
C            0.40400278314628       -1.06301778553294       -0.00249084990374
C            0.91989611090998        0.22601497956652        0.02439064930203
C            0.10675626042196        1.38423099636519       -0.00034504356867
O            0.49145709819425        2.55812592686882        0.01530045878678
N           -1.29210710036384        1.05357950249663       -0.07297158037987
C           -2.25181712444635        2.16139224111508       -0.08392320602142
C           -1.82227464477034       -0.20142805802995       -0.04176915552373
O           -3.01958199167338       -0.40222070214634       -0.04924634784711
N           -0.93493582596534       -1.30163246858094       -0.02347413928760
C           -1.46217746977608       -2.64635176272244       -0.05117204397143
H            3.73268182488882        1.21465688667036        1.06653525479687
H            4.02344826376071        1.02677480423651       -0.67791913593663
H            2.71572462464032        2.09538639058179       -0.09547994129369
H            3.58388773237976       -1.65910627330519        0.03566540892258
H           -1.66895135619374        3.07432261458988        0.03545233604706
H           -2.88215377000731        2.24327513535300       -0.98080763274499
H           -2.93561583170012        2.03923749643719        0.75326430982378
H           -1.15767293806718       -3.20103508224973        0.83944750246777
H           -1.13033627807328       -3.17690456208243       -0.94748994172306
H           -2.54779927953385       -2.56259160065169       -0.06763642361837
H            1.37046598838378       -2.94853610597003       -0.01639442259601
25
 energy: -3.989322628589 xtb: 6.6.1 (8d0f1dd)
C            3.25926707290747        1.16456019782005        0.08282721487621
N            2.31166894234291        0.09937868987460        0.03627094999587
C            2.61022962308606       -1.24704587660738        0.02888044047153
N            1.42683637929060       -1.94582137998050        0.00183904324886
C            0.40642124308842       -1.06458741898653        0.00042113005595
C            0.91959907532708        0.22553692109893        0.02833859059613
C            0.10266415774384        1.38168016694616        0.00034225389213
O            0.48929721709110        2.55504530034878        0.02681228221136
N           -1.30344977478629        1.05685115771295       -0.09498049827075
C           -2.26757518646801        2.17131583552825       -0.09977918947986
C           -1.82452972778963       -0.20177308796653       -0.03901892108987
O           -3.02061402090008       -0.41038484879144       -0.03744014883573
N           -0.93339884305161       -1.30123758561609       -0.01660740380325
C           -1.45769000839014       -2.64769997367094       -0.04688803956482
H            3.73927898304282        1.21319496992744        1.06502868377947
H            4.02953014776579        1.02140764278081       -0.67935114899347
H            2.72356869913143        2.09305477691365       -0.09890096010198
H            3.58722565788487       -1.66478468222495        0.03241651024985
H           -1.67358184718915        3.07079949005436        0.06730129750348
H           -2.90359969688027        2.32074716017144       -0.99198458975325
H           -2.96487311661204        2.01833915470184        0.72101972709006
H           -1.15234544869258       -3.20363447986784        0.84278433923487
H           -1.12329404991287       -3.17720275899503       -0.94329664494504
H           -2.54345240901177       -2.56656177332839       -0.06484034911144
H            1.37183099166539       -2.95180229729954       -0.01859205463277
25
 energy: -2.090016706984 xtb: 6.6.1 (8d0f1dd)
C            3.26536275254657        1.16136512449870        0.08221285141654
N            2.31434618290424        0.09850774071217        0.03620314554475
C            2.61329131615531       -1.24990434893419        0.02656101319852
N            1.42854941002802       -1.94822877996302        0.00154748645821
C            0.40875581603391       -1.06577891092393        0.00301733614724
C            0.91983870106958        0.22529153807206        0.03269274445941
C            0.09913540619956        1.37967974697912        0.00140673604031
O            0.48809163448298        2.55217119927506        0.03788569164189
N           -1.31408468648484        1.06194527529353       -0.11518231757703
C           -2.28424792875367        2.18366858067089       -0.11471329586397
C           -1.82646074812924       -0.19989715515111       -0.03540449288611
O           -3.02096519663655       -0.41746204557765       -0.02652907094961
N           -0.93191274843869       -1.29993716693038       -0.00987575534112
C           -1.45286942462024       -2.64860558244103       -0.04202461499772
H            3.74643371826115        1.21031846842560        1.06420083814576
H            4.03547319861157        1.01539043709246       -0.68013099894437
H            2.73251182123925        2.09087481945843       -0.10042622076371
H            3.59012035413705       -1.66994649475119        0.02688731491848
H           -1.67959098247503        3.06733402593328        0.10075472239589
H           -2.92315641474226        2.39833042622426       -1.00296886104197
H           -2.99426256809033        1.99799578549117        0.68850161005751
H           -1.14580356821505       -3.20515371873170        0.84689824271509
H           -1.11616006726090       -3.17767800288343       -0.93833113838913
H           -2.53885246090594       -2.57126559314508       -0.06061179616320
H            1.37475316615236       -2.95457265537249       -0.02272417397883
25
 energy: 0.337009697971 xtb: 6.6.1 (8d0f1dd)
C            3.27149362960091        1.15820165453231        0.08096241804286
N            2.31779568853115        0.09754374878412        0.03556156215481
C            2.61689888244401       -1.25277145234921        0.02453483143926
N            1.43077061545036       -1.95016777183436        0.00104873171938
C            0.41143020585252       -1.06650066169749        0.00546339761135
C            0.92125716447996        0.22548507974799        0.03442595298779
C            0.09826419315941        1.38015487906826        0.00161423516151
O            0.48808428601484        2.55149743844996        0.04887423667922
N           -1.32337762351552        1.06955721808206       -0.13441341454717
C           -2.30109986730949        2.19875178787886       -0.12748258385782
C           -1.82760051068907       -0.19635232503783       -0.03165618093125
O           -3.02049677002703       -0.42314898354093       -0.01516414222806
N           -0.93017793618909       -1.29794189935846       -0.00331419329888
C           -1.44811144912824       -2.64909352328139       -0.03737271428521
H            3.75347256881987        1.20768835860391        1.06271956542502
H            4.04142183056852        1.00965314923730       -0.68146561730147
H            2.74098556472948        2.08859764587810       -0.10250871942751
H            3.59352661915821       -1.67519218808451        0.02113261853570
H           -1.68670056690888        3.06496636521194        0.13370031136433
H           -2.94030084168914        2.47718947757868       -1.01146412095182
H           -3.02358610807916        1.97848297828554        0.65588198930139
H           -1.13967905703803       -3.20682303733603        0.85066936918149
H           -1.10912398291831       -3.17801269996461       -0.93346813717687
H           -2.53431666412860       -2.57573363914096       -0.05689057641853
H            1.37909535587835       -2.95678518921171       -0.02475723906778
25
 energy: 3.045407392807 xtb: 6.6.1 (8d0f1dd)
C            3.27755740782638        1.15482176038447        0.07955302463104
N            2.32165195944425        0.09621490839681        0.03394282670200
C            2.62073185897921       -1.25568882545607        0.02194637423044
N            1.43347081610425       -1.95129074597219       -0.00140902946579
C            0.41434236753312       -1.06675804624820        0.00679047019920
C            0.92337249029459        0.22590474615682        0.03174407317941
C            0.09955959035571        1.38252565319229       -0.00121603825011
O            0.48931622588290        2.55233480920316        0.05963214355456
N           -1.32989552825770        1.07801748962277       -0.15332170178858
C           -2.31538533625280        2.21254671791038       -0.13490753587762
C           -1.82749895924237       -0.19144538865301       -0.03092410494789
O           -3.01888315251703       -0.42670675138210       -0.00457900746345
N           -0.92818579924754       -1.29534730447744        0.00241285782361
C           -1.44332982248555       -2.64903339407866       -0.03278032517945
H            3.75999481134178        1.20460251997346        1.06125650528188
H            4.04755549584808        1.00414317852253       -0.68262615391668
H            2.74923031094052        2.08616071813046       -0.10437252535970
H            3.59696721552169       -1.68047072672410        0.01440610815431
H           -1.69560797993822        3.06250892561827        0.16732335930244
H           -2.95407788803900        2.55384966486691       -1.01695880816870
H           -3.05287352721055        1.95902485696549        0.62323673216918
H           -1.13368257374446       -3.20764381118904        0.85467257013829
H           -1.10199168580382       -3.17837195273486       -0.92829250928174
H           -2.52975112724922       -2.57986847847409       -0.05329217924138
H            1.38323165251275       -2.95796371098350       -0.02332349306097
25
 energy: 6.097948197179 xtb: 6.6.1 (8d0f1dd)
C            3.28491605287794        1.15035504058073        0.07743500257249
N            2.32752751542493        0.09296370346024        0.03278208781485
C            2.62625642023671       -1.26019492398295        0.02041980208867
N            1.43770217908576       -1.95281856990469        0.00165451062170
C            0.41890738745308       -1.06746414343561        0.00965266391847
C            0.92832750323301        0.22520676387669        0.02947802039266
C            0.10488226181311        1.38381799849626       -0.00145836831788
O            0.49319955230250        2.55250313915388        0.07114303158786
N           -1.32714846381871        1.08301275582388       -0.15978785928634
C           -2.31881642286736        2.21895249867015       -0.13412027987939
C           -1.82389652424501       -0.18958511988253       -0.02686341698337
O           -3.01443184845390       -0.42927742462707        0.00625645122147
N           -0.92451955813653       -1.29401406937313        0.00813731040406
C           -1.43830852243135       -2.64942921756817       -0.03006994932617
H            3.76995462057325        1.20135222147666        1.05798292809165
H            4.05325419744346        0.99721164600265       -0.68589942289612
H            2.75858498533629        2.08278459280367       -0.10626351480852
H            3.60189356827353       -1.68682356013901        0.00935304052576
H           -1.71301473818040        3.06398449756425        0.20162858341656
H           -2.96504016946629        2.62633142434003       -1.01840029725414
H           -3.07679817518986        1.93817550278980        0.59523900241888
H           -1.12769752690824       -3.21113101199555        0.85533086588411
H           -1.09687124952959       -3.17798471754310       -0.92638878889717
H           -2.52491712047305       -2.58316798935836       -0.05022076772118
H            1.38652978817695       -2.95936549498640       -0.01254940296790
25
 energy: 9.974938683641 xtb: 6.6.1 (8d0f1dd)
C            3.28986743876522        1.14614312961154        0.07706241539026
N            2.33141118049485        0.08932155527060        0.03009412600076
C            2.62866698012821       -1.26555589534650        0.01400989377960
N            1.43849983288334       -1.95458249448450        0.00026497754431
C            0.42177948393104       -1.06780817140018        0.01180529549019
C            0.93164172832202        0.22428883970225        0.03048360410533
C            0.10676355028252        1.38308028912578        0.00528747684778
O            0.49507150189844        2.55114600668887        0.08371278530862
N           -1.32564958991455        1.08494104287774       -0.14982495353076
C           -2.32169079252182        2.22366414286586       -0.12865022638973
C           -1.82133288502568       -0.19092842546700       -0.02034140010297
O           -3.01149802176424       -0.43295889782038        0.01977744389123
N           -0.92186810155902       -1.29349115146854        0.01443470449974
C           -1.43293372733047       -2.65036543076690       -0.02311139099504
H            3.77247537436366        1.19803190667059        1.05890492875601
H            4.06042933399682        0.99185710293536       -0.68386310562241
H            2.76566086962261        2.07950659066904       -0.10835220663617
H            3.60410808782319       -1.69310125163638        0.00006487983190
H           -1.72829230432162        3.06162511005606        0.23955693865556
H           -2.98144452424835        2.69579009371240       -1.01484069823326
H           -3.10509020260008        1.91591626719775        0.56100508373263
H           -1.12170531343986       -3.21013887726091        0.86343857192534
H           -1.08793820319299       -3.17968653308184       -0.91783666682030
H           -2.51975984864983       -2.58763940173324       -0.04558661505533
H            1.38118336799855       -2.96043845312291       -0.01724869892126
25
 energy: 14.423536208557 xtb: 6.6.1 (8d0f1dd)
C            3.29625715094516        1.14174925385483        0.07646370745737
N            2.33474225562337        0.08738934225626        0.02953739258876
C            2.62948972783606       -1.26709711872436        0.02076708466913
N            1.43992482220734       -1.95641506821943        0.00310569807163
C            0.42490397887330       -1.06854113418452        0.01474488862003
C            0.93500308250110        0.22314427237313        0.03103431834539
C            0.10937205318573        1.38174220736337        0.01046250544057
O            0.49935507482528        2.54937695789920        0.09074363979009
N           -1.32492851897414        1.08676249773742       -0.13610078990652
C           -2.32462977048397        2.22517705714718       -0.12230019745151
C           -1.81889244180347       -0.19228351974258       -0.01034643310475
O           -3.00866257939140       -0.43670223097549        0.03623888603880
N           -0.91907255442364       -1.29287728262831        0.02204191128062
C           -1.42818514969902       -2.65072197886599       -0.01954039419792
H            3.77893587313515        1.19410082487159        1.05833446517593
H            4.06728276291149        0.98338321348865       -0.68327988462583
H            2.77607105439147        2.07694964980420       -0.11065114102638
H            3.60445766480268       -1.69711839191437       -0.00842929317342
H           -1.74743860215930        3.06131879784869        0.26403684919793
H           -2.99597353941045        2.75964785798378       -1.02019962298904
H           -3.13077746812510        1.89662004281626        0.52990142613332
H           -1.11496709404695       -3.21347187334750        0.86461840317951
H           -1.08184360276605       -3.17589570263416       -0.91631685738750
H           -2.51526628043287       -2.59073408387173       -0.04201518201032
H            1.37763835648292       -2.96193885553160       -0.01770010804649
25
 energy: 19.498608463098 xtb: 6.6.1 (8d0f1dd)
C            3.30208859035948        1.13688137552360        0.07603539370941
N            2.33834242005251        0.08407518584673        0.02708728039566
C            2.63264282195530       -1.27081984312290        0.03215819413146
N            1.44216499240785       -1.95905013850066        0.00549253762831
C            0.42768728412478       -1.06992314777012        0.01241664710365
C            0.93874335050083        0.22120526023219        0.02973318422112
C            0.11282744225763        1.38050420593511        0.01151936285992
O            0.50325871233281        2.54883862110893        0.08071876204100
N           -1.32319591298994        1.08676452904562       -0.12246274698942
C           -2.32891173772778        2.21896387996486       -0.11990445443744
C           -1.81594851938395       -0.19476787045348       -0.00246662603835
O           -3.00531554056768       -0.44026065091079        0.05077549209105
N           -0.91606060880647       -1.29298973959708        0.02626784536740
C           -1.42333258544966       -2.65174615832759       -0.01579454600400
H            3.78485057440987        1.18901173207784        1.05796044146580
H            4.07372241430405        0.97634860476585       -0.68271023863581
H            2.78517147367703        2.07380923214841       -0.11165108531941
H            3.60647386694497       -1.70188865920303       -0.01818071154483
H           -1.77219907885880        3.05789995494506        0.28016031443979
H           -3.03893383300047        2.78022380098302       -1.05097017555872
H           -3.15406779416745        1.87878805953398        0.49880093122746
H           -1.10868881731877       -3.21540072543216        0.86740600528113
H           -1.07581553468070       -3.17532442683968       -0.91302317150352
H           -2.51059429887364       -2.59422057457344       -0.03846614310906
H            1.37519900484265       -2.96473043282979       -0.01504516031069
25
 energy: 28.267758011840 xtb: 6.6.1 (8d0f1dd)
C            3.30789138949378        1.13238754409018        0.07490570803744
N            2.34207701406323        0.08128083140091        0.02512173891572
C            2.63510667165670       -1.27350874556005        0.04299424496673
N            1.44473653210158       -1.96128320988233        0.00890769392406
C            0.43084490815988       -1.07086733861014        0.01430871457705
C            0.94296450068177        0.21939989624121        0.03112968469634
C            0.11803724557013        1.37903303336211        0.01586645006103
O            0.50946708968254        2.54776291141057        0.07271906128800
N           -1.31911223194615        1.08712029833644       -0.10645688490262
C           -2.32312259223226        2.21021141577443       -0.10561288831288
C           -1.81219648647170       -0.19762922275722        0.00369869041425
O           -3.00137886951694       -0.44229250479221        0.06018194537278
N           -0.91316338786965       -1.29299389155034        0.02531279795003
C           -1.41862219454862       -2.65247824037785       -0.01242276061355
H            3.79179559848866        1.18415438541092        1.05628359651061
H            4.07865970820535        0.96896688544399       -0.68403388010345
H            2.79447293153459        2.07119146383204       -0.11288801352326
H            3.60753820808397       -1.70290110672894       -0.02757218058872
H           -1.78573077383943        3.05239905936800        0.30594527392126
H           -3.09703979985922        2.83408934528262       -1.08049709445809
H           -3.17267390924504        1.85573167595935        0.46516673210435
H           -1.10244484080105       -3.21482034016530        0.87122871706831
H           -1.06879400833065       -3.17517635147256       -0.90903145916164
H           -2.50618167314955       -2.59815265852984       -0.03545387869383
H            1.37853619257382       -2.96743623944493       -0.01281848704369
25
 energy: 39.655963960720 xtb: 6.6.1 (8d0f1dd)
C            3.31487358234971        1.12778047500453        0.07438180501817
N            2.34747704792541        0.07840061446043        0.02611420249717
C            2.63902844765940       -1.27608896742367        0.05303612354112
N            1.44975326517092       -1.96350111129173        0.01160426365485
C            0.43568391396063       -1.07364647942767        0.01630179515719
C            0.94810094170705        0.21660733319421        0.03353178829926
C            0.12472216672843        1.37624322858560        0.02211310751564
O            0.51726873208115        2.54471150655597        0.06745786372909
N           -1.31280488552319        1.08621219926418       -0.08686078180885
C           -2.31135771098876        2.19421530774766       -0.08794922605775
C           -1.80642696767965       -0.20209099092244        0.01300044481662
O           -2.99533277598045       -0.44230167513741        0.07278180182211
N           -0.90875832609761       -1.29558687709971        0.02713148999269
C           -1.41322952435875       -2.65405706648035       -0.00982766607849
H            3.79864425901347        1.17875896488158        1.05559559157033
H            4.08564938491400        0.96203377626571       -0.68392092857395
H            2.80445166540771        2.06805446374724       -0.11404506976054
H            3.60909390407686       -1.70819343942833       -0.03219040976739
H           -1.79873783529333        3.04397134519735        0.33034234910817
H           -3.17223756396458        2.89484396368866       -1.11965781081811
H           -3.18615256764225        1.82672893568996        0.42820814161727
H           -1.09610255702058       -3.21514433873673        0.87404401894073
H           -1.06125616979846       -3.17486961895874       -0.90633780905813
H           -2.50099186637050       -2.60135840658784       -0.03391584067832
H            1.38495909135233       -2.96963690540446       -0.01128084798397
25
 energy: 58.696982367550 xtb: 6.6.1 (8d0f1dd)
C            3.32045541341951        1.12322782757570        0.07438982515350
N            2.35349656797431        0.07198733505229        0.02798695072103
C            2.64056201066555       -1.27746094270194        0.05853158779658
N            1.45583430018910       -1.96548093672698        0.01473023963653
C            0.43907497386509       -1.07688642076270        0.01951216794342
C            0.95558245762732        0.21215500384070        0.03557534424182
C            0.13461643839734        1.37202269995104        0.03131852069881
O            0.52806105717138        2.54015332432999        0.06153066638537
N           -1.29413288447715        1.08118349881705       -0.04813917370200
C           -2.26115506170051        2.15582695393912       -0.03232685884674
C           -1.79894445427833       -0.21193329661579        0.01952410227355
O           -2.98923490583895       -0.44161113642374        0.06476289695758
N           -0.90369119541343       -1.30036461052859        0.02814198242774
C           -1.40843311981303       -2.65711443950819       -0.00561666102217
H            3.80476236903135        1.17404166885469        1.05484282934620
H            4.08938102390507        0.95380073323711       -0.68411568740398
H            2.81186928240114        2.06461219451466       -0.11497725365852
H            3.60925795856248       -1.71208229656694       -0.04038725878354
H           -1.79647516166607        3.04111178868084        0.35206707984351
H           -3.30595290153670        3.00829432601374       -1.20110865329805
H           -3.18691318397639        1.79750809625008        0.37717062594904
H           -1.08899670535152       -3.21514678132739        0.87880774045868
H           -1.05302452124149       -3.17298935685239       -0.90296939268106
H           -2.49651236603378       -2.60735632132816       -0.02923501687942
H            1.39003163395680       -2.97147595705868       -0.01109185593269
25
 energy: 70.430896671932 xtb: 6.6.1 (8d0f1dd)
C            3.32527915450855        1.11807146388404        0.07359059241173
N            2.35902512594949        0.06412672777959        0.02971323623328
C            2.64370290516961       -1.27895834712704        0.06302159650167
N            1.46327792297411       -1.96901658417831        0.01655149882851
C            0.44275317923061       -1.08151546790876        0.02172222742275
C            0.96381115470915        0.20563182267209        0.03769619209126
C            0.14281320014899        1.36722361781062        0.03817949600976
O            0.53933201162893        2.53344625925740        0.05332945421316
N           -1.27503318529548        1.07521569892116       -0.01338257960352
C           -2.21516868535108        2.13072572528981        0.01610407881704
C           -1.79147535701377       -0.21981301109502        0.02637757687839
O           -2.98289312333770       -0.44436795212613        0.05385189960889
N           -0.89697843678891       -1.30589977783262        0.02850295072932
C           -1.40724929296219       -2.65910202552165       -0.00244561559381
H            3.80890590899437        1.16863281767905        1.05424656066448
H            4.09283684222785        0.94578870277206       -0.68505413097716
H            2.81566076863380        2.05915885313711       -0.12013763132035
H            3.61143566715978       -1.71684989667890       -0.04560974884032
H           -1.77766268256016        3.04915125281639        0.35022006791794
H           -3.43869093333691        3.10754921299079       -1.26931322133208
H           -3.17858308602552        1.78759736205343        0.33088380129815
H           -1.08924539281042       -3.21228933248936        0.88473706584840
H           -1.05122594726277       -3.17447762926275       -0.89830311035918
H           -2.49401791484483       -2.61058089441183       -0.02683321313879
H            1.39737990502242       -2.97471165307628       -0.01035831913087
25