      -----------------------------------------------------------      
     |                   =====================                   |     
     |                           x T B                           |     
     |                   =====================                   |     
     |                         S. Grimme                         |     
     |          Mulliken Center for Theoretical Chemistry        |     
     |                    University of Bonn                     |     
      -----------------------------------------------------------      

   * xtb version 6.6.1 (8d0f1dd) compiled by 'conda@1efc2f54142f' on 2023-08-01

   xtb is free software: you can redistribute it and/or modify it under
   the terms of the GNU Lesser General Public License as published by
   the Free Software Foundation, either version 3 of the License, or
   (at your option) any later version.
   
   xtb is distributed in the hope that it will be useful,
   but WITHOUT ANY WARRANTY; without even the implied warranty of
   MERCHANTABILITY or FITNESS FOR A PARTICULAR PURPOSE.  See the
   GNU Lesser General Public License for more details.
   
   Cite this work as:
   * C. Bannwarth, E. Caldeweyher, S. Ehlert, A. Hansen, P. Pracht,
     J. Seibert, S. Spicher, S. Grimme, WIREs Comput. Mol. Sci., 2020, 11,
     e01493. DOI: 10.1002/wcms.1493
   
   for GFN2-xTB:
   * C. Bannwarth, S. Ehlert and S. Grimme., J. Chem. Theory Comput., 2019,
     15, 1652-1671. DOI: 10.1021/acs.jctc.8b01176
   for GFN1-xTB:
   * S. Grimme, C. Bannwarth, P. Shushkov, J. Chem. Theory Comput., 2017,
     13, 1989-2009. DOI: 10.1021/acs.jctc.7b00118
   for GFN0-xTB:
   * P. Pracht, E. Caldeweyher, S. Ehlert, S. Grimme, ChemRxiv, 2019, preprint.
     DOI: 10.26434/chemrxiv.8326202.v1
   for GFN-FF:
   * S. Spicher and S. Grimme, Angew. Chem. Int. Ed., 2020, 59, 15665-15673.
     DOI: 10.1002/anie.202004239
   
   for ALPB and GBSA implicit solvation:
   * S. Ehlert, M. Stahn, S. Spicher, S. Grimme, J. Chem. Theory Comput.,
     2021, 17, 4250-4261. DOI: 10.1021/acs.jctc.1c00471
   
   for DFT-D4:
   * E. Caldeweyher, C. Bannwarth and S. Grimme, J. Chem. Phys., 2017,
     147, 034112. DOI: 10.1063/1.4993215
   * E. Caldeweyher, S. Ehlert, A. Hansen, H. Neugebauer, S. Spicher,
     C. Bannwarth and S. Grimme, J. Chem. Phys., 2019, 150, 154122.
     DOI: 10.1063/1.5090222
   * E. Caldeweyher, J.-M. Mewes, S. Ehlert and S. Grimme, Phys. Chem. Chem. Phys.
     2020, 22, 8499-8512. DOI: 10.1039/D0CP00502A
   
   for sTDA-xTB:
   * S. Grimme and C. Bannwarth, J. Chem. Phys., 2016, 145, 054103.
     DOI: 10.1063/1.4959605
   
   in the mass-spec context:
   * V. Asgeirsson, C. Bauer and S. Grimme, Chem. Sci., 2017, 8, 4879.
     DOI: 10.1039/c7sc00601b
   * J. Koopman and S. Grimme, ACS Omega 2019, 4, 12, 15120-15133.
     DOI: 10.1021/acsomega.9b02011
   
   for metadynamics refer to:
   * S. Grimme, J. Chem. Theory Comput., 2019, 155, 2847-2862
     DOI: 10.1021/acs.jctc.9b00143
   
   for SPH calculations refer to:
   * S. Spicher and S. Grimme, J. Chem. Theory Comput., 2021, 17, 1701-1714
     DOI: 10.1021/acs.jctc.0c01306
   
   with help from (in alphabetical order)
   P. Atkinson, C. Bannwarth, F. Bohle, G. Brandenburg, E. Caldeweyher
   M. Checinski, S. Dohm, S. Ehlert, S. Ehrlich, I. Gerasimov, C. Hölzer
   A. Katbashev, J. Koopman, C. Lavigne, S. Lehtola, F. März, M. Müller,
   F. Musil, H. Neugebauer, J. Pisarek, C. Plett, P. Pracht, F. Pultar,
   J. Seibert, P. Shushkov, S. Spicher, M. Stahn, M. Steiner, T. Strunk,
   J. Stückrath, T. Rose, and J. Unsleber
   
 * started run on 2024/04/06 at 11:13:20.072     

           -------------------------------------------------
          |                Calculation Setup                |
           -------------------------------------------------

          program call               : xtb struc.xyz --opt loose --input .xc1 --gfn2
          hostname                   : n-62-30-23
          coordinate file            : struc.xyz
          omp threads                :                     1

   ID    Z sym.   atoms
    1    7 N      1, 17
    2    6 C      2-6, 8, 9, 11-16, 18-23, 25, 26, 28-33
    3    8 O      7, 10, 24, 27
    4    1 H      34-72
constraining bond 16 62 to    5.1400000 Å, actual value:    2.8284197 Å

           -------------------------------------------------
          |                 G F N 2 - x T B                 |
           -------------------------------------------------

        Reference                      10.1021/acs.jctc.8b01176
      * Hamiltonian:
        H0-scaling (s, p, d)           1.850000    2.230000    2.230000
        zeta-weighting                 0.500000
      * Dispersion:
        s8                             2.700000
        a1                             0.520000
        a2                             5.000000
        s9                             5.000000
      * Repulsion:
        kExp                           1.500000    1.000000
        rExp                           1.000000
      * Coulomb:
        alpha                          2.000000
        third order                    shell-resolved
        anisotropic                    true
        a3                             3.000000
        a5                             4.000000
        cn-shift                       1.200000
        cn-exp                         4.000000
        max-rad                        5.000000


          ...................................................
          :                      SETUP                      :
          :.................................................:
          :  # basis functions                 171          :
          :  # atomic orbitals                 171          :
          :  # shells                          105          :
          :  # electrons                       180          :
          :  max. iterations                   250          :
          :  Hamiltonian                  GFN2-xTB          :
          :  restarted?                      false          :
          :  GBSA solvation                  false          :
          :  PC potential                    false          :
          :  electronic temp.         5000.0000000     K    :
          :  accuracy                    1.0000000          :
          :  -> integral cutoff          0.2500000E+02      :
          :  -> integral neglect         0.1000000E-07      :
          :  -> SCF convergence          0.1000000E-05 Eh   :
          :  -> wf. convergence          0.1000000E-03 e    :
          :  Broyden damping             0.4000000          :
          ...................................................

 iter      E             dE          RMSdq      gap      omega  full diag
   1   -100.5973919 -0.100597E+03  0.374E+00    3.20       0.0  T
   2   -100.7362642 -0.138872E+00  0.221E+00    1.08       1.0  T
   3   -100.7049001  0.313641E-01  0.141E+00    3.29       1.0  T
   4   -100.7721690 -0.672689E-01  0.526E-01    1.50       1.0  T
   5   -100.7894292 -0.172602E-01  0.190E-01    1.98       1.0  T
   6   -100.7911978 -0.176856E-02  0.792E-02    1.77       1.0  T
   7   -100.7914750 -0.277198E-03  0.375E-02    1.83       1.0  T
   8   -100.7914914 -0.164582E-04  0.140E-02    1.83       1.0  T
   9   -100.7914976 -0.616739E-05  0.474E-03    1.82       2.5  T
  10   -100.7914988 -0.118227E-05  0.172E-03    1.82       6.8  T
  11   -100.7914989 -0.139928E-06  0.766E-04    1.82      15.4  T
  12   -100.7914989 -0.773143E-08  0.318E-04    1.82      37.0  T

   *** convergence criteria satisfied after 12 iterations ***

         #    Occupation            Energy/Eh            Energy/eV
      -------------------------------------------------------------
         1        2.0000           -0.8078051             -21.9815
       ...           ...                  ...                  ...
        84        1.9966           -0.5157491             -14.0342
        85        1.9959           -0.5128261             -13.9547
        86        1.9840           -0.4911498             -13.3649
        87        1.9795           -0.4872543             -13.2589
        88        1.9640           -0.4782114             -13.0128
        89        1.8920           -0.4602041             -12.5228
        90        1.8557           -0.4553147             -12.3897 (HOMO)
        91        0.3166           -0.3884132             -10.5693 (LUMO)
        92        0.0218           -0.3434697              -9.3463
        93        0.0041           -0.3169887              -8.6257
        94        0.0034           -0.3139726              -8.5436
        95        0.0029           -0.3112618              -8.4699
       ...           ...                  ...                  ...
       171                          0.5822580              15.8440
      -------------------------------------------------------------
                  HL-Gap            0.0669015 Eh            1.8205 eV
             Fermi-level           -0.4148687 Eh          -11.2892 eV

 SCC (total)                   0 d,  0 h,  0 min,  0.195 sec
 SCC setup                      ...        0 min,  0.001 sec (  0.516%)
 Dispersion                     ...        0 min,  0.002 sec (  0.929%)
 classical contributions        ...        0 min,  0.000 sec (  0.232%)
 integral evaluation            ...        0 min,  0.018 sec (  9.405%)
 iterations                     ...        0 min,  0.097 sec ( 49.831%)
 molecular gradient             ...        0 min,  0.076 sec ( 38.748%)
 printout                       ...        0 min,  0.001 sec (  0.330%)

         :::::::::::::::::::::::::::::::::::::::::::::::::::::
         ::                     SUMMARY                     ::
         :::::::::::::::::::::::::::::::::::::::::::::::::::::
         :: total energy             -98.450049057954 Eh    ::
         :: gradient norm              0.630929469763 Eh/a0 ::
         :: HOMO-LUMO gap              1.820481192090 eV    ::
         ::.................................................::
         :: SCC energy              -100.791498925389 Eh    ::
         :: -> isotropic ES            0.109302908418 Eh    ::
         :: -> anisotropic ES          0.005415138735 Eh    ::
         :: -> anisotropic XC          0.042392697176 Eh    ::
         :: -> dispersion             -0.075527661009 Eh    ::
         :: repulsion energy           1.386151658689 Eh    ::
         :: add. restraining           0.954081856241 Eh    ::
         :: total charge               1.000000000108 e     ::
         :::::::::::::::::::::::::::::::::::::::::::::::::::::

      ----------------------------------------------------------- 
     |                   =====================                   |
     |                        A N C O P T                        |
     |                   =====================                   |
     |               Approximate Normal Coordinate               |
     |                Rational Function Optimizer                |
      ----------------------------------------------------------- 

          ...................................................
          :                      SETUP                      :
          :.................................................:
          :   optimization level             loose          :
          :   max. optcycles                   200          :
          :   ANC micro-cycles                  20          :
          :   degrees of freedom               210          :
          :.................................................:
          :   RF solver                   davidson          :
          :   write xtbopt.log                true          :
          :   linear?                        false          :
          :   energy convergence         0.5000000E-04 Eh   :
          :   grad. convergence          0.4000000E-02 Eh/α :
          :   maxmium RF displ.          1.0000000          :
          :   Hlow (freq-cutoff)         0.1000000E-01      :
          :   Hmax (freq-cutoff)         5.0000000          :
          :   S6 in model hess.         20.0000000          :
          ...................................................

generating ANC from model Hessian ...
Using Lindh-Hessian (1995)
 Shifting diagonal of input Hessian by    8.5513811414721211E-002
 Lowest  eigenvalues of input Hessian
    0.010000    0.039421    0.000000    0.000000    0.000000    0.000000
    0.000000    0.000000    0.085575    0.085582    0.085677    0.085834
    0.085865    0.086333    0.086417    0.086600    0.087308    0.087357
 Highest eigenvalues
    2.115625    2.121472    2.127095    2.254957    2.260012    2.262569


........................................................................
.............................. CYCLE    1 ..............................
........................................................................

 iter      E             dE          RMSdq      gap      omega  full diag
   1   -100.7914989 -0.100791E+03  0.114E-04    1.82       0.0  T
   2   -100.7914989 -0.678995E-10  0.713E-05    1.82     165.2  T
   3   -100.7914989  0.665210E-10  0.496E-05    1.82     237.5  T
     SCC iter.                  ...        0 min,  0.026 sec
     gradient                   ...        0 min,  0.069 sec
 * total energy  :   -98.4500491 Eh     change       -0.4035485E-08 Eh
   gradient norm :     0.6309320 Eh/α   predicted     0.0000000E+00 (-100.00%)
   displ. norm   :     0.6985800 α      lambda       -0.4022891E+00
   maximum displ.:     0.3153608 α      in ANC's #127, #131, #136, ...

........................................................................
.............................. CYCLE    2 ..............................
........................................................................

 iter      E             dE          RMSdq      gap      omega  full diag
   1   -100.7287757 -0.100729E+03  0.515E-01    1.36       0.0  T
   2   -100.7255209  0.325474E-02  0.468E-01    2.10       1.0  T
   3   -100.7406319 -0.151110E-01  0.208E-01    1.55       1.0  T
   4   -100.7408115 -0.179593E-03  0.101E-01    1.74       1.0  T
   5   -100.7415232 -0.711682E-03  0.244E-02    1.62       1.0  T
   6   -100.7415978 -0.745924E-04  0.706E-03    1.65       1.7  T
   7   -100.7415985 -0.670038E-06  0.404E-03    1.65       2.9  T
   8   -100.7415993 -0.833185E-06  0.102E-03    1.65      11.5  T
   9   -100.7415994 -0.457501E-07  0.355E-04    1.65      33.2  T
  10   -100.7415994 -0.200501E-08  0.156E-04    1.65      75.5  T
     SCC iter.                  ...        0 min,  0.081 sec
     gradient                   ...        0 min,  0.070 sec
 * total energy  :   -98.7825610 Eh     change       -0.3325119E+00 Eh
   gradient norm :     0.3900124 Eh/α   predicted    -0.2993156E+00 (  -9.98%)
   displ. norm   :     0.7273734 α      lambda       -0.2685663E+00
   maximum displ.:     0.3230780 α      in ANC's #127, #136, #131, ...

........................................................................
.............................. CYCLE    3 ..............................
........................................................................

 iter      E             dE          RMSdq      gap      omega  full diag
   1   -100.6462641 -0.100646E+03  0.516E-01    1.31       0.0  T
   2   -100.6458783  0.385722E-03  0.427E-01    1.80       1.0  T
   3   -100.6567279 -0.108496E-01  0.202E-01    1.38       1.0  T
   4   -100.6558699  0.857996E-03  0.141E-01    1.67       1.0  T
   5   -100.6580953 -0.222537E-02  0.263E-02    1.49       1.0  T
   6   -100.6581632 -0.679116E-04  0.892E-03    1.51       1.3  T
   7   -100.6581662 -0.294108E-05  0.421E-03    1.51       2.8  T
   8   -100.6581670 -0.803936E-06  0.115E-03    1.50      10.3  T
   9   -100.6581670 -0.349696E-07  0.499E-04    1.50      23.6  T
  10   -100.6581670 -0.804455E-08  0.167E-04    1.50      70.7  T
     SCC iter.                  ...        0 min,  0.081 sec
     gradient                   ...        0 min,  0.069 sec
 * total energy  :   -98.9933108 Eh     change       -0.2107498E+00 Eh
   gradient norm :     0.2195647 Eh/α   predicted    -0.2053288E+00 (  -2.57%)
   displ. norm   :     0.6614260 α      lambda       -0.1392277E+00
   maximum displ.:     0.2593583 α      in ANC's #127, #131, #136, ...

........................................................................
.............................. CYCLE    4 ..............................
........................................................................

 iter      E             dE          RMSdq      gap      omega  full diag
   1   -100.5796379 -0.100580E+03  0.391E-01    1.35       0.0  T
   2   -100.5809396 -0.130177E-02  0.281E-01    1.45       1.0  T
   3   -100.5847548 -0.381517E-02  0.133E-01    1.37       1.0  T
   4   -100.5849054 -0.150597E-03  0.554E-02    1.46       1.0  T
   5   -100.5851156 -0.210180E-03  0.251E-02    1.38       1.0  T
   6   -100.5851856 -0.699883E-04  0.109E-02    1.42       1.1  T
   7   -100.5851986 -0.130194E-04  0.285E-03    1.40       4.1  T
   8   -100.5851989 -0.261272E-06  0.137E-03    1.40       8.6  T
   9   -100.5851989 -0.516554E-07  0.507E-04    1.40      23.2  T
  10   -100.5851989 -0.117349E-07  0.138E-04    1.40      85.2  T
     SCC iter.                  ...        0 min,  0.081 sec
     gradient                   ...        0 min,  0.075 sec
 * total energy  :   -99.0982182 Eh     change       -0.1049075E+00 Eh
   gradient norm :     0.1180303 Eh/α   predicted    -0.1000700E+00 (  -4.61%)
   displ. norm   :     0.6240656 α      lambda       -0.6749035E-01
   maximum displ.:     0.2476908 α      in ANC's #2, #127, #114, ...

........................................................................
.............................. CYCLE    5 ..............................
........................................................................

 iter      E             dE          RMSdq      gap      omega  full diag
   1   -100.5512921 -0.100551E+03  0.294E-01    1.28       0.0  T
   2   -100.5526630 -0.137091E-02  0.178E-01    1.32       1.0  T
   3   -100.5533450 -0.681958E-03  0.109E-01    1.38       1.0  T
   4   -100.5541998 -0.854766E-03  0.669E-02    1.29       1.0  T
   5   -100.5543158 -0.115999E-03  0.374E-02    1.38       1.0  T
   6   -100.5544779 -0.162155E-03  0.637E-03    1.33       1.9  T
   7   -100.5544816 -0.369963E-05  0.334E-03    1.34       3.5  T
   8   -100.5544821 -0.531423E-06  0.995E-04    1.34      11.8  T
   9   -100.5544822 -0.252689E-07  0.502E-04    1.34      23.5  T
     SCC iter.                  ...        0 min,  0.073 sec
     gradient                   ...        0 min,  0.069 sec
 * total energy  :   -99.1502573 Eh     change       -0.5203905E-01 Eh
   gradient norm :     0.0868099 Eh/α   predicted    -0.4688750E-01 (  -9.90%)
   displ. norm   :     0.6189289 α      lambda       -0.4172635E-01
   maximum displ.:     0.2855780 α      in ANC's #2, #127, #119, ...

........................................................................
.............................. CYCLE    6 ..............................
........................................................................

 iter      E             dE          RMSdq      gap      omega  full diag
   1   -100.5367862 -0.100537E+03  0.418E-01    1.16       0.0  T
   2   -100.5297533  0.703291E-02  0.359E-01    1.16       1.0  T
   3   -100.5415761 -0.118228E-01  0.190E-01    1.33       1.0  T
   4   -100.5451733 -0.359721E-02  0.109E-01    1.21       1.0  T
   5   -100.5457204 -0.547093E-03  0.183E-02    1.26       1.0  T
   6   -100.5457463 -0.259256E-04  0.101E-02    1.26       1.2  T
   7   -100.5457496 -0.329468E-05  0.408E-03    1.26       2.9  T
   8   -100.5457508 -0.115996E-05  0.241E-03    1.26       4.9  T
   9   -100.5457513 -0.523608E-06  0.796E-04    1.26      14.8  T
  10   -100.5457513 -0.206696E-07  0.250E-04    1.26      47.2  T
     SCC iter.                  ...        0 min,  0.081 sec
     gradient                   ...        0 min,  0.069 sec
 * total energy  :   -99.1838711 Eh     change       -0.3361384E-01 Eh
   gradient norm :     0.0931782 Eh/α   predicted    -0.2885532E-01 ( -14.16%)
   displ. norm   :     0.6626023 α      lambda       -0.3591279E-01
   maximum displ.:     0.3169682 α      in ANC's #2, #119, #127, ...

........................................................................
.............................. CYCLE    7 ..............................
........................................................................

 iter      E             dE          RMSdq      gap      omega  full diag
   1   -100.5530571 -0.100553E+03  0.506E-01    0.90       0.0  T
   2   -100.5391364  0.139207E-01  0.511E-01    0.88       1.0  T
   3   -100.5583497 -0.192133E-01  0.246E-01    0.94       1.0  T
   4   -100.5595506 -0.120095E-02  0.173E-01    0.85       1.0  T
   5   -100.5614100 -0.185941E-02  0.106E-01    0.92       1.0  T
   6   -100.5624450 -0.103496E-02  0.166E-02    0.91       1.0  T
   7   -100.5624755 -0.304642E-04  0.528E-03    0.91       2.2  T
   8   -100.5624764 -0.986564E-06  0.300E-03    0.91       3.9  T
   9   -100.5624771 -0.674511E-06  0.108E-03    0.91      10.9  T
  10   -100.5624772 -0.633332E-07  0.297E-04    0.91      39.6  T
  11   -100.5624772 -0.209722E-08  0.142E-04    0.91      82.8  T
     SCC iter.                  ...        0 min,  0.089 sec
     gradient                   ...        0 min,  0.069 sec
 * total energy  :   -99.2144164 Eh     change       -0.3054526E-01 Eh
   gradient norm :     0.1135653 Eh/α   predicted    -0.2584004E-01 ( -15.40%)
   displ. norm   :     0.6861382 α      lambda       -0.3937517E-01
   maximum displ.:     0.2666028 α      in ANC's #2, #119, #127, ...

........................................................................
.............................. CYCLE    8 ..............................
........................................................................

 iter      E             dE          RMSdq      gap      omega  full diag
   1   -100.5815608 -0.100582E+03  0.531E-01    0.47       0.0  T
   2   -100.5554661  0.260948E-01  0.751E-01    0.69       1.0  T
   3   -100.5936412 -0.381752E-01  0.254E-01    0.42       1.0  T
   4   -100.5954475 -0.180627E-02  0.117E-01    0.42       1.0  T
   5   -100.5939444  0.150304E-02  0.126E-01    0.41       1.0  T
   6   -100.5957892 -0.184477E-02  0.253E-02    0.42       1.0  T
   7   -100.5958662 -0.769653E-04  0.934E-03    0.42       1.3  T
   8   -100.5958721 -0.592258E-05  0.406E-03    0.42       2.9  T
   9   -100.5958730 -0.949072E-06  0.122E-03    0.42       9.7  T
  10   -100.5958731 -0.869924E-07  0.459E-04    0.42      25.7  T
  11   -100.5958731 -0.779610E-08  0.188E-04    0.42      62.6  T
     SCC iter.                  ...        0 min,  0.089 sec
     gradient                   ...        0 min,  0.069 sec
 * total energy  :   -99.2446618 Eh     change       -0.3024547E-01 Eh
   gradient norm :     0.0996501 Eh/α   predicted    -0.2895624E-01 (  -4.26%)
   displ. norm   :     0.4642619 α      lambda       -0.2590120E-01
   maximum displ.:     0.1397912 α      in ANC's #2, #87, #1, ...

........................................................................
.............................. CYCLE    9 ..............................
........................................................................

 iter      E             dE          RMSdq      gap      omega  full diag
   1   -100.6151398 -0.100615E+03  0.409E-01    0.23       0.0  T
   2   -100.6032721  0.118677E-01  0.575E-01    0.36       1.0  T
   3   -100.6266903 -0.234182E-01  0.148E-01    0.21       1.0  T
   4   -100.6271046 -0.414316E-03  0.828E-02    0.22       1.0  T
   5   -100.6269628  0.141811E-03  0.429E-02    0.22       1.0  T
   6   -100.6271413 -0.178448E-03  0.289E-02    0.22       1.0  T
   7   -100.6272171 -0.757994E-04  0.889E-03    0.22       1.3  T
   8   -100.6272219 -0.481264E-05  0.430E-03    0.22       2.7  T
   9   -100.6272229 -0.964918E-06  0.106E-03    0.22      11.1  T
  10   -100.6272229 -0.454366E-07  0.367E-04    0.22      32.1  T
  11   -100.6272229 -0.413182E-08  0.148E-04    0.22      79.8  T
     SCC iter.                  ...        0 min,  0.089 sec
     gradient                   ...        0 min,  0.069 sec
 * total energy  :   -99.2597177 Eh     change       -0.1505588E-01 Eh
   gradient norm :     0.0697837 Eh/α   predicted    -0.1574199E-01 (   4.56%)
   displ. norm   :     0.2561685 α      lambda       -0.1038195E-01
   maximum displ.:     0.0929761 α      in ANC's #1, #54, #56, ...

........................................................................
.............................. CYCLE   10 ..............................
........................................................................

 iter      E             dE          RMSdq      gap      omega  full diag
   1   -100.6372567 -0.100637E+03  0.136E-01    0.23       0.0  T
   2   -100.6369789  0.277794E-03  0.971E-02    0.22       1.0  T
   3   -100.6368181  0.160867E-03  0.990E-02    0.25       1.0  T
   4   -100.6376462 -0.828156E-03  0.390E-02    0.22       1.0  T
   5   -100.6377118 -0.655665E-04  0.124E-02    0.23       1.0  T
   6   -100.6377239 -0.121236E-04  0.516E-03    0.22       2.3  T
   7   -100.6377252 -0.129376E-05  0.206E-03    0.22       5.7  T
   8   -100.6377253 -0.904013E-07  0.145E-03    0.22       8.2  T
   9   -100.6377255 -0.212203E-06  0.239E-04    0.22      49.2  T
  10   -100.6377255 -0.187809E-08  0.129E-04    0.22      91.1  T
     SCC iter.                  ...        0 min,  0.081 sec
     gradient                   ...        0 min,  0.069 sec
 * total energy  :   -99.2677927 Eh     change       -0.8074937E-02 Eh
   gradient norm :     0.0501231 Eh/α   predicted    -0.5531635E-02 ( -31.50%)
   displ. norm   :     0.3920369 α      lambda       -0.1122208E-01
   maximum displ.:     0.1485231 α      in ANC's #54, #56, #37, ...

........................................................................
.............................. CYCLE   11 ..............................
........................................................................

 iter      E             dE          RMSdq      gap      omega  full diag
   1   -100.6451091 -0.100645E+03  0.185E-01    0.25       0.0  T
   2   -100.6446979  0.411167E-03  0.128E-01    0.22       1.0  T
   3   -100.6437873  0.910633E-03  0.143E-01    0.29       1.0  T
   4   -100.6455063 -0.171903E-02  0.497E-02    0.22       1.0  T
   5   -100.6456466 -0.140246E-03  0.108E-02    0.23       1.1  T
   6   -100.6456571 -0.105619E-04  0.503E-03    0.23       2.3  T
   7   -100.6456577 -0.550304E-06  0.214E-03    0.23       5.5  T
   8   -100.6456580 -0.284008E-06  0.157E-03    0.23       7.5  T
   9   -100.6456582 -0.200930E-06  0.267E-04    0.23      44.2  T
  10   -100.6456582 -0.249405E-08  0.149E-04    0.23      79.0  T
     SCC iter.                  ...        0 min,  0.081 sec
     gradient                   ...        0 min,  0.069 sec
 * total energy  :   -99.2753596 Eh     change       -0.7566972E-02 Eh
   gradient norm :     0.0450161 Eh/α   predicted    -0.6473440E-02 ( -14.45%)
   displ. norm   :     0.3742019 α      lambda       -0.6028515E-02
   maximum displ.:     0.1812844 α      in ANC's #1, #2, #54, ...

........................................................................
.............................. CYCLE   12 ..............................
........................................................................

 iter      E             dE          RMSdq      gap      omega  full diag
   1   -100.6513158 -0.100651E+03  0.186E-01    0.30       0.0  T
   2   -100.6493269  0.198895E-02  0.201E-01    0.21       1.0  T
   3   -100.6520681 -0.274120E-02  0.990E-02    0.28       1.0  T
   4   -100.6524846 -0.416500E-03  0.461E-02    0.23       1.0  T
   5   -100.6525881 -0.103522E-03  0.132E-02    0.23       1.0  T
   6   -100.6526092 -0.210760E-04  0.426E-03    0.24       2.8  T
   7   -100.6526099 -0.718721E-06  0.314E-03    0.24       3.8  T
   8   -100.6526103 -0.450038E-06  0.125E-03    0.24       9.4  T
   9   -100.6526104 -0.961664E-07  0.315E-04    0.24      37.4  T
  10   -100.6526104 -0.469204E-08  0.157E-04    0.24      75.0  T
     SCC iter.                  ...        0 min,  0.081 sec
     gradient                   ...        0 min,  0.070 sec
 * total energy  :   -99.2797361 Eh     change       -0.4376513E-02 Eh
   gradient norm :     0.0445694 Eh/α   predicted    -0.3436345E-02 ( -21.48%)
   displ. norm   :     0.3857348 α      lambda       -0.5568604E-02
   maximum displ.:     0.1800003 α      in ANC's #2, #37, #54, ...

........................................................................
.............................. CYCLE   13 ..............................
........................................................................

 iter      E             dE          RMSdq      gap      omega  full diag
   1   -100.6568433 -0.100657E+03  0.174E-01    0.31       0.0  T
   2   -100.6552064  0.163691E-02  0.184E-01    0.19       1.0  T
   3   -100.6574609 -0.225456E-02  0.977E-02    0.31       1.0  T
   4   -100.6579256 -0.464685E-03  0.467E-02    0.24       1.0  T
   5   -100.6580214 -0.957492E-04  0.165E-02    0.25       1.0  T
   6   -100.6580454 -0.240449E-04  0.455E-03    0.25       2.6  T
   7   -100.6580463 -0.933321E-06  0.194E-03    0.25       6.1  T
   8   -100.6580464 -0.266789E-07  0.111E-03    0.25      10.6  T
   9   -100.6580464 -0.631898E-07  0.546E-04    0.25      21.6  T
  10   -100.6580464 -0.275924E-07  0.176E-04    0.25      66.9  T
     SCC iter.                  ...        0 min,  0.081 sec
     gradient                   ...        0 min,  0.075 sec
 * total energy  :   -99.2826652 Eh     change       -0.2929089E-02 Eh
   gradient norm :     0.0288007 Eh/α   predicted    -0.3198588E-02 (   9.20%)
   displ. norm   :     0.1886534 α      lambda       -0.2435122E-02
   maximum displ.:     0.1543089 α      in ANC's #1, #2, #90, ...

........................................................................
.............................. CYCLE   14 ..............................
........................................................................

 iter      E             dE          RMSdq      gap      omega  full diag
   1   -100.6626755 -0.100663E+03  0.863E-02    0.30       0.0  T
   2   -100.6621293  0.546186E-03  0.101E-01    0.21       1.0  T
   3   -100.6628241 -0.694735E-03  0.447E-02    0.29       1.0  T
   4   -100.6628704 -0.463603E-04  0.257E-02    0.27       1.0  T
   5   -100.6629038 -0.333621E-04  0.917E-03    0.27       1.3  T
   6   -100.6629128 -0.901880E-05  0.278E-03    0.27       4.2  T
   7   -100.6629131 -0.270986E-06  0.128E-03    0.27       9.2  T
   8   -100.6629131 -0.596544E-07  0.282E-04    0.27      41.7  T
   9   -100.6629132 -0.320136E-08  0.116E-04    0.27     101.4  T
     SCC iter.                  ...        0 min,  0.073 sec
     gradient                   ...        0 min,  0.069 sec
 * total energy  :   -99.2840958 Eh     change       -0.1430570E-02 Eh
   gradient norm :     0.0196804 Eh/α   predicted    -0.1260902E-02 ( -11.86%)
   displ. norm   :     0.1134076 α      lambda       -0.1237194E-02
   maximum displ.:     0.0362106 α      in ANC's #2, #54, #27, ...

........................................................................
.............................. CYCLE   15 ..............................
........................................................................

 iter      E             dE          RMSdq      gap      omega  full diag
   1   -100.6643713 -0.100664E+03  0.548E-02    0.28       0.0  T
   2   -100.6643549  0.164139E-04  0.388E-02    0.25       1.0  T
   3   -100.6642728  0.820700E-04  0.430E-02    0.30       1.0  T
   4   -100.6644123 -0.139445E-03  0.122E-02    0.27       1.0  T
   5   -100.6644187 -0.643869E-05  0.541E-03    0.27       2.2  T
   6   -100.6644208 -0.213634E-05  0.169E-03    0.27       7.0  T
   7   -100.6644210 -0.192293E-06  0.884E-04    0.27      13.3  T
   8   -100.6644211 -0.380729E-07  0.299E-04    0.27      39.5  T
     SCC iter.                  ...        0 min,  0.066 sec
     gradient                   ...        0 min,  0.070 sec
 * total energy  :   -99.2848682 Eh     change       -0.7723550E-03 Eh
   gradient norm :     0.0130572 Eh/α   predicted    -0.6265557E-03 ( -18.88%)
   displ. norm   :     0.1347961 α      lambda       -0.7242117E-03
   maximum displ.:     0.0458097 α      in ANC's #2, #37, #23, ...

........................................................................
.............................. CYCLE   16 ..............................
........................................................................

 iter      E             dE          RMSdq      gap      omega  full diag
   1   -100.6647895 -0.100665E+03  0.617E-02    0.31       0.0  T
   2   -100.6646618  0.127723E-03  0.575E-02    0.26       1.0  T
   3   -100.6648098 -0.148044E-03  0.372E-02    0.32       1.0  T
   4   -100.6648666 -0.567409E-04  0.198E-02    0.29       1.0  T
   5   -100.6648865 -0.199176E-04  0.744E-03    0.29       1.6  T
   6   -100.6648917 -0.523447E-05  0.152E-03    0.29       7.8  T
   7   -100.6648919 -0.151036E-06  0.756E-04    0.29      15.6  T
   8   -100.6648919 -0.154735E-07  0.385E-04    0.29      30.6  T
     SCC iter.                  ...        0 min,  0.065 sec
     gradient                   ...        0 min,  0.069 sec
 * total energy  :   -99.2853928 Eh     change       -0.5246259E-03 Eh
   gradient norm :     0.0124861 Eh/α   predicted    -0.3686874E-03 ( -29.72%)
   displ. norm   :     0.1597631 α      lambda       -0.6779620E-03
   maximum displ.:     0.0498801 α      in ANC's #27, #23, #2, ...

........................................................................
.............................. CYCLE   17 ..............................
........................................................................

 iter      E             dE          RMSdq      gap      omega  full diag
   1   -100.6645845 -0.100665E+03  0.570E-02    0.33       0.0  T
   2   -100.6645013  0.832104E-04  0.491E-02    0.28       1.0  T
   3   -100.6645756 -0.743240E-04  0.361E-02    0.34       1.0  T
   4   -100.6646200 -0.444520E-04  0.187E-02    0.31       1.0  T
   5   -100.6646437 -0.237014E-04  0.559E-03    0.31       2.1  T
   6   -100.6646467 -0.297019E-05  0.133E-03    0.31       8.9  T
   7   -100.6646468 -0.832771E-07  0.769E-04    0.31      15.3  T
   8   -100.6646468 -0.231493E-07  0.377E-04    0.31      31.3  T
     SCC iter.                  ...        0 min,  0.066 sec
     gradient                   ...        0 min,  0.069 sec
 * total energy  :   -99.2858604 Eh     change       -0.4676416E-03 Eh
   gradient norm :     0.0106436 Eh/α   predicted    -0.3476357E-03 ( -25.66%)
   displ. norm   :     0.1580733 α      lambda       -0.4616314E-03
   maximum displ.:     0.0561853 α      in ANC's #2, #23, #27, ...

........................................................................
.............................. CYCLE   18 ..............................
........................................................................

 iter      E             dE          RMSdq      gap      omega  full diag
   1   -100.6650337 -0.100665E+03  0.431E-02    0.34       0.0  T
   2   -100.6649647  0.689309E-04  0.397E-02    0.30       1.0  T
   3   -100.6650168 -0.520455E-04  0.288E-02    0.35       1.0  T
   4   -100.6650578 -0.410099E-04  0.100E-02    0.33       1.2  T
   5   -100.6650649 -0.710005E-05  0.363E-03    0.33       3.2  T
   6   -100.6650661 -0.120934E-05  0.826E-04    0.33      14.3  T
   7   -100.6650661 -0.234580E-07  0.491E-04    0.33      24.0  T
   8   -100.6650661 -0.112947E-07  0.180E-04    0.33      65.5  T
     SCC iter.                  ...        0 min,  0.066 sec
     gradient                   ...        0 min,  0.069 sec
 * total energy  :   -99.2862054 Eh     change       -0.3449936E-03 Eh
   gradient norm :     0.0088977 Eh/α   predicted    -0.2365978E-03 ( -31.42%)
   displ. norm   :     0.1998557 α      lambda       -0.5144369E-03
   maximum displ.:     0.0686155 α      in ANC's #27, #23, #2, ...

........................................................................
.............................. CYCLE   19 ..............................
........................................................................

 iter      E             dE          RMSdq      gap      omega  full diag
   1   -100.6659817 -0.100666E+03  0.469E-02    0.35       0.0  T
   2   -100.6659249  0.568267E-04  0.387E-02    0.32       1.0  T
   3   -100.6659062  0.187010E-04  0.369E-02    0.36       1.0  T
   4   -100.6659981 -0.919222E-04  0.477E-03    0.34       2.5  T
   5   -100.6660013 -0.323638E-05  0.164E-03    0.34       7.2  T
   6   -100.6660015 -0.172386E-06  0.754E-04    0.34      15.6  T
   7   -100.6660015 -0.171619E-07  0.398E-04    0.34      29.6  T
     SCC iter.                  ...        0 min,  0.058 sec
     gradient                   ...        0 min,  0.069 sec
 * total energy  :   -99.2865751 Eh     change       -0.3697134E-03 Eh
   gradient norm :     0.0080310 Eh/α   predicted    -0.2674968E-03 ( -27.65%)
   displ. norm   :     0.1980452 α      lambda       -0.4153898E-03
   maximum displ.:     0.0724388 α      in ANC's #2, #27, #23, ...

........................................................................
.............................. CYCLE   20 ..............................
........................................................................

 iter      E             dE          RMSdq      gap      omega  full diag
   1   -100.6665181 -0.100667E+03  0.475E-02    0.36       0.0  T
   2   -100.6664641  0.540308E-04  0.393E-02    0.33       1.0  T
   3   -100.6664393  0.247974E-04  0.366E-02    0.37       1.0  T
   4   -100.6665312 -0.919138E-04  0.744E-03    0.34       1.6  T
   5   -100.6665360 -0.480397E-05  0.138E-03    0.35       8.6  T
   6   -100.6665360 -0.101327E-07  0.795E-04    0.35      14.8  T
   7   -100.6665361 -0.454396E-07  0.407E-04    0.35      29.0  T
     SCC iter.                  ...        0 min,  0.058 sec
     gradient                   ...        0 min,  0.069 sec
 * total energy  :   -99.2868708 Eh     change       -0.2956542E-03 Eh
   gradient norm :     0.0082271 Eh/α   predicted    -0.2158438E-03 ( -26.99%)
   displ. norm   :     0.1695625 α      lambda       -0.3135350E-03
   maximum displ.:     0.0621573 α      in ANC's #1, #27, #23, ...
 * RMSD in coord.:     0.5753737 α      energy gain  -0.8368217E+00 Eh

generating ANC from model Hessian ...
Using Lindh-Hessian (1995)
 Shifting diagonal of input Hessian by    1.0146618461563258E-002
 Lowest  eigenvalues of input Hessian
    0.010000    0.010110    0.000000    0.000000    0.000000    0.000000
    0.000000    0.000000    0.010199    0.010203    0.010307    0.010403
    0.010478    0.010790    0.010872    0.011162    0.011271    0.011779
 Highest eigenvalues
    2.042758    2.046715    2.104953    2.185391    2.186174    2.201684


........................................................................
.............................. CYCLE   21 ..............................
........................................................................

 iter      E             dE          RMSdq      gap      omega  full diag
   1   -100.6674853 -0.100667E+03  0.441E-02    0.35       0.0  T
   2   -100.6674753  0.100415E-04  0.295E-02    0.34       1.0  T
   3   -100.6673582  0.117103E-03  0.386E-02    0.38       1.0  T
   4   -100.6674874 -0.129250E-03  0.724E-03    0.35       1.6  T
   5   -100.6674917 -0.426588E-05  0.232E-03    0.35       5.1  T
   6   -100.6674919 -0.252194E-06  0.823E-04    0.35      14.3  T
   7   -100.6674920 -0.789147E-08  0.575E-04    0.35      20.5  T
     SCC iter.                  ...        0 min,  0.057 sec
     gradient                   ...        0 min,  0.069 sec
 * total energy  :   -99.2870878 Eh     change       -0.2170067E-03 Eh
   gradient norm :     0.0069482 Eh/α   predicted     0.0000000E+00 (-100.00%)
   displ. norm   :     0.1222893 α      lambda       -0.3179195E-03
   maximum displ.:     0.0491786 α      in ANC's #14, #38, #2, ...

........................................................................
.............................. CYCLE   22 ..............................
........................................................................

 iter      E             dE          RMSdq      gap      omega  full diag
   1   -100.6679252 -0.100668E+03  0.282E-02    0.35       0.0  T
   2   -100.6679226  0.268593E-05  0.180E-02    0.36       1.0  T
   3   -100.6678800  0.425697E-04  0.237E-02    0.33       1.0  T
   4   -100.6679256 -0.455709E-04  0.529E-03    0.35       2.2  T
   5   -100.6679279 -0.238239E-05  0.111E-03    0.35      10.6  T
   6   -100.6679280 -0.576392E-07  0.698E-04    0.35      16.9  T
   7   -100.6679280 -0.255584E-07  0.263E-04    0.35      44.8  T
     SCC iter.                  ...        0 min,  0.058 sec
     gradient                   ...        0 min,  0.069 sec
 * total energy  :   -99.2873376 Eh     change       -0.2497718E-03 Eh
   gradient norm :     0.0037364 Eh/α   predicted    -0.1622635E-03 ( -35.04%)
   displ. norm   :     0.2419823 α      lambda       -0.3581703E-03
   maximum displ.:     0.0908033 α      in ANC's #2, #14, #12, ...

........................................................................
.............................. CYCLE   23 ..............................
........................................................................

 iter      E             dE          RMSdq      gap      omega  full diag
   1   -100.6683255 -0.100668E+03  0.476E-02    0.35       0.0  T
   2   -100.6683141  0.114373E-04  0.307E-02    0.36       1.0  T
   3   -100.6681791  0.134946E-03  0.424E-02    0.32       1.0  T
   4   -100.6683282 -0.149081E-03  0.675E-03    0.36       1.7  T
   5   -100.6683324 -0.420991E-05  0.192E-03    0.35       6.1  T
   6   -100.6683327 -0.290905E-06  0.113E-03    0.35      10.4  T
   7   -100.6683328 -0.744616E-07  0.439E-04    0.35      26.8  T
   8   -100.6683328 -0.722227E-08  0.235E-04    0.35      50.1  T
     SCC iter.                  ...        0 min,  0.066 sec
     gradient                   ...        0 min,  0.072 sec
 * total energy  :   -99.2875749 Eh     change       -0.2373204E-03 Eh
   gradient norm :     0.0026485 Eh/α   predicted    -0.1895759E-03 ( -20.12%)
   displ. norm   :     0.2099918 α      lambda       -0.1636115E-03
   maximum displ.:     0.0946171 α      in ANC's #2, #11, #12, ...

........................................................................
.............................. CYCLE   24 ..............................
........................................................................

 iter      E             dE          RMSdq      gap      omega  full diag
   1   -100.6687163 -0.100669E+03  0.351E-02    0.35       0.0  T
   2   -100.6687068  0.944841E-05  0.238E-02    0.36       1.0  T
   3   -100.6686445  0.622744E-04  0.310E-02    0.33       1.0  T
   4   -100.6687182 -0.736344E-04  0.537E-03    0.36       2.2  T
   5   -100.6687214 -0.326874E-05  0.147E-03    0.35       8.0  T
   6   -100.6687216 -0.116038E-06  0.854E-04    0.35      13.8  T
   7   -100.6687216 -0.359314E-07  0.435E-04    0.35      27.1  T
     SCC iter.                  ...        0 min,  0.058 sec
     gradient                   ...        0 min,  0.069 sec
 * total energy  :   -99.2877055 Eh     change       -0.1305765E-03 Eh
   gradient norm :     0.0036784 Eh/α   predicted    -0.8541362E-04 ( -34.59%)
   displ. norm   :     0.3347934 α      lambda       -0.2334305E-03
   maximum displ.:     0.1587536 α      in ANC's #2, #11, #6, ...

........................................................................
.............................. CYCLE   25 ..............................
........................................................................

 iter      E             dE          RMSdq      gap      omega  full diag
   1   -100.6692508 -0.100669E+03  0.491E-02    0.35       0.0  T
   2   -100.6692246  0.262224E-04  0.349E-02    0.37       1.0  T
   3   -100.6691397  0.848427E-04  0.410E-02    0.33       1.0  T
   4   -100.6692546 -0.114834E-03  0.937E-03    0.36       1.3  T
   5   -100.6692651 -0.105846E-04  0.206E-03    0.35       5.7  T
   6   -100.6692653 -0.159204E-06  0.118E-03    0.35      10.0  T
   7   -100.6692654 -0.768544E-07  0.609E-04    0.35      19.3  T
   8   -100.6692654 -0.201775E-07  0.304E-04    0.35      38.8  T
     SCC iter.                  ...        0 min,  0.066 sec
     gradient                   ...        0 min,  0.069 sec
 * total energy  :   -99.2878917 Eh     change       -0.1862799E-03 Eh
   gradient norm :     0.0041474 Eh/α   predicted    -0.1297980E-03 ( -30.32%)
   displ. norm   :     0.3992024 α      lambda       -0.2497968E-03
   maximum displ.:     0.1993396 α      in ANC's #2, #1, #11, ...

........................................................................
.............................. CYCLE   26 ..............................
........................................................................

 iter      E             dE          RMSdq      gap      omega  full diag
   1   -100.6696395 -0.100670E+03  0.557E-02    0.34       0.0  T
   2   -100.6695830  0.565112E-04  0.429E-02    0.38       1.0  T
   3   -100.6695389  0.441221E-04  0.432E-02    0.33       1.0  T
   4   -100.6696490 -0.110183E-03  0.120E-02    0.36       1.0  T
   5   -100.6696666 -0.175874E-04  0.243E-03    0.36       4.8  T
   6   -100.6696668 -0.197361E-06  0.151E-03    0.36       7.8  T
   7   -100.6696670 -0.139346E-06  0.744E-04    0.36      15.8  T
   8   -100.6696670 -0.303412E-07  0.340E-04    0.36      34.6  T
     SCC iter.                  ...        0 min,  0.066 sec
     gradient                   ...        0 min,  0.070 sec
 * total energy  :   -99.2880941 Eh     change       -0.2023149E-03 Eh
   gradient norm :     0.0039983 Eh/α   predicted    -0.1448064E-03 ( -28.43%)
   displ. norm   :     0.4402768 α      lambda       -0.2683771E-03
   maximum displ.:     0.2288508 α      in ANC's #2, #1, #6, ...

........................................................................
.............................. CYCLE   27 ..............................
........................................................................

 iter      E             dE          RMSdq      gap      omega  full diag
   1   -100.6700583 -0.100670E+03  0.579E-02    0.34       0.0  T
   2   -100.6699402  0.118084E-03  0.519E-02    0.39       1.0  T
   3   -100.6700179 -0.776954E-04  0.392E-02    0.33       1.0  T
   4   -100.6700816 -0.637693E-04  0.146E-02    0.36       1.0  T
   5   -100.6701077 -0.260615E-04  0.273E-03    0.35       4.3  T
   6   -100.6701081 -0.421376E-06  0.164E-03    0.35       7.2  T
   7   -100.6701083 -0.137990E-06  0.782E-04    0.35      15.1  T
   8   -100.6701083 -0.302967E-07  0.357E-04    0.35      33.0  T
     SCC iter.                  ...        0 min,  0.066 sec
     gradient                   ...        0 min,  0.069 sec
 * total energy  :   -99.2883267 Eh     change       -0.2326059E-03 Eh
   gradient norm :     0.0038288 Eh/α   predicted    -0.1602103E-03 ( -31.12%)
   displ. norm   :     0.5534324 α      lambda       -0.3850416E-03
   maximum displ.:     0.2958547 α      in ANC's #2, #1, #6, ...

........................................................................
.............................. CYCLE   28 ..............................
........................................................................

 iter      E             dE          RMSdq      gap      omega  full diag
   1   -100.6704030 -0.100670E+03  0.753E-02    0.32       0.0  T
   2   -100.6700931  0.309947E-03  0.774E-02    0.40       1.0  T
   3   -100.6704253 -0.332253E-03  0.448E-02    0.32       1.0  T
   4   -100.6704711 -0.457346E-04  0.215E-02    0.35       1.0  T
   5   -100.6705250 -0.539207E-04  0.395E-03    0.34       3.0  T
   6   -100.6705261 -0.116489E-05  0.218E-03    0.35       5.4  T
   7   -100.6705264 -0.208159E-06  0.974E-04    0.34      12.1  T
   8   -100.6705264 -0.467684E-07  0.424E-04    0.34      27.8  T
     SCC iter.                  ...        0 min,  0.066 sec
     gradient                   ...        0 min,  0.069 sec
 * total energy  :   -99.2886886 Eh     change       -0.3619366E-03 Eh
   gradient norm :     0.0053857 Eh/α   predicted    -0.2514885E-03 ( -30.52%)
   displ. norm   :     0.7121044 α      lambda       -0.6532726E-03
   maximum displ.:     0.3862810 α      in ANC's #2, #1, #6, ...

........................................................................
.............................. CYCLE   29 ..............................
........................................................................

 iter      E             dE          RMSdq      gap      omega  full diag
   1   -100.6705167 -0.100671E+03  0.107E-01    0.28       0.0  T
   2   -100.6697388  0.777922E-03  0.119E-01    0.41       1.0  T
   3   -100.6706857 -0.946953E-03  0.569E-02    0.29       1.0  T
   4   -100.6707022 -0.164898E-04  0.334E-02    0.34       1.0  T
   5   -100.6708247 -0.122464E-03  0.621E-03    0.32       1.9  T
   6   -100.6708280 -0.331102E-05  0.290E-03    0.32       4.1  T
   7   -100.6708283 -0.336407E-06  0.127E-03    0.32       9.3  T
   8   -100.6708284 -0.773512E-07  0.535E-04    0.32      22.0  T
   9   -100.6708284 -0.209849E-07  0.196E-04    0.32      60.2  T
     SCC iter.                  ...        0 min,  0.074 sec
     gradient                   ...        0 min,  0.069 sec
 * total energy  :   -99.2892937 Eh     change       -0.6051263E-03 Eh
   gradient norm :     0.0095513 Eh/α   predicted    -0.4922791E-03 ( -18.65%)
   displ. norm   :     0.7054696 α      lambda       -0.9024442E-03
   maximum displ.:     0.3716082 α      in ANC's #2, #1, #6, ...

........................................................................
.............................. CYCLE   30 ..............................
........................................................................

 iter      E             dE          RMSdq      gap      omega  full diag
   1   -100.6706870 -0.100671E+03  0.126E-01    0.24       0.0  T
   2   -100.6696344  0.105263E-02  0.140E-01    0.41       1.0  T
   3   -100.6709501 -0.131572E-02  0.654E-02    0.26       1.0  T
   4   -100.6709546 -0.452743E-05  0.411E-02    0.31       1.0  T
   5   -100.6711263 -0.171604E-03  0.707E-03    0.30       1.7  T
   6   -100.6711306 -0.431630E-05  0.315E-03    0.30       3.7  T
   7   -100.6711310 -0.428499E-06  0.143E-03    0.30       8.2  T
   8   -100.6711311 -0.106009E-06  0.546E-04    0.30      21.6  T
   9   -100.6711311 -0.169025E-07  0.230E-04    0.30      51.1  T
     SCC iter.                  ...        0 min,  0.073 sec
     gradient                   ...        0 min,  0.069 sec
 * total energy  :   -99.2899835 Eh     change       -0.6897430E-03 Eh
   gradient norm :     0.0141418 Eh/α   predicted    -0.6757898E-03 (  -2.02%)
   displ. norm   :     0.5173614 α      lambda       -0.7434178E-03
   maximum displ.:     0.2890220 α      in ANC's #2, #1, #6, ...

........................................................................
.............................. CYCLE   31 ..............................
........................................................................

 iter      E             dE          RMSdq      gap      omega  full diag
   1   -100.6693243 -0.100669E+03  0.859E-02    0.23       0.0  T
   2   -100.6688176  0.506641E-03  0.974E-02    0.36       1.0  T
   3   -100.6694719 -0.654300E-03  0.432E-02    0.25       1.0  T
   4   -100.6694683  0.356215E-05  0.282E-02    0.29       1.0  T
   5   -100.6695491 -0.807842E-04  0.549E-03    0.28       2.1  T
   6   -100.6695517 -0.254090E-05  0.236E-03    0.28       5.0  T
   7   -100.6695519 -0.235799E-06  0.122E-03    0.28       9.7  T
   8   -100.6695520 -0.681009E-07  0.385E-04    0.28      30.6  T
   9   -100.6695520 -0.128280E-07  0.156E-04    0.28      75.5  T
     SCC iter.                  ...        0 min,  0.073 sec
     gradient                   ...        0 min,  0.069 sec
 * total energy  :   -99.2906062 Eh     change       -0.6227638E-03 Eh
   gradient norm :     0.0144247 Eh/α   predicted    -0.4712056E-03 ( -24.34%)
   displ. norm   :     0.5444337 α      lambda       -0.1719941E-02
   maximum displ.:     0.2601686 α      in ANC's #20, #12, #2, ...

........................................................................
.............................. CYCLE   32 ..............................
........................................................................

 iter      E             dE          RMSdq      gap      omega  full diag
   1   -100.6741100 -0.100674E+03  0.974E-02    0.20       0.0  T
   2   -100.6735926  0.517407E-03  0.108E-01    0.34       1.0  T
   3   -100.6742909 -0.698329E-03  0.466E-02    0.22       1.0  T
   4   -100.6742754  0.155592E-04  0.352E-02    0.27       1.0  T
   5   -100.6743732 -0.978930E-04  0.473E-03    0.25       2.5  T
   6   -100.6743747 -0.148364E-05  0.199E-03    0.25       5.9  T
   7   -100.6743748 -0.629548E-07  0.107E-03    0.25      11.1  T
   8   -100.6743748 -0.210826E-07  0.757E-04    0.25      15.6  T
   9   -100.6743749 -0.507519E-07  0.167E-04    0.25      70.4  T
     SCC iter.                  ...        0 min,  0.073 sec
     gradient                   ...        0 min,  0.069 sec
 * total energy  :   -99.2905675 Eh     change        0.3872413E-04 Eh
   gradient norm :     0.0225995 Eh/α   predicted    -0.1114967E-02 (*******%)
   displ. norm   :     0.4843544 α      lambda       -0.2325047E-02
   maximum displ.:     0.2910523 α      in ANC's #2, #1, #4, ...

........................................................................
.............................. CYCLE   33 ..............................
........................................................................

 iter      E             dE          RMSdq      gap      omega  full diag
   1   -100.6715404 -0.100672E+03  0.789E-02    0.24       0.0  T
   2   -100.6713924  0.147986E-03  0.618E-02    0.27       1.0  T
   3   -100.6714616 -0.691949E-04  0.525E-02    0.23       1.0  T
   4   -100.6715967 -0.135111E-03  0.156E-02    0.26       1.0  T
   5   -100.6716274 -0.306918E-04  0.545E-03    0.24       2.2  T
   6   -100.6716293 -0.197635E-05  0.174E-03    0.25       6.8  T
   7   -100.6716294 -0.725110E-07  0.103E-03    0.25      11.5  T
   8   -100.6716295 -0.640915E-07  0.276E-04    0.25      42.6  T
   9   -100.6716295 -0.499367E-08  0.140E-04    0.25      84.0  T
     SCC iter.                  ...        0 min,  0.073 sec
     gradient                   ...        0 min,  0.069 sec
 * total energy  :   -99.2918615 Eh     change       -0.1294025E-02 Eh
   gradient norm :     0.0127438 Eh/α   predicted    -0.1435264E-02 (  10.91%)
   displ. norm   :     0.4570911 α      lambda       -0.5309348E-03
   maximum displ.:     0.2616632 α      in ANC's #2, #1, #4, ...

........................................................................
.............................. CYCLE   34 ..............................
........................................................................

 iter      E             dE          RMSdq      gap      omega  full diag
   1   -100.6706413 -0.100671E+03  0.661E-02    0.20       0.0  T
   2   -100.6702916  0.349711E-03  0.801E-02    0.30       1.0  T
   3   -100.6707801 -0.488513E-03  0.301E-02    0.22       1.0  T
   4   -100.6707623  0.178475E-04  0.219E-02    0.25       1.0  T
   5   -100.6708136 -0.513057E-04  0.629E-03    0.23       1.9  T
   6   -100.6708168 -0.324584E-05  0.162E-03    0.23       7.3  T
   7   -100.6708169 -0.806535E-07  0.116E-03    0.23      10.1  T
   8   -100.6708170 -0.548613E-07  0.350E-04    0.23      33.6  T
   9   -100.6708170 -0.551032E-08  0.158E-04    0.23      74.6  T
     SCC iter.                  ...        0 min,  0.073 sec
     gradient                   ...        0 min,  0.069 sec
 * total energy  :   -99.2922333 Eh     change       -0.3718079E-03 Eh
   gradient norm :     0.0088997 Eh/α   predicted    -0.3209386E-03 ( -13.68%)
   displ. norm   :     0.3594881 α      lambda       -0.4349218E-03
   maximum displ.:     0.2038265 α      in ANC's #2, #1, #4, ...

........................................................................
.............................. CYCLE   35 ..............................
........................................................................

 iter      E             dE          RMSdq      gap      omega  full diag
   1   -100.6720671 -0.100672E+03  0.546E-02    0.19       0.0  T
   2   -100.6718391  0.227922E-03  0.663E-02    0.28       1.0  T
   3   -100.6721641 -0.324998E-03  0.237E-02    0.21       1.0  T
   4   -100.6721516  0.125022E-04  0.188E-02    0.23       1.0  T
   5   -100.6721847 -0.330716E-04  0.529E-03    0.22       2.2  T
   6   -100.6721874 -0.267756E-05  0.152E-03    0.22       7.7  T
   7   -100.6721875 -0.971618E-07  0.771E-04    0.22      15.3  T
   8   -100.6721875 -0.212106E-07  0.304E-04    0.22      38.8  T
     SCC iter.                  ...        0 min,  0.066 sec
     gradient                   ...        0 min,  0.075 sec
 * total energy  :   -99.2925709 Eh     change       -0.3375792E-03 Eh
   gradient norm :     0.0050611 Eh/α   predicted    -0.2455653E-03 ( -27.26%)
   displ. norm   :     0.5095961 α      lambda       -0.4480226E-03
   maximum displ.:     0.2926652 α      in ANC's #2, #1, #4, ...

........................................................................
.............................. CYCLE   36 ..............................
........................................................................

 iter      E             dE          RMSdq      gap      omega  full diag
   1   -100.6743939 -0.100674E+03  0.726E-02    0.17       0.0  T
   2   -100.6740870  0.306918E-03  0.810E-02    0.27       1.0  T
   3   -100.6745472 -0.460216E-03  0.325E-02    0.19       1.0  T
   4   -100.6745212  0.259402E-04  0.265E-02    0.23       1.0  T
   5   -100.6745874 -0.661747E-04  0.767E-03    0.21       1.5  T
   6   -100.6745931 -0.564682E-05  0.205E-03    0.21       5.8  T
   7   -100.6745932 -0.174753E-06  0.101E-03    0.21      11.7  T
   8   -100.6745933 -0.362975E-07  0.409E-04    0.21      28.8  T
   9   -100.6745933 -0.989421E-08  0.158E-04    0.21      74.4  T
     SCC iter.                  ...        0 min,  0.073 sec
     gradient                   ...        0 min,  0.070 sec
 * total energy  :   -99.2929261 Eh     change       -0.3552233E-03 Eh
   gradient norm :     0.0060124 Eh/α   predicted    -0.2821855E-03 ( -20.56%)
   displ. norm   :     0.5486825 α      lambda       -0.4561076E-03
   maximum displ.:     0.2933643 α      in ANC's #2, #1, #4, ...

........................................................................
.............................. CYCLE   37 ..............................
........................................................................

 iter      E             dE          RMSdq      gap      omega  full diag
   1   -100.6759245 -0.100676E+03  0.741E-02    0.16       0.0  T
   2   -100.6756774  0.247062E-03  0.776E-02    0.26       1.0  T
   3   -100.6760877 -0.410265E-03  0.325E-02    0.18       1.0  T
   4   -100.6760560  0.316336E-04  0.266E-02    0.22       1.0  T
   5   -100.6761266 -0.705661E-04  0.876E-03    0.20       1.3  T
   6   -100.6761338 -0.722292E-05  0.214E-03    0.20       5.5  T
   7   -100.6761340 -0.195479E-06  0.104E-03    0.20      11.3  T
   8   -100.6761340 -0.371783E-07  0.413E-04    0.20      28.5  T
   9   -100.6761341 -0.975687E-08  0.169E-04    0.20      69.7  T
     SCC iter.                  ...        0 min,  0.073 sec
     gradient                   ...        0 min,  0.069 sec
 * total energy  :   -99.2933075 Eh     change       -0.3813318E-03 Eh
   gradient norm :     0.0065786 Eh/α   predicted    -0.2967109E-03 ( -22.19%)
   displ. norm   :     0.7481056 α      lambda       -0.5584554E-03
   maximum displ.:     0.4031011 α      in ANC's #2, #1, #4, ...

........................................................................
.............................. CYCLE   38 ..............................
........................................................................

 iter      E             dE          RMSdq      gap      omega  full diag
   1   -100.6755904 -0.100676E+03  0.796E-02    0.18       0.0  T
   2   -100.6754681  0.122303E-03  0.658E-02    0.21       1.0  T
   3   -100.6757569 -0.288799E-03  0.390E-02    0.20       1.0  T
   4   -100.6757944 -0.375578E-04  0.207E-02    0.19       1.0  T
   5   -100.6758176 -0.231300E-04  0.653E-03    0.20       1.8  T
   6   -100.6758202 -0.261625E-05  0.245E-03    0.20       4.8  T
   7   -100.6758207 -0.502647E-06  0.167E-03    0.20       7.0  T
   8   -100.6758209 -0.204644E-06  0.443E-04    0.20      26.6  T
   9   -100.6758209 -0.755453E-08  0.212E-04    0.20      55.7  T
     SCC iter.                  ...        0 min,  0.073 sec
     gradient                   ...        0 min,  0.069 sec
 * total energy  :   -99.2937290 Eh     change       -0.4215349E-03 Eh
   gradient norm :     0.0079651 Eh/α   predicted    -0.4355015E-03 (   3.31%)
   displ. norm   :     0.4801017 α      lambda       -0.8679481E-03
   maximum displ.:     0.1998344 α      in ANC's #1, #4, #2, ...

........................................................................
.............................. CYCLE   39 ..............................
........................................................................

 iter      E             dE          RMSdq      gap      omega  full diag
   1   -100.6781177 -0.100678E+03  0.702E-02    0.20       0.0  T
   2   -100.6781046  0.131591E-04  0.436E-02    0.20       1.0  T
   3   -100.6780323  0.722615E-04  0.456E-02    0.22       1.0  T
   4   -100.6781599 -0.127605E-03  0.212E-02    0.19       1.0  T
   5   -100.6781860 -0.260720E-04  0.750E-03    0.21       1.6  T
   6   -100.6781905 -0.447238E-05  0.194E-03    0.20       6.1  T
   7   -100.6781907 -0.247700E-06  0.135E-03    0.21       8.7  T
   8   -100.6781909 -0.149116E-06  0.414E-04    0.21      28.4  T
   9   -100.6781909 -0.968788E-08  0.106E-04    0.21     111.5  T
     SCC iter.                  ...        0 min,  0.073 sec
     gradient                   ...        0 min,  0.075 sec
 * total energy  :   -99.2940247 Eh     change       -0.2956554E-03 Eh
   gradient norm :     0.0111478 Eh/α   predicted    -0.5340069E-03 (  80.62%)
   displ. norm   :     0.2132172 α      lambda       -0.3627780E-03
   maximum displ.:     0.1280551 α      in ANC's #2, #1, #4, ...

........................................................................
.............................. CYCLE   40 ..............................
........................................................................

 iter      E             dE          RMSdq      gap      omega  full diag
   1   -100.6763076 -0.100676E+03  0.318E-02    0.23       0.0  T
   2   -100.6762202  0.874524E-04  0.395E-02    0.18       1.0  T
   3   -100.6763379 -0.117743E-03  0.150E-02    0.22       1.0  T
   4   -100.6763354  0.254148E-05  0.100E-02    0.21       1.2  T
   5   -100.6763434 -0.803355E-05  0.211E-03    0.21       5.6  T
   6   -100.6763437 -0.260707E-06  0.104E-03    0.21      11.3  T
   7   -100.6763437 -0.829582E-07  0.659E-04    0.21      17.9  T
   8   -100.6763438 -0.253612E-07  0.162E-04    0.21      72.6  T
     SCC iter.                  ...        0 min,  0.066 sec
     gradient                   ...        0 min,  0.069 sec
 * total energy  :   -99.2942311 Eh     change       -0.2064085E-03 Eh
   gradient norm :     0.0054416 Eh/α   predicted    -0.1896366E-03 (  -8.13%)
   displ. norm   :     0.3613088 α      lambda       -0.4380097E-03
   maximum displ.:     0.1874745 α      in ANC's #1, #2, #4, ...

........................................................................
.............................. CYCLE   41 ..............................
........................................................................

 iter      E             dE          RMSdq      gap      omega  full diag
   1   -100.6748922 -0.100675E+03  0.637E-02    0.20       0.0  T
   2   -100.6748075  0.847746E-04  0.440E-02    0.24       1.0  T
   3   -100.6747117  0.957845E-04  0.570E-02    0.17       1.0  T
   4   -100.6749276 -0.215958E-03  0.140E-02    0.21       1.0  T
   5   -100.6749438 -0.161814E-04  0.555E-03    0.21       2.1  T
   6   -100.6749462 -0.240513E-05  0.147E-03    0.21       8.0  T
   7   -100.6749462 -0.121569E-07  0.102E-03    0.21      11.6  T
   8   -100.6749463 -0.836658E-07  0.316E-04    0.21      37.3  T
   9   -100.6749463 -0.785380E-08  0.892E-05    0.21     132.1  T
     SCC iter.                  ...        0 min,  0.073 sec
     gradient                   ...        0 min,  0.069 sec
 * total energy  :   -99.2943234 Eh     change       -0.9236029E-04 Eh
   gradient norm :     0.0062611 Eh/α   predicted    -0.2475967E-03 ( 168.08%)
   displ. norm   :     0.2284670 α      lambda       -0.2327293E-03
   maximum displ.:     0.1041734 α      in ANC's #2, #4, #1, ...

........................................................................
.............................. CYCLE   42 ..............................
........................................................................

 iter      E             dE          RMSdq      gap      omega  full diag
   1   -100.6765748 -0.100677E+03  0.318E-02    0.21       0.0  T
   2   -100.6765653  0.946063E-05  0.208E-02    0.21       1.0  T
   3   -100.6765321  0.332007E-04  0.257E-02    0.23       1.0  T
   4   -100.6765833 -0.511990E-04  0.829E-03    0.21       1.4  T
   5   -100.6765876 -0.424511E-05  0.306E-03    0.22       3.9  T
   6   -100.6765882 -0.674623E-06  0.972E-04    0.21      12.1  T
   7   -100.6765883 -0.401833E-07  0.633E-04    0.21      18.6  T
     SCC iter.                  ...        0 min,  0.058 sec
     gradient                   ...        0 min,  0.069 sec
 * total energy  :   -99.2944887 Eh     change       -0.1652486E-03 Eh
   gradient norm :     0.0031775 Eh/α   predicted    -0.1224408E-03 ( -25.91%)
   displ. norm   :     0.2674334 α      lambda       -0.1614114E-03
   maximum displ.:     0.1150426 α      in ANC's #2, #4, #8, ...
 * RMSD in coord.:     0.8745426 α      energy gain  -0.7617896E-02 Eh

generating ANC from model Hessian ...
Using Lindh-Hessian (1995)
 Shifting diagonal of input Hessian by    1.3662169239990904E-002
 Lowest  eigenvalues of input Hessian
    0.010000    0.013267    0.000000    0.000000    0.000000    0.000000
    0.000000    0.000000    0.013700    0.013710    0.013815    0.013921
    0.013990    0.014244    0.014351    0.014534    0.014594    0.015182
 Highest eigenvalues
    2.048103    2.049901    2.118093    2.188126    2.188669    2.223497


........................................................................
.............................. CYCLE   43 ..............................
........................................................................

 iter      E             dE          RMSdq      gap      omega  full diag
   1   -100.6757936 -0.100676E+03  0.285E-02    0.22       0.0  T
   2   -100.6757735  0.201269E-04  0.222E-02    0.20       1.0  T
   3   -100.6757686  0.487936E-05  0.225E-02    0.23       1.0  T
   4   -100.6758016 -0.330143E-04  0.764E-03    0.21       1.5  T
   5   -100.6758064 -0.481382E-05  0.269E-03    0.22       4.4  T
   6   -100.6758070 -0.608044E-06  0.653E-04    0.22      18.1  T
   7   -100.6758071 -0.188634E-07  0.479E-04    0.22      24.6  T
     SCC iter.                  ...        0 min,  0.058 sec
     gradient                   ...        0 min,  0.069 sec
 * total energy  :   -99.2945972 Eh     change       -0.1084711E-03 Eh
   gradient norm :     0.0032108 Eh/α   predicted     0.0000000E+00 (-100.00%)
   displ. norm   :     0.0620061 α      lambda       -0.6651266E-04
   maximum displ.:     0.0441030 α      in ANC's #1, #9, #6, ...

........................................................................
.............................. CYCLE   44 ..............................
........................................................................

 iter      E             dE          RMSdq      gap      omega  full diag
   1   -100.6763335 -0.100676E+03  0.108E-02    0.21       0.0  T
   2   -100.6763266  0.681407E-05  0.107E-02    0.22       1.1  T
   3   -100.6763342 -0.754977E-05  0.696E-03    0.21       1.7  T
   4   -100.6763356 -0.143958E-05  0.322E-03    0.22       3.7  T
   5   -100.6763367 -0.109027E-05  0.901E-04    0.21      13.1  T
   6   -100.6763368 -0.549750E-07  0.354E-04    0.22      33.3  T
   7   -100.6763368 -0.688733E-08  0.201E-04    0.21      58.7  T
     SCC iter.                  ...        0 min,  0.058 sec
     gradient                   ...        0 min,  0.069 sec
 * total energy  :   -99.2946529 Eh     change       -0.5578360E-04 Eh
   gradient norm :     0.0014475 Eh/α   predicted    -0.3361087E-04 ( -39.75%)
   displ. norm   :     0.2543870 α      lambda       -0.1283646E-03
   maximum displ.:     0.1358290 α      in ANC's #1, #9, #6, ...

........................................................................
.............................. CYCLE   45 ..............................
........................................................................

 iter      E             dE          RMSdq      gap      omega  full diag
   1   -100.6767784 -0.100677E+03  0.365E-02    0.20       0.0  T
   2   -100.6767298  0.486147E-04  0.317E-02    0.23       1.0  T
   3   -100.6767632 -0.334328E-04  0.259E-02    0.19       1.0  T
   4   -100.6767931 -0.298770E-04  0.101E-02    0.21       1.2  T
   5   -100.6768043 -0.111451E-04  0.269E-03    0.21       4.4  T
   6   -100.6768048 -0.516295E-06  0.106E-03    0.21      11.1  T
   7   -100.6768048 -0.588058E-07  0.616E-04    0.21      19.1  T
   8   -100.6768048 -0.800948E-08  0.304E-04    0.21      38.7  T
     SCC iter.                  ...        0 min,  0.066 sec
     gradient                   ...        0 min,  0.069 sec
 * total energy  :   -99.2947670 Eh     change       -0.1140465E-03 Eh
   gradient norm :     0.0040957 Eh/α   predicted    -0.6603656E-04 ( -42.10%)
   displ. norm   :     0.1217673 α      lambda       -0.6005763E-04
   maximum displ.:     0.0501651 α      in ANC's #2, #6, #8, ...

........................................................................
.............................. CYCLE   46 ..............................
........................................................................

 iter      E             dE          RMSdq      gap      omega  full diag
   1   -100.6765113 -0.100677E+03  0.144E-02    0.20       0.0  T
   2   -100.6765070  0.424577E-05  0.114E-02    0.21       1.0  T
   3   -100.6765060  0.102823E-05  0.105E-02    0.20       1.1  T
   4   -100.6765121 -0.612089E-05  0.385E-03    0.21       3.1  T
   5   -100.6765136 -0.151627E-05  0.562E-04    0.21      21.0  T
   6   -100.6765136 -0.204668E-07  0.296E-04    0.21      39.8  T
   7   -100.6765136 -0.302293E-09  0.202E-04    0.21      58.4  T
     SCC iter.                  ...        0 min,  0.058 sec
     gradient                   ...        0 min,  0.069 sec
 * total energy  :   -99.2948217 Eh     change       -0.5475086E-04 Eh
   gradient norm :     0.0035630 Eh/α   predicted    -0.3095686E-04 ( -43.46%)
   displ. norm   :     0.4526785 α      lambda       -0.2150837E-03
   maximum displ.:     0.2056579 α      in ANC's #2, #6, #8, ...

........................................................................
.............................. CYCLE   47 ..............................
........................................................................

 iter      E             dE          RMSdq      gap      omega  full diag
   1   -100.6750333 -0.100675E+03  0.499E-02    0.19       0.0  T
   2   -100.6750024  0.309725E-04  0.364E-02    0.22       1.0  T
   3   -100.6749505  0.518535E-04  0.376E-02    0.17       1.0  T
   4   -100.6750356 -0.850384E-04  0.130E-02    0.21       1.0  T
   5   -100.6750530 -0.174496E-04  0.162E-03    0.20       7.3  T
   6   -100.6750531 -0.111829E-06  0.947E-04    0.20      12.5  T
   7   -100.6750531 -0.803293E-08  0.580E-04    0.20      20.3  T
     SCC iter.                  ...        0 min,  0.058 sec
     gradient                   ...        0 min,  0.069 sec
 * total energy  :   -99.2949719 Eh     change       -0.1501793E-03 Eh
   gradient norm :     0.0022059 Eh/α   predicted    -0.1295933E-03 ( -13.71%)
   displ. norm   :     0.3246495 α      lambda       -0.1125567E-03
   maximum displ.:     0.1608491 α      in ANC's #2, #6, #8, ...

........................................................................
.............................. CYCLE   48 ..............................
........................................................................

 iter      E             dE          RMSdq      gap      omega  full diag
   1   -100.6744614 -0.100674E+03  0.332E-02    0.19       0.0  T
   2   -100.6744550  0.636914E-05  0.225E-02    0.21       1.0  T
   3   -100.6744280  0.269468E-04  0.236E-02    0.18       1.0  T
   4   -100.6744591 -0.310468E-04  0.843E-03    0.21       1.4  T
   5   -100.6744672 -0.814907E-05  0.105E-03    0.20      11.2  T
   6   -100.6744673 -0.141869E-07  0.792E-04    0.20      14.9  T
   7   -100.6744673 -0.231817E-07  0.385E-04    0.20      30.6  T
     SCC iter.                  ...        0 min,  0.058 sec
     gradient                   ...        0 min,  0.069 sec
 * total energy  :   -99.2950599 Eh     change       -0.8797050E-04 Eh
   gradient norm :     0.0028459 Eh/α   predicted    -0.6221275E-04 ( -29.28%)
   displ. norm   :     0.3886302 α      lambda       -0.1558558E-03
   maximum displ.:     0.2003785 α      in ANC's #2, #6, #8, ...

........................................................................
.............................. CYCLE   49 ..............................
........................................................................

 iter      E             dE          RMSdq      gap      omega  full diag
   1   -100.6747853 -0.100675E+03  0.377E-02    0.19       0.0  T
   2   -100.6747826  0.274486E-05  0.243E-02    0.21       1.0  T
   3   -100.6747651  0.174341E-04  0.213E-02    0.19       1.0  T
   4   -100.6747906 -0.254459E-04  0.549E-03    0.20       2.1  T
   5   -100.6747936 -0.306706E-05  0.176E-03    0.20       6.7  T
   6   -100.6747939 -0.216812E-06  0.994E-04    0.20      11.9  T
   7   -100.6747939 -0.336493E-07  0.558E-04    0.20      21.1  T
     SCC iter.                  ...        0 min,  0.058 sec
     gradient                   ...        0 min,  0.069 sec
 * total energy  :   -99.2951816 Eh     change       -0.1217401E-03 Eh
   gradient norm :     0.0036779 Eh/α   predicted    -0.8970195E-04 ( -26.32%)
   displ. norm   :     0.3575662 α      lambda       -0.1419729E-03
   maximum displ.:     0.1833602 α      in ANC's #2, #6, #8, ...

........................................................................
.............................. CYCLE   50 ..............................
........................................................................

 iter      E             dE          RMSdq      gap      omega  full diag
   1   -100.6757095 -0.100676E+03  0.346E-02    0.20       0.0  T
   2   -100.6757024  0.710765E-05  0.232E-02    0.20       1.0  T
   3   -100.6756800  0.223853E-04  0.228E-02    0.21       1.0  T
   4   -100.6757131 -0.331007E-04  0.104E-02    0.19       1.1  T
   5   -100.6757202 -0.708680E-05  0.232E-03    0.20       5.1  T
   6   -100.6757207 -0.476092E-06  0.916E-04    0.20      12.9  T
   7   -100.6757208 -0.640266E-07  0.468E-04    0.20      25.2  T
     SCC iter.                  ...        0 min,  0.057 sec
     gradient                   ...        0 min,  0.069 sec
 * total energy  :   -99.2952877 Eh     change       -0.1060994E-03 Eh
   gradient norm :     0.0033514 Eh/α   predicted    -0.8006317E-04 ( -24.54%)
   displ. norm   :     0.2868539 α      lambda       -0.9223926E-04
   maximum displ.:     0.1402049 α      in ANC's #2, #6, #8, ...

........................................................................
.............................. CYCLE   51 ..............................
........................................................................

 iter      E             dE          RMSdq      gap      omega  full diag
   1   -100.6764048 -0.100676E+03  0.292E-02    0.20       0.0  T
   2   -100.6763936  0.112115E-04  0.213E-02    0.20       1.0  T
   3   -100.6763892  0.440754E-05  0.198E-02    0.21       1.0  T
   4   -100.6764090 -0.197974E-04  0.950E-03    0.19       1.2  T
   5   -100.6764151 -0.610259E-05  0.220E-03    0.20       5.4  T
   6   -100.6764156 -0.509204E-06  0.695E-04    0.20      17.0  T
   7   -100.6764157 -0.395862E-07  0.372E-04    0.20      31.7  T
     SCC iter.                  ...        0 min,  0.057 sec
     gradient                   ...        0 min,  0.069 sec
 * total energy  :   -99.2953516 Eh     change       -0.6384749E-04 Eh
   gradient norm :     0.0021738 Eh/α   predicted    -0.4991678E-04 ( -21.82%)
   displ. norm   :     0.2180020 α      lambda       -0.4754509E-04
   maximum displ.:     0.1029691 α      in ANC's #2, #6, #8, ...

........................................................................
.............................. CYCLE   52 ..............................
........................................................................

 iter      E             dE          RMSdq      gap      omega  full diag
   1   -100.6763625 -0.100676E+03  0.230E-02    0.20       0.0  T
   2   -100.6763578  0.471749E-05  0.160E-02    0.20       1.0  T
   3   -100.6763547  0.312623E-05  0.149E-02    0.21       1.0  T
   4   -100.6763657 -0.109620E-04  0.502E-03    0.20       2.3  T
   5   -100.6763673 -0.160189E-05  0.127E-03    0.21       9.3  T
   6   -100.6763674 -0.151215E-06  0.564E-04    0.20      20.9  T
   7   -100.6763674 -0.284343E-07  0.258E-04    0.20      45.7  T
     SCC iter.                  ...        0 min,  0.058 sec
     gradient                   ...        0 min,  0.069 sec
 * total energy  :   -99.2953875 Eh     change       -0.3592378E-04 Eh
   gradient norm :     0.0014122 Eh/α   predicted    -0.2490792E-04 ( -30.66%)
   displ. norm   :     0.3355773 α      lambda       -0.5275924E-04
   maximum displ.:     0.1630429 α      in ANC's #6, #2, #7, ...

   *** GEOMETRY OPTIMIZATION CONVERGED AFTER 52 ITERATIONS ***

------------------------------------------------------------------------
 total energy gain   :        -0.8453384 Eh     -530.4579 kcal/mol
 total RMSD          :         1.0741985 a0        0.5684 Å
 total power (kW/mol):       -42.6814569 (step) -259.1632 (real)
------------------------------------------------------------------------

 ANCopt (total)                0 d,  0 h,  0 min,  8.564 sec
 optimizer setup                ...        0 min,  0.000 sec (  0.003%)
 model hessian                  ...        0 min,  0.161 sec (  1.878%)
 ANC generation                 ...        0 min,  0.020 sec (  0.231%)
 coordinate transformation      ...        0 min,  0.004 sec (  0.042%)
 single point calculation       ...        0 min,  8.318 sec ( 97.125%)
 optimization log               ...        0 min,  0.013 sec (  0.155%)
 hessian update                 ...        0 min,  0.004 sec (  0.041%)
 rational function              ...        0 min,  0.019 sec (  0.219%)

================
 final structure:
[...]
         :: total energy             -99.295387496042 Eh    ::
         :: gradient norm              0.001412694239 Eh/a0 ::
         :: HOMO-LUMO gap              0.203904750669 eV    ::
         ::.................................................::
         :: SCC energy              -100.676367445019 Eh    ::
         :: -> isotropic ES            0.108947118765 Eh    ::
         :: -> anisotropic ES         -0.000251550915 Eh    ::
         :: -> anisotropic XC          0.045600366066 Eh    ::
         :: -> dispersion             -0.078364311625 Eh    ::
         :: repulsion energy           1.379611047638 Eh    ::
         :: add. restraining           0.000009430388 Eh    ::
         :: total charge               1.000000000003 e     ::
         :::::::::::::::::::::::::::::::::::::::::::::::::::::

           -------------------------------------------------
          |                Property Printout                |
           -------------------------------------------------

    * Orbital Energies and Occupations

         #    Occupation            Energy/Eh            Energy/eV
      -------------------------------------------------------------
         1        2.0000           -0.8203714             -22.3234
       ...           ...                  ...                  ...
        78        1.9965           -0.5354273             -14.5697
        79        1.9962           -0.5343336             -14.5400
        80        1.9951           -0.5301168             -14.4252
        81        1.9935           -0.5258305             -14.3086
        82        1.9918           -0.5221733             -14.2091
        83        1.9912           -0.5209395             -14.1755
        84        1.9888           -0.5170557             -14.0698
        85        1.9662           -0.4994339             -13.5903
        86        1.9554           -0.4949886             -13.4693
        87        1.8992           -0.4815971             -13.1049
        88        1.7787           -0.4681098             -12.7379
        89        1.7157           -0.4635727             -12.6145
        90        1.4668           -0.4511366             -12.2761 (HOMO)
        91        1.2631           -0.4436432             -12.0721 (LUMO)
        92        0.0099           -0.3512013              -9.5567
        93        0.0070           -0.3456621              -9.4059
        94        0.0020           -0.3254903              -8.8570
        95        0.0016           -0.3226146              -8.7788
        96        0.0013           -0.3192267              -8.6866
        97        0.0012           -0.3175398              -8.6407
        98        0.0000           -0.2002923              -5.4502
        99        0.0000           -0.1952009              -5.3117
       100                         -0.1221386              -3.3236
       101                         -0.0741638              -2.0181
       ...                                ...                  ...
       171                          0.5678370              15.4516
      -------------------------------------------------------------
                  HL-Gap            0.0074934 Eh            0.2039 eV
             Fermi-level           -0.4351124 Eh          -11.8400 eV

     #   Z          covCN         q      C6AA      α(0)
     1   7 N        1.774    -0.256    27.484     7.763
     2   6 C        2.827     0.103    25.721     8.310
     3   6 C        3.907     0.008    20.387     6.418
     4   6 C        2.974     0.009    27.814     8.651
     5   6 C        2.919    -0.077    29.924     8.971
     6   6 C        2.861     0.133    25.096     8.211
     7   8 O        1.706    -0.220    17.651     5.672
     8   6 C        3.644     0.025    20.494     6.507
     9   6 C        2.864     0.134    25.076     8.208
    10   8 O        1.706    -0.216    17.586     5.662
    11   6 C        3.645     0.023    20.522     6.511
    12   6 C        2.913    -0.068    29.698     8.936
    13   6 C        2.921    -0.045    29.119     8.849
    14   6 C        3.811    -0.064    21.720     6.634
    15   6 C        3.801    -0.065    21.748     6.640
    16   6 C        2.862    -0.033    28.815     8.799
    17   7 N        2.730     0.098    19.558     6.568
    18   6 C        3.781    -0.027    21.070     6.539
    19   6 C        3.808    -0.067    21.784     6.644
    20   6 C        2.969     0.010    27.792     8.647
    21   6 C        2.921    -0.043    29.066     8.841
    22   6 C        2.912    -0.065    29.610     8.923
    23   6 C        2.864     0.138    24.993     8.195
    24   8 O        1.706    -0.208    17.459     5.642
    25   6 C        3.645     0.021    20.549     6.515
    26   6 C        2.862     0.141    24.932     8.185
    27   8 O        1.706    -0.207    17.443     5.639
    28   6 C        3.645     0.022    20.547     6.515
    29   6 C        2.919    -0.074    29.845     8.959
    30   6 C        2.810    -0.087    30.175     9.000
    31   6 C        3.853    -0.007    20.671     6.467
    32   6 C        3.756    -0.119    22.834     6.813
    33   6 C        3.755    -0.120    22.855     6.817
    34   1 H        0.926     0.057     2.239     2.340
    35   1 H        0.924     0.058     2.224     2.332
    36   1 H        0.925     0.086     1.923     2.169
    37   1 H        0.924     0.052     2.292     2.368
    38   1 H        0.924     0.060     2.196     2.317
    39   1 H        0.925     0.086     1.920     2.167
    40   1 H        0.924     0.057     2.238     2.339
    41   1 H        0.926     0.061     2.187     2.313
    42   1 H        0.926     0.046     2.367     2.406
    43   1 H        0.925     0.060     2.202     2.321
    44   1 H        0.924     0.054     2.268     2.355
    45   1 H        0.925     0.058     2.225     2.333
    46   1 H        0.924     0.071     2.069     2.250
    47   1 H        0.923     0.019     2.752     2.594
    48   1 H        0.926     0.058     2.218     2.329
    49   1 H        0.924     0.100     1.783     2.088
    50   1 H        0.924     0.066     2.127     2.281
    51   1 H        0.924     0.055     2.255     2.348
    52   1 H        0.924     0.066     2.135     2.285
    53   1 H        0.926     0.054     2.273     2.357
    54   1 H        0.926     0.064     2.152     2.294
    55   1 H        0.924     0.060     2.193     2.316
    56   1 H        0.924     0.062     2.179     2.308
    57   1 H        0.925     0.088     1.903     2.157
    58   1 H        0.925     0.086     1.922     2.168
    59   1 H        0.924     0.070     2.087     2.259
    60   1 H        0.924     0.062     2.179     2.308
    61   1 H        0.925     0.080     1.974     2.197
    62   1 H        0.000    -0.268    44.232    12.161
    63   1 H        0.926     0.064     2.149     2.292
    64   1 H        0.926     0.083     1.951     2.184
    65   1 H        0.924     0.041     2.429     2.437
    66   1 H        0.925     0.071     2.071     2.250
    67   1 H        0.925     0.037     2.486     2.466
    68   1 H        0.925     0.055     2.257     2.349
    69   1 H        0.925     0.065     2.137     2.286
    70   1 H        0.925     0.039     2.456     2.450
    71   1 H        0.925     0.058     2.226     2.333
    72   1 H        0.860     0.164     1.310     1.793

 Mol. C6AA /au·bohr⁶  :      49575.272815
 Mol. C8AA /au·bohr⁸  :    1119323.896361
 Mol. α(0) /au        :        344.951382


Wiberg/Mayer (AO) data.
largest (>0.10) Wiberg bond orders for each atom

 ---------------------------------------------------------------------------
     #   Z sym  total        # sym  WBO       # sym  WBO       # sym  WBO
 ---------------------------------------------------------------------------
     1   7 N    3.021 --     2 C    1.959    72 H    0.938
     2   6 C    3.929 --     1 N    1.959     3 C    0.991    47 H    0.906
     3   6 C    3.965 --     2 C    0.991     4 C    0.973    14 C    0.953
                            31 C    0.939
     4   6 C    3.927 --    13 C    1.398     5 C    1.372     3 C    0.973
     5   6 C    3.951 --     6 C    1.392     4 C    1.372    34 H    0.957
     6   6 C    3.885 --     5 C    1.392     9 C    1.208     7 O    1.111
     7   8 O    2.251 --     6 C    1.111     8 C    0.976
     8   6 C    3.926 --    36 H    0.976     7 O    0.976    37 H    0.972
                            35 H    0.972
     9   6 C    3.880 --    12 C    1.378     6 C    1.208    10 O    1.118
    10   8 O    2.252 --     9 C    1.118    11 C    0.974
    11   6 C    3.923 --    39 H    0.976    10 O    0.974    40 H    0.971
                            38 H    0.971
    12   6 C    3.950 --    13 C    1.416     9 C    1.378    41 H    0.962
    13   6 C    3.935 --    12 C    1.416     4 C    1.398    42 H    0.961
    14   6 C    3.967 --    15 C    0.979    44 H    0.972    43 H    0.967
                             3 C    0.953
    15   6 C    3.982 --    16 C    1.052    14 C    0.979    45 H    0.961
                            46 H    0.938
    16   6 C    3.631 --    17 N    1.333    15 C    1.052    48 H    0.962
                            30 C    0.180
    17   7 N    3.748 --    30 C    1.392    16 C    1.333    18 C    0.961
    18   6 C    3.921 --    19 C    0.977    50 H    0.967    17 N    0.961
                            49 H    0.939
    19   6 C    3.985 --    20 C    1.008    18 C    0.977    51 H    0.972
                            52 H    0.965
    20   6 C    3.919 --    21 C    1.390    29 C    1.388    19 C    1.008
    21   6 C    3.919 --    22 C    1.422    20 C    1.390    53 H    0.966
    22   6 C    3.942 --    21 C    1.422    23 C    1.371    54 H    0.962
    23   6 C    3.863 --    22 C    1.371    26 C    1.197    24 O    1.126
    24   8 O    2.251 --    23 C    1.126    25 C    0.973
    25   6 C    3.921 --    57 H    0.976    24 O    0.973    55 H    0.970
                            56 H    0.970
    26   6 C    3.871 --    29 C    1.378    23 C    1.197    27 O    1.129
    27   8 O    2.253 --    26 C    1.129    28 C    0.972
    28   6 C    3.913 --    58 H    0.976    27 O    0.972    60 H    0.969
                            59 H    0.964
    29   6 C    3.917 --    20 C    1.388    26 C    1.378    61 H    0.935
    30   6 C    3.580 --    17 N    1.392    64 H    0.970    63 H    0.967
                            16 C    0.180
    31   6 C    3.962 --    33 C    1.008    32 C    1.008    65 H    0.956
                             3 C    0.939
    32   6 C    3.969 --    31 C    1.008    67 H    0.980    68 H    0.979
                            66 H    0.970
    33   6 C    3.972 --    31 C    1.008    70 H    0.981    71 H    0.978
                            69 H    0.972
    34   1 H    0.995 --     5 C    0.957
    35   1 H    0.990 --     8 C    0.972
    36   1 H    0.992 --     8 C    0.976
    37   1 H    0.991 --     8 C    0.972
    38   1 H    0.989 --    11 C    0.971
    39   1 H    0.992 --    11 C    0.976
    40   1 H    0.989 --    11 C    0.971
    41   1 H    0.994 --    12 C    0.962
    42   1 H    0.997 --    13 C    0.961
    43   1 H    0.994 --    14 C    0.967
    44   1 H    0.996 --    14 C    0.972
    45   1 H    0.996 --    15 C    0.961
    46   1 H    0.973 --    15 C    0.938
    47   1 H    0.973 --     2 C    0.906
    48   1 H    0.996 --    16 C    0.962
    49   1 H    0.989 --    18 C    0.939
    50   1 H    0.995 --    18 C    0.967
    51   1 H    0.995 --    19 C    0.972
    52   1 H    0.992 --    19 C    0.965
    53   1 H    0.995 --    21 C    0.966
    54   1 H    0.993 --    22 C    0.962
    55   1 H    0.987 --    25 C    0.970
    56   1 H    0.987 --    25 C    0.970
    57   1 H    0.991 --    25 C    0.976
    58   1 H    0.991 --    28 C    0.976
    59   1 H    0.986 --    28 C    0.964
    60   1 H    0.986 --    28 C    0.969
    61   1 H    0.991 --    29 C    0.935
    62   1 H    0.065
    63   1 H    0.995 --    30 C    0.967
    64   1 H    0.993 --    30 C    0.970
    65   1 H    0.987 --    31 C    0.956
    66   1 H    0.987 --    32 C    0.970
    67   1 H    0.995 --    32 C    0.980
    68   1 H    0.991 --    32 C    0.979
    69   1 H    0.989 --    33 C    0.972
    70   1 H    0.995 --    33 C    0.981
    71   1 H    0.991 --    33 C    0.978
    72   1 H    0.964 --     1 N    0.938
 ---------------------------------------------------------------------------

Topologies differ in total number of bonds
Writing topology from bond orders to xtbtopo.mol

molecular dipole:
                 x           y           z       tot (Debye)
 q only:        0.202       1.003      -0.973
   full:        0.470       0.940      -1.111       3.886
molecular quadrupole (traceless):
                xx          xy          yy          xz          yz          zz
 q only:       70.246      10.579     -25.757       1.771      -6.792     -44.489
  q+dip:       65.774      15.285     -24.508       4.701     -10.069     -41.267
   full:       65.378      14.795     -25.637       1.960      -9.758     -39.741

           -------------------------------------------------
          |                Geometry Summary                 |
           -------------------------------------------------

      molecular mass/u    :      455.6105846
   center of mass at/Å    :       -0.0272226       0.0126787      -0.0276627
  moments of inertia/u·Å² :        0.2508243E+04   0.1037844E+05   0.1166204E+05
rotational constants/cm⁻¹ :        0.6720892E-02   0.1624294E-02   0.1445513E-02

 * 64 selected distances

     #   Z          #   Z                                           value/Å
     1   7 N        2   6 C                                       1.2482132
     4   6 C        5   6 C                                       1.3957603
     5   6 C        6   6 C                                       1.3863106
     6   6 C        7   8 O                                       1.3455071
     7   8 O        8   6 C                                       1.4085967
     6   6 C        9   6 C                                       1.4245330
     9   6 C       10   8 O                                       1.3432301
    10   8 O       11   6 C                                       1.4094888
     9   6 C       12   6 C                                       1.3878431
     4   6 C       13   6 C                                       1.3884185
    12   6 C       13   6 C                                       1.3867399
    15   6 C       16   6 C                                       1.4839458
    16   6 C       17   7 N                                       1.3329677
    17   7 N       18   6 C                                       1.4615736
    18   6 C       19   6 C                                       1.5358048 (max)
    20   6 C       21   6 C                                       1.3881671
    21   6 C       22   6 C                                       1.3858563
    22   6 C       23   6 C                                       1.3897106
    23   6 C       24   8 O                                       1.3410966
    24   8 O       25   6 C                                       1.4094597
    23   6 C       26   6 C                                       1.4277289
    26   6 C       27   8 O                                       1.3403553
    27   8 O       28   6 C                                       1.4107891
    20   6 C       29   6 C                                       1.3909359
    26   6 C       29   6 C                                       1.3873024
    17   7 N       30   6 C                                       1.3214768
    31   6 C       32   6 C                                       1.5265111
    31   6 C       33   6 C                                       1.5255674
     5   6 C       34   1 H                                       1.0777114
     8   6 C       35   1 H                                       1.0939081
     8   6 C       36   1 H                                       1.0882278
     8   6 C       37   1 H                                       1.0946872
    11   6 C       38   1 H                                       1.0937437
    11   6 C       39   1 H                                       1.0882015
    11   6 C       40   1 H                                       1.0942851
    12   6 C       41   1 H                                       1.0774918
    13   6 C       42   1 H                                       1.0785259
    14   6 C       43   1 H                                       1.0898337
    14   6 C       44   1 H                                       1.0907582
    15   6 C       45   1 H                                       1.0878872
    15   6 C       46   1 H                                       1.0972052
    16   6 C       48   1 H                                       1.0788518
    18   6 C       49   1 H                                       1.0976704
    18   6 C       50   1 H                                       1.0919358
    19   6 C       51   1 H                                       1.0913830
    19   6 C       52   1 H                                       1.0919571
    21   6 C       53   1 H                                       1.0793649
    22   6 C       54   1 H                                       1.0777729
    25   6 C       55   1 H                                       1.0940429
    25   6 C       56   1 H                                       1.0939213
    25   6 C       57   1 H                                       1.0882919
    28   6 C       58   1 H                                       1.0885823
    28   6 C       59   1 H                                       1.0949682
    28   6 C       60   1 H                                       1.0940973
    29   6 C       61   1 H                                       1.0818533
    30   6 C       63   1 H                                       1.0714828 (min)
    30   6 C       64   1 H                                       1.0716576
    31   6 C       65   1 H                                       1.0962689
    32   6 C       66   1 H                                       1.0858045
    32   6 C       67   1 H                                       1.0873269
    32   6 C       68   1 H                                       1.0869056
    33   6 C       69   1 H                                       1.0857431
    33   6 C       70   1 H                                       1.0863478
    33   6 C       71   1 H                                       1.0868660

 * 4 distinct bonds (by element types)

   Z      Z             #   av. dist./Å        max./Å        min./Å
   1 H    6 C          36     1.0876545     1.0976704     1.0714828
   6 C    6 C          16     1.4256960     1.5358048     1.3858563
   6 C    7 N           4     1.3410578     1.4615736     1.2482132
   6 C    8 O           8     1.3760654     1.4107891     1.3403553


optimized geometry written to: xtbopt.xyz


           -------------------------------------------------
          | TOTAL ENERGY              -99.295387496042 Eh   |
          | GRADIENT NORM               0.001412694239 Eh/α |
          | HOMO-LUMO GAP               0.203904750669 eV   |
           -------------------------------------------------

------------------------------------------------------------------------
 * finished run on 2024/04/06 at 11:13:28.997     
------------------------------------------------------------------------
 total:
 * wall-time:     0 d,  0 h,  0 min,  8.925 sec
 *  cpu-time:     0 d,  0 h,  0 min,  8.899 sec
 * ratio c/w:     0.997 speedup
 SCF:
 * wall-time:     0 d,  0 h,  0 min,  0.196 sec
 *  cpu-time:     0 d,  0 h,  0 min,  0.195 sec
 * ratio c/w:     0.998 speedup
 ANC optimizer:
 * wall-time:     0 d,  0 h,  0 min,  8.687 sec
 *  cpu-time:     0 d,  0 h,  0 min,  8.678 sec
 * ratio c/w:     0.999 speedup

