25
 energy: -43.834270698126 gnorm: 0.087572462551 xtb: 6.6.1 (8d0f1dd)
C            3.23435955813953        1.17185707239891        0.08755898285394
N            2.29524569590284        0.08942890683643        0.04216528051501
C            2.59375643683333       -1.22827286515264        0.03176162093980
N            1.45290017414485       -1.97200526092474       -0.00616173937668
C            0.40115496503811       -1.08311120142760       -0.00843036973361
C            0.92061043844044        0.20887870887551        0.01781579700062
C            0.09394575765440        1.39206383832844       -0.00500831550672
O            0.49542188061726        2.55658068328874       -0.00369143066152
N           -1.26027600054960        1.06264372283872       -0.03248867755572
C           -2.22356974169828        2.15927656664044       -0.05260530013280
C           -1.82361130618979       -0.19394468420501       -0.04795407766781
O           -3.01098145047906       -0.37434561500545       -0.07098150352166
N           -0.93686836963905       -1.30118090903125       -0.03626505197285
C           -1.47641037186944       -2.64101181693469       -0.05681977565527
H            3.72166931598621        1.21140495972494        1.06984580233443
H            3.99824339504747        1.04176855376238       -0.67601004604229
H            2.69662864772580        2.10381694674550       -0.08256645774287
H            3.58148320791541       -1.63954971165932        0.05126264516303
H           -1.67242814287142        3.09761388580827       -0.03056234675879
H           -2.82811682332731        2.09984486814657       -0.95472289422220
H           -2.88048492102158        2.08433934853524        0.81275175078846
H           -1.17127876902958       -3.18466690923797        0.83719939448413
H           -1.15368005607332       -3.16646729435385       -0.95160444751884
H           -2.56095441538103       -2.54900828611594       -0.06899112451244
H            1.47397396827601       -3.01771554210862       -0.04325981179958
25
 energy: -43.837653899393 gnorm: 0.032627780671 xtb: 6.6.1 (8d0f1dd)
C            3.24250358446045        1.17803538174406        0.08994762542614
N            2.30672101950569        0.09881645364883        0.03987265654394
C            2.60680054762420       -1.23771400896981        0.02973503501409
N            1.43671742961405       -1.95732282639483       -0.00456701802285
C            0.40281434364401       -1.07389536028154       -0.01032817511651
C            0.92317026941238        0.21319525132912        0.01645347889157
C            0.10228947859849        1.38100345469183       -0.00500352001706
O            0.49627658867646        2.55346251130229       -0.00475965853891
N           -1.26613293747346        1.04998153880689       -0.03260860360943
C           -2.22238015193884        2.14931177102933       -0.05242541680036
C           -1.82515616500673       -0.19854937446168       -0.04842897168084
O           -3.02181649351828       -0.38409441549581       -0.07151412894848
N           -0.93877311140323       -1.30030962661694       -0.03765310027778
C           -1.47799950362524       -2.63974044580862       -0.05695228133075
H            3.72993216881193        1.21941633581967        1.07015678931943
H            4.00548513817869        1.05013784849473       -0.67894952729793
H            2.69472438310429        2.10420156254635       -0.07653371998956
H            3.58749445115346       -1.65653547523211        0.04970949368093
H           -1.65679282551142        3.07881509944662       -0.02951903405956
H           -2.82825756624872        2.09758321154831       -0.95626363168238
H           -2.87991443277861        2.08292638195710        0.81396828033882
H           -1.17035461165744       -3.18743842476689        0.83572625947445
H           -1.15158521803899       -3.17064253653710       -0.95192347399431
H           -2.56337046949079       -2.54858363744224       -0.06822565940336
H            1.42833715749981       -2.97382270458457       -0.03767579422153
25
 energy: -43.838216916798 gnorm: 0.014636165126 xtb: 6.6.1 (8d0f1dd)
C            3.23455099118150        1.17515565326564        0.08999235339349
N            2.30261110297727        0.09955891272182        0.03963773845584
C            2.61381805640125       -1.24279706619984        0.03226636793718
N            1.44136705933296       -1.96503940216554       -0.00702672264812
C            0.40867156706166       -1.08342787120059       -0.01009125105315
C            0.91786700500867        0.20917631597922        0.01713186672138
C            0.10964693529603        1.37696161200692       -0.00358284156494
O            0.49927097519177        2.55270490917755       -0.00262569293258
N           -1.26833277939738        1.05281514699974       -0.03180355156868
C           -2.22332318658360        2.15578363259557       -0.05234999205277
C           -1.81650278337752       -0.19464434732905       -0.04704093019849
O           -3.01639472646304       -0.38032531871484       -0.07044024007692
N           -0.93631203001071       -1.30244129400852       -0.03666248849439
C           -1.47932707215386       -2.63875817029687       -0.05579228504587
H            3.71712184790361        1.21377479839951        1.07124393077628
H            3.99860690704234        1.03757733943356       -0.67693278950046
H            2.69067655503298        2.10170583593773       -0.08493047204896
H            3.59466451893753       -1.64647676742697        0.05383096331660
H           -1.67354498517379        3.09578347509126       -0.03039985618586
H           -2.83076746217576        2.10163630934648       -0.95536330459590
H           -2.88297474514905        2.08729636005217        0.81221477148490
H           -1.17249546347278       -3.18801256474184        0.83721178654442
H           -1.15326210105329       -3.17052292774644       -0.95219279110171
H           -2.56391085916398       -2.54490330717344       -0.06817083760260
H            1.44900774639939       -2.97434329823023       -0.04588582826092
25
 energy: -43.838378756007 gnorm: 0.008435973697 xtb: 6.6.1 (8d0f1dd)
C            3.23699649511930        1.17402806425849        0.09076954926741
N            2.29878707426980        0.10146333538424        0.03859989800512
C            2.60751968287316       -1.24294967325979        0.03021094445493
N            1.43622598799329       -1.96695711301765       -0.00268055251833
C            0.40593342086387       -1.08372568295300       -0.00898851181985
C            0.91336254201983        0.21182889464558        0.01730562740540
C            0.10830399066616        1.37907000507638       -0.00535886546779
O            0.48968583531222        2.55671056258953       -0.00589499651788
N           -1.27228745619441        1.05291310889545       -0.03346129617796
C           -2.22282444673958        2.15544419683751       -0.05226704205149
C           -1.81768145827678       -0.19353805021112       -0.04864923152851
O           -3.01740934659980       -0.38005380960323       -0.07247192219172
N           -0.93923397332999       -1.30164089761768       -0.03674649164003
C           -1.47816623255450       -2.63899485881809       -0.05643382268907
H            3.72884213807850        1.20986337227134        1.06782456046398
H            3.99966711116323        1.04516596055104       -0.67937885902205
H            2.69943827543769        2.10564291740532       -0.07487736605065
H            3.58691704144521       -1.64441774979715        0.04815917423628
H           -1.66327923519433        3.08952785234754       -0.02984176197002
H           -2.82900037029992        2.10121445408604       -0.95607392122343
H           -2.87995268345331        2.08520229023949        0.81416202354650
H           -1.16878105991041       -3.18667652272462        0.83647039093021
H           -1.15004729616208       -3.16891239962526       -0.95296551747359
H           -2.56269159155398       -2.55096093897634       -0.06933100376223
H            1.45040862861904       -2.98100935221101       -0.03584310250746
25
 energy: -43.838412498624 gnorm: 0.005295354379 xtb: 6.6.1 (8d0f1dd)
C            3.23792724739485        1.17503748517510        0.09048184434658
N            2.30143710566973        0.10022834307798        0.03910008222166
C            2.60742515757631       -1.24364418285367        0.03205104789256
N            1.43567450910681       -1.96558019921480       -0.00733709793614
C            0.40634358880261       -1.08246363323737       -0.01090656850871
C            0.91593961213490        0.21227885831896        0.01675850975665
C            0.11159277136610        1.37943530627439       -0.00417985299264
O            0.49289264335905        2.55574926371563       -0.00264971305905
N           -1.27080749463356        1.05281167973262       -0.03213844176940
C           -2.22287145835463        2.15253797489061       -0.05219778652059
C           -1.81709362946594       -0.19346177831102       -0.04736324205193
O           -3.01618109060902       -0.38111912662996       -0.06993391940610
N           -0.93871306378052       -1.30050757269804       -0.03734451115789
C           -1.47940650972377       -2.63742071153618       -0.05601447922615
H            3.72322953288622        1.22160359882491        1.07093524095194
H            4.00540407412708        1.04670627855745       -0.67517044184565
H            2.69506636270819        2.10248039192259       -0.08420527981636
H            3.58702939297560       -1.64829350685306        0.05278458906877
H           -1.66242896457003        3.08541800816315       -0.03015625683425
H           -2.82825418127473        2.09681945948272       -0.95629990055595
H           -2.88099138407603        2.08262662896907        0.81346653823564
H           -1.17180394187659       -3.18576765776962        0.83680457155932
H           -1.15454407474498       -3.16923963637731       -0.95210732378390
H           -2.56369235342784       -2.54576364081561       -0.06754714556012
H            1.44755922202239       -2.98223366503552       -0.04459255931054
25
 energy: -43.838459515353 gnorm: 0.002962615869 xtb: 6.6.1 (8d0f1dd)
C            3.23765527568382        1.17409678696668        0.09009499719898
N            2.30233147307606        0.09980135810849        0.03918112593156
C            2.60882045273562       -1.24300358504498        0.03161154006655
N            1.43655895590133       -1.96357847397241       -0.00510690330711
C            0.40659495454371       -1.08177114963844       -0.00941412897670
C            0.91656115509931        0.21237614492438        0.01768756472323
C            0.11227498462993        1.37921499802720       -0.00412616649335
O            0.49459174744881        2.55477874975113       -0.00390357773230
N           -1.27142217278034        1.05332661829821       -0.03243947739763
C           -2.22378949475710        2.15417444931180       -0.05240532114429
C           -1.81772786618298       -0.19363493570593       -0.04770946319088
O           -3.01672686424661       -0.38198013063796       -0.07143847843320
N           -0.93847574037983       -1.30050069544425       -0.03664290826472
C           -1.47785428459920       -2.63839100230335       -0.05636151438340
H            3.72469330296779        1.21423035617789        1.06994550515515
H            4.00090387845483        1.04379131413170       -0.67928556706918
H            2.69356790871190        2.10216528916985       -0.07970348079947
H            3.58960528665968       -1.64799351169249        0.05088358801049
H           -1.66687995222939        3.08916264651099       -0.03011051234269
H           -2.83059319060471        2.10064890373826       -0.95564391980989
H           -2.88254463055928        2.08592991730038        0.81281971660943
H           -1.17101006789451       -3.18739916823842        0.83637946862825
H           -1.15098174880903       -3.16987163816430       -0.95195621435542
H           -2.56242645773623       -2.54788211110334       -0.06931040860763
H            1.44700616845860       -2.97945316469808       -0.04080756031802
25
 energy: -43.838464853884 gnorm: 0.001910234453 xtb: 6.6.1 (8d0f1dd)
C            3.23695703929989        1.17477813773163        0.09082627383363
N            2.30140113210496        0.10040482655295        0.03855263802910
C            2.60857690388126       -1.24246360069673        0.03108083111742
N            1.43705649583204       -1.96403362115403       -0.00551008773857
C            0.40633976220993       -1.08303141444324       -0.01046412225739
C            0.91533632994705        0.21201079825239        0.01643409887839
C            0.11187615059256        1.37868673032121       -0.00540237051609
O            0.49216069858884        2.55510335771664       -0.00497657815640
N           -1.27209227635627        1.05229726311051       -0.03314535412759
C           -2.22240977549944        2.15422776131965       -0.05219432621415
C           -1.81807660580599       -0.19423949688814       -0.04821606676520
O           -3.01729964997983       -0.38200532127625       -0.07116223676535
N           -0.93905393892710       -1.30149801014905       -0.03728922193929
C           -1.47911774365865       -2.63890902121866       -0.05604314431434
H            3.72366468322080        1.21407118579963        1.07063563593377
H            4.00155972847796        1.04380096229243       -0.67681386314369
H            2.69624883074981        2.10457798593808       -0.07953552688557
H            3.58943692192809       -1.64587933251924        0.05056227745284
H           -1.66418064375931        3.08880928126951       -0.02985986187459
H           -2.82899317337388        2.10082430165512       -0.95566149982752
H           -2.88009593924703        2.08538306578101        0.81386560492734
H           -1.17048106557310       -3.18713463973474        0.83664783140033
H           -1.15357086401717       -3.16997606677418       -0.95245996064111
H           -2.56379411812667       -2.54820233925982       -0.06727967359519
H            1.44928419108347       -2.97936482785366       -0.04035339311301
25
 energy: -43.838458779716 gnorm: 0.002268080147 xtb: 6.6.1 (8d0f1dd)
C            3.23753223557988        1.17420670732407        0.08944466830925
N            2.30156735883850        0.09958458412177        0.03947010367859
C            2.60758983092981       -1.24369746724051        0.03215767580908
N            1.43616936450553       -1.96488007193333       -0.00471384230743
C            0.40621130379149       -1.08307477547984       -0.00877383502984
C            0.91528975913236        0.21226345978923        0.01861641038438
C            0.11276268692653        1.37947308120866       -0.00265731346670
O            0.49224049193663        2.55614159027127       -0.00198443800701
N           -1.27196481099443        1.05295561943367       -0.03162351843419
C           -2.22324916739403        2.15356172482825       -0.05251478434658
C           -1.81760491425697       -0.19322644192844       -0.04728023510761
O           -3.01676548891918       -0.38067327046943       -0.07134083271518
N           -0.93897992618481       -1.30071444358574       -0.03634615286374
C           -1.47845522924123       -2.63807091075621       -0.05675741598126
H            3.72635686510225        1.21647788726004        1.06810111958394
H            4.00153105082413        1.04453816373641       -0.67907134452010
H            2.69589687924733        2.10315501445724       -0.08139595195467
H            3.58782374110745       -1.64774823866249        0.05100902384350
H           -1.66570067222064        3.08854776795956       -0.03026167586208
H           -2.82861979201654        2.09815000992403       -0.95677466012872
H           -2.88217665966387        2.08396541915048        0.81267767731628
H           -1.17125290606689       -3.18612409883963        0.83649626809855
H           -1.15038289413542       -3.16835295626438       -0.95269414389916
H           -2.56302027014042       -2.54766705394378       -0.07057007682967
H            1.44793423690475       -2.98055333458792       -0.04097482187189
25
 energy: -43.838468682321 gnorm: 0.001230005853 xtb: 6.6.1 (8d0f1dd)
C            3.23749902000351        1.17410517942532        0.09046414463049
N            2.30201937741100        0.09935912871083        0.03905890161947
C            2.60786129036845       -1.24364294449896        0.03154378652648
N            1.43637746947217       -1.96451465577025       -0.00560614052979
C            0.40641184046806       -1.08272584477608       -0.00979469742692
C            0.91576692682498        0.21236659300618        0.01729344297220
C            0.11312818909707        1.37954367267668       -0.00460075409824
O            0.49324206921377        2.55582667281352       -0.00432311515307
N           -1.27182851629353        1.05319135424318       -0.03265741065950
C           -2.22351156781769        2.15381552764193       -0.05231481352726
C           -1.81752027639853       -0.19323823407875       -0.04779998925793
O           -3.01654638089478       -0.38113517655522       -0.07109473296409
N           -0.93866462683659       -1.30058052167113       -0.03685122376143
C           -1.47803343696515       -2.63822674774747       -0.05616477692982
H            3.72496756656537        1.21559387246182        1.06996758199215
H            4.00184027373866        1.04534988466395       -0.67799948039002
H            2.69427361805678        2.10230985826675       -0.07975932314261
H            3.58826635418524       -1.64813349011974        0.05096423762831
H           -1.66578686668967        3.08854839634780       -0.03021987223094
H           -2.83029286499028        2.09962382104999       -0.95568358648262
H           -2.88190807911359        2.08489299519890        0.81331830986103
H           -1.17058546449400       -3.18643597726151        0.83686611575250
H           -1.15108499302291       -3.16946093396997       -0.95187598878222
H           -2.56255770166793       -2.54773384184140       -0.06899867197433
H            1.44739985337176       -2.98046062244337       -0.04149403997409
25
 energy: -43.838456965599 gnorm: 0.002383004085 xtb: 6.6.1 (8d0f1dd)
C            3.23733797510876        1.17495978916936        0.08978116713242
N            2.30198212724266        0.10053506511405        0.03875885775655
C            2.60887050311368       -1.24168772144077        0.03164723605008
N            1.43776695929996       -1.96316693549418       -0.00459750990958
C            0.40649511321096       -1.08276155252217       -0.00980573705646
C            0.91557445464987        0.21234805200403        0.01730520415842
C            0.11230740361169        1.37866980854810       -0.00388813998489
O            0.49242339317772        2.55481948982556       -0.00307264311470
N           -1.27238644390312        1.05205554449710       -0.03236643943890
C           -2.22253437092672        2.15413672952459       -0.05229046437634
C           -1.81828446205112       -0.19462194552534       -0.04789413400790
O           -3.01725280920084       -0.38317248522416       -0.07163023028782
N           -0.93879876609565       -1.30160679892812       -0.03698751184905
C           -1.47935389003170       -2.63911629037229       -0.05665603362065
H            3.72367587799622        1.21451054459371        1.06992080278248
H            4.00140446996853        1.04251135426082       -0.67830990326903
H            2.69592511898739        2.10429588116681       -0.08131669374422
H            3.59021813272735       -1.64517993326419        0.05092020960071
H           -1.66372297441130        3.08823347355839       -0.02939011519667
H           -2.82849009274012        2.10174643169100       -0.95622753668559
H           -2.88132832276772        2.08636932249240        0.81299904838985
H           -1.17158324318651       -3.18882024920970        0.83534966444747
H           -1.15478300726997       -3.17020414585255       -0.95331298113244
H           -2.56398225480605       -2.54780672624993       -0.06759582297603
H            1.44925218188822       -2.97880873658952       -0.03910238996996
25
 energy: -43.829800065466 gnorm: 0.066770632479 xtb: 6.6.1 (8d0f1dd)
C            3.23120856429847        1.17654933614059        0.09101300334813
N            2.28765741692624        0.10278693065342        0.04506459662253
C            2.60631368021080       -1.24314740781983        0.03488769147938
N            1.46687547395210       -2.01024698332160       -0.01340604283303
C            0.40892754823138       -1.10848095094216       -0.01052595947716
C            0.90701659604520        0.20158309634096        0.01817808713245
C            0.09319169920005        1.37904192250828       -0.00492516990795
O            0.49152612758677        2.56098383494672       -0.00368012784175
N           -1.26965298495809        1.06263081649312       -0.03418159555795
C           -2.22778025558875        2.16356016158110       -0.05511721448097
C           -1.82774926391950       -0.18673952629039       -0.04923398114984
O           -3.02134317174700       -0.36949906669546       -0.07210238054611
N           -0.94711749838446       -1.29600750738967       -0.03743678050061
C           -1.48298249558244       -2.63557513844713       -0.05334004346374
H            3.72981952843015        1.20362857086626        1.07200593365692
H            3.98868283590925        1.04932690863847       -0.67858942394214
H            2.69422050824321        2.10924700107405       -0.07356035853878
H            3.59417247530733       -1.62837689617167        0.06202886472041
H           -1.67346072355806        3.10241684883755       -0.03514878773642
H           -2.83190421479834        2.10542679842548       -0.95626742581072
H           -2.88447154580964        2.09124641221639        0.81098826933133
H           -1.17223286486086       -3.17353472408473        0.84191926057969
H           -1.16255032533070       -3.15912866258524       -0.94633760972549
H           -2.56647737375945       -2.54160508741530       -0.06326904169438
H            1.57344733252365       -3.08167392113716       -0.07112604545734
25
 energy: -43.834112427395 gnorm: 0.024340535188 xtb: 6.6.1 (8d0f1dd)
C            3.23976730631993        1.17829292762899        0.09315893128228
N            2.30233553159782        0.10252126863352        0.04272841174315
C            2.61486036444582       -1.24277351252130        0.03091947041489
N            1.44748262058260       -1.97579776534012       -0.01003959579778
C            0.40808289185879       -1.09340689106111       -0.01379742859195
C            0.91624369739622        0.20162945861019        0.01704442899593
C            0.10228545620552        1.36717855347059       -0.00441130457210
O            0.49463828042258        2.54353587602997       -0.00417248306586
N           -1.27170871016059        1.04978009885368       -0.03427778989869
C           -2.22428474813242        2.15250557885375       -0.05487050654463
C           -1.82558177949873       -0.19630670183797       -0.04995389287719
O           -3.02334405515383       -0.38459641068472       -0.07264025264036
N           -0.94315130293268       -1.29900580301443       -0.03986990149834
C           -1.48492097426128       -2.63715847686218       -0.05381278600718
H            3.73597900825542        1.21178147527399        1.07046780274334
H            3.99696400886601        1.05569375533619       -0.68211930739775
H            2.69255521923031        2.10648640262152       -0.06481207603623
H            3.60020097077411       -1.64289524779825        0.05855926046570
H           -1.65706361633370        3.08180293118808       -0.03343448122381
H           -2.83072041729755        2.10179253633456       -0.95801335606137
H           -2.88189452329596        2.08890054075761        0.81181271817260
H           -1.17262687061215       -3.18000314238398        0.83983116269309
H           -1.16075248710880       -3.16824125778893       -0.94795429061840
H           -2.57020194486336       -2.54486276065319       -0.06184471377251
H            1.50019314226325       -3.00244066722440       -0.06066030170034
25
 energy: -43.834669700349 gnorm: 0.012933972351 xtb: 6.6.1 (8d0f1dd)
C            3.22991759548169        1.17519940259235        0.09364723018094
N            2.29860242378373        0.09641441237274        0.04355866985009
C            2.61932918144349       -1.24710869187116        0.03433337743140
N            1.45749975249817       -1.98839840349922       -0.01472787605127
C            0.41447392903021       -1.10612463190498       -0.01409933129815
C            0.91339650896680        0.19442216722427        0.01744883407771
C            0.10677914818098        1.36664865775204       -0.00411029409358
O            0.49619441703288        2.54293925113039       -0.00319899961414
N           -1.27285891605880        1.05435468295744       -0.03373601220326
C           -2.22611180274740        2.15939745813779       -0.05476919210272
C           -1.81927914351998       -0.19289647559332       -0.04816225001686
O           -3.01880668770447       -0.37862291588855       -0.07077500310241
N           -0.93843021100505       -1.30176081717439       -0.03851454600813
C           -1.48711101518269       -2.63470468392488       -0.05188473779131
H            3.72299785476464        1.20817262589193        1.07119223965835
H            3.98856837530683        1.04662225617966       -0.67956641777272
H            2.68635207949399        2.10443690373489       -0.07325088668247
H            3.60674648701382       -1.63614891524535        0.06604676134775
H           -1.67336890703383        3.09792313983920       -0.03487008426339
H           -2.83452985308531        2.10634334608668       -0.95695419935774
H           -2.88583011467414        2.09395506778719        0.81028410448498
H           -1.17542993459814       -3.17775882844818        0.84245277273416
H           -1.16322155002351       -3.16522363183283       -0.94788467163172
H           -2.57120119707696       -2.53638534377368       -0.06156922296574
H            1.53065864828038       -3.00728326610798       -0.07305254660328
25
 energy: -43.834774504498 gnorm: 0.008667702257 xtb: 6.6.1 (8d0f1dd)
C            3.23300416438199        1.17482896615674        0.09384484913133
N            2.29535155909011        0.09855777631273        0.04212735817521
C            2.61273090103949       -1.24706535390236        0.03084462337605
N            1.45267250617136       -1.99306318139829       -0.00827682297023
C            0.41182669645981       -1.10627501426274       -0.01221015253885
C            0.90907905551889        0.19795291835943        0.01815072941335
C            0.10468378144486        1.37157572397265       -0.00427707070410
O            0.48676397513027        2.55036507682196       -0.00432098690550
N           -1.27712766130091        1.05525144347045       -0.03468848535720
C           -2.22634421838999        2.15990727118329       -0.05441349997165
C           -1.82212600087906       -0.19118071333547       -0.05003560851383
O           -3.02234104351801       -0.37627890050899       -0.07422982253738
N           -0.94118362236700       -1.30101578734089       -0.03831750981602
C           -1.48468587802474       -2.63557262379153       -0.05310871701264
H            3.73462211292062        1.20233574085677        1.06755093565841
H            3.99027480431851        1.05098975590694       -0.68225942800320
H            2.69734698756240        2.10967206056232       -0.06572579286350
H            3.59889599755102       -1.63472986488815        0.05721359140626
H           -1.66584853849846        3.09382872696126       -0.03349545518522
H           -2.83276746581173        2.10659865070288       -0.95796142149606
H           -2.88436092358763        2.09184654812252        0.81183946634929
H           -1.16957706174176       -3.17802089670655        0.84036499264298
H           -1.15744126858797       -3.16412614709305       -0.94916043104188
H           -2.56864649931723       -2.54592892371258       -0.06396058695591
H            1.53053470900247       -3.01604048602729       -0.05765703607323
25
 energy: -43.834854647017 gnorm: 0.005564450611 xtb: 6.6.1 (8d0f1dd)
C            3.23372305341470        1.17727406478263        0.09505076155861
N            2.29800433296714        0.09921824141882        0.04296799410304
C            2.61380661226736       -1.24688223629289        0.03265420357114
N            1.45181368819564       -1.99100739255969       -0.01458174741645
C            0.41228240944239       -1.10468253706062       -0.01445253402835
C            0.91110832772414        0.19849966429609        0.01714243488993
C            0.10821663504717        1.37078865487398       -0.00496481234545
O            0.49088499299986        2.54884354290770       -0.00409380251053
N           -1.27542983182313        1.05345892358477       -0.03436548650504
C           -2.22477002018059        2.15641240450201       -0.05475728387280
C           -1.82117217359286       -0.19202578145835       -0.04874904719776
O           -3.02123840641573       -0.37852533497488       -0.07077846872846
N           -0.94070056455503       -1.30082781425726       -0.03887079351093
C           -1.48710520881865       -2.63447561475505       -0.05179555281573
H            3.72966644523138        1.21305634087345        1.07176291283682
H            3.99491131764539        1.05440843106709       -0.67792937417277
H            2.69192405676116        2.10740627981685       -0.07093280123469
H            3.59963405088810       -1.63675271552028        0.06264925685887
H           -1.66231538316147        3.08874274982192       -0.03510095859619
H           -2.83132500644796        2.10170055860354       -0.95806089404937