      -----------------------------------------------------------      
     |                   =====================                   |     
     |                           x T B                           |     
     |                   =====================                   |     
     |                         S. Grimme                         |     
     |          Mulliken Center for Theoretical Chemistry        |     
     |                    University of Bonn                     |     
      -----------------------------------------------------------      

   * xtb version 6.6.1 (8d0f1dd) compiled by 'conda@1efc2f54142f' on 2023-08-01

   xtb is free software: you can redistribute it and/or modify it under
   the terms of the GNU Lesser General Public License as published by
   the Free Software Foundation, either version 3 of the License, or
   (at your option) any later version.
   
   xtb is distributed in the hope that it will be useful,
   but WITHOUT ANY WARRANTY; without even the implied warranty of
   MERCHANTABILITY or FITNESS FOR A PARTICULAR PURPOSE.  See the
   GNU Lesser General Public License for more details.
   
   Cite this work as:
   * C. Bannwarth, E. Caldeweyher, S. Ehlert, A. Hansen, P. Pracht,
     J. Seibert, S. Spicher, S. Grimme, WIREs Comput. Mol. Sci., 2020, 11,
     e01493. DOI: 10.1002/wcms.1493
   
   for GFN2-xTB:
   * C. Bannwarth, S. Ehlert and S. Grimme., J. Chem. Theory Comput., 2019,
     15, 1652-1671. DOI: 10.1021/acs.jctc.8b01176
   for GFN1-xTB:
   * S. Grimme, C. Bannwarth, P. Shushkov, J. Chem. Theory Comput., 2017,
     13, 1989-2009. DOI: 10.1021/acs.jctc.7b00118
   for GFN0-xTB:
   * P. Pracht, E. Caldeweyher, S. Ehlert, S. Grimme, ChemRxiv, 2019, preprint.
     DOI: 10.26434/chemrxiv.8326202.v1
   for GFN-FF:
   * S. Spicher and S. Grimme, Angew. Chem. Int. Ed., 2020, 59, 15665-15673.
     DOI: 10.1002/anie.202004239
   
   for ALPB and GBSA implicit solvation:
   * S. Ehlert, M. Stahn, S. Spicher, S. Grimme, J. Chem. Theory Comput.,
     2021, 17, 4250-4261. DOI: 10.1021/acs.jctc.1c00471
   
   for DFT-D4:
   * E. Caldeweyher, C. Bannwarth and S. Grimme, J. Chem. Phys., 2017,
     147, 034112. DOI: 10.1063/1.4993215
   * E. Caldeweyher, S. Ehlert, A. Hansen, H. Neugebauer, S. Spicher,
     C. Bannwarth and S. Grimme, J. Chem. Phys., 2019, 150, 154122.
     DOI: 10.1063/1.5090222
   * E. Caldeweyher, J.-M. Mewes, S. Ehlert and S. Grimme, Phys. Chem. Chem. Phys.
     2020, 22, 8499-8512. DOI: 10.1039/D0CP00502A
   
   for sTDA-xTB:
   * S. Grimme and C. Bannwarth, J. Chem. Phys., 2016, 145, 054103.
     DOI: 10.1063/1.4959605
   
   in the mass-spec context:
   * V. Asgeirsson, C. Bauer and S. Grimme, Chem. Sci., 2017, 8, 4879.
     DOI: 10.1039/c7sc00601b
   * J. Koopman and S. Grimme, ACS Omega 2019, 4, 12, 15120-15133.
     DOI: 10.1021/acsomega.9b02011
   
   for metadynamics refer to:
   * S. Grimme, J. Chem. Theory Comput., 2019, 155, 2847-2862
     DOI: 10.1021/acs.jctc.9b00143
   
   for SPH calculations refer to:
   * S. Spicher and S. Grimme, J. Chem. Theory Comput., 2021, 17, 1701-1714
     DOI: 10.1021/acs.jctc.0c01306
   
   with help from (in alphabetical order)
   P. Atkinson, C. Bannwarth, F. Bohle, G. Brandenburg, E. Caldeweyher
   M. Checinski, S. Dohm, S. Ehlert, S. Ehrlich, I. Gerasimov, C. Hölzer
   A. Katbashev, J. Koopman, C. Lavigne, S. Lehtola, F. März, M. Müller,
   F. Musil, H. Neugebauer, J. Pisarek, C. Plett, P. Pracht, F. Pultar,
   J. Seibert, P. Shushkov, S. Spicher, M. Stahn, M. Steiner, T. Strunk,
   J. Stückrath, T. Rose, and J. Unsleber
   
 * started run on 2024/04/06 at 11:12:02.146     

           -------------------------------------------------
          |                Calculation Setup                |
           -------------------------------------------------

          program call               : xtb struc.xyz --opt loose --input .xc1 --gfn2
          hostname                   : n-62-30-23
          coordinate file            : struc.xyz
          omp threads                :                     1

   ID    Z sym.   atoms
    1    7 N      1, 17
    2    6 C      2-6, 8, 9, 11-16, 18-23, 25, 26, 28-33
    3    8 O      7, 10, 24, 27
    4    1 H      34-72
constraining bond 3 72 to    5.1400000 Å, actual value:    3.3670798 Å

           -------------------------------------------------
          |                 G F N 2 - x T B                 |
           -------------------------------------------------

        Reference                      10.1021/acs.jctc.8b01176
      * Hamiltonian:
        H0-scaling (s, p, d)           1.850000    2.230000    2.230000
        zeta-weighting                 0.500000
      * Dispersion:
        s8                             2.700000
        a1                             0.520000
        a2                             5.000000
        s9                             5.000000
      * Repulsion:
        kExp                           1.500000    1.000000
        rExp                           1.000000
      * Coulomb:
        alpha                          2.000000
        third order                    shell-resolved
        anisotropic                    true
        a3                             3.000000
        a5                             4.000000
        cn-shift                       1.200000
        cn-exp                         4.000000
        max-rad                        5.000000


          ...................................................
          :                      SETUP                      :
          :.................................................:
          :  # basis functions                 171          :
          :  # atomic orbitals                 171          :
          :  # shells                          105          :
          :  # electrons                       180          :
          :  max. iterations                   250          :
          :  Hamiltonian                  GFN2-xTB          :
          :  restarted?                      false          :
          :  GBSA solvation                  false          :
          :  PC potential                    false          :
          :  electronic temp.         5000.0000000     K    :
          :  accuracy                    1.0000000          :
          :  -> integral cutoff          0.2500000E+02      :
          :  -> integral neglect         0.1000000E-07      :
          :  -> SCF convergence          0.1000000E-05 Eh   :
          :  -> wf. convergence          0.1000000E-03 e    :
          :  Broyden damping             0.4000000          :
          ...................................................

 iter      E             dE          RMSdq      gap      omega  full diag
   1   -100.5973919 -0.100597E+03  0.374E+00    3.20       0.0  T
   2   -100.7362642 -0.138872E+00  0.221E+00    1.08       1.0  T
   3   -100.7049001  0.313641E-01  0.141E+00    3.29       1.0  T
   4   -100.7721690 -0.672689E-01  0.526E-01    1.50       1.0  T
   5   -100.7894292 -0.172602E-01  0.190E-01    1.98       1.0  T
   6   -100.7911978 -0.176856E-02  0.792E-02    1.77       1.0  T
   7   -100.7914750 -0.277198E-03  0.375E-02    1.83       1.0  T
   8   -100.7914914 -0.164582E-04  0.140E-02    1.83       1.0  T
   9   -100.7914976 -0.616739E-05  0.474E-03    1.82       2.5  T
  10   -100.7914988 -0.118227E-05  0.172E-03    1.82       6.8  T
  11   -100.7914989 -0.139928E-06  0.766E-04    1.82      15.4  T
  12   -100.7914989 -0.773143E-08  0.318E-04    1.82      37.0  T

   *** convergence criteria satisfied after 12 iterations ***

         #    Occupation            Energy/Eh            Energy/eV
      -------------------------------------------------------------
         1        2.0000           -0.8078051             -21.9815
       ...           ...                  ...                  ...
        84        1.9966           -0.5157491             -14.0342
        85        1.9959           -0.5128261             -13.9547
        86        1.9840           -0.4911498             -13.3649
        87        1.9795           -0.4872543             -13.2589
        88        1.9640           -0.4782114             -13.0128
        89        1.8920           -0.4602041             -12.5228
        90        1.8557           -0.4553147             -12.3897 (HOMO)
        91        0.3166           -0.3884132             -10.5693 (LUMO)
        92        0.0218           -0.3434697              -9.3463
        93        0.0041           -0.3169887              -8.6257
        94        0.0034           -0.3139726              -8.5436
        95        0.0029           -0.3112618              -8.4699
       ...           ...                  ...                  ...
       171                          0.5822580              15.8440
      -------------------------------------------------------------
                  HL-Gap            0.0669015 Eh            1.8205 eV
             Fermi-level           -0.4148687 Eh          -11.2892 eV

 SCC (total)                   0 d,  0 h,  0 min,  0.191 sec
 SCC setup                      ...        0 min,  0.001 sec (  0.596%)
 Dispersion                     ...        0 min,  0.002 sec (  0.990%)
 classical contributions        ...        0 min,  0.000 sec (  0.254%)
 integral evaluation            ...        0 min,  0.019 sec (  9.685%)
 iterations                     ...        0 min,  0.099 sec ( 51.653%)
 molecular gradient             ...        0 min,  0.070 sec ( 36.476%)
 printout                       ...        0 min,  0.001 sec (  0.339%)

         :::::::::::::::::::::::::::::::::::::::::::::::::::::
         ::                     SUMMARY                     ::
         :::::::::::::::::::::::::::::::::::::::::::::::::::::
         :: total energy             -98.842894278145 Eh    ::
         :: gradient norm              0.475695399425 Eh/a0 ::
         :: HOMO-LUMO gap              1.820481192090 eV    ::
         ::.................................................::
         :: SCC energy              -100.791498925389 Eh    ::
         :: -> isotropic ES            0.109302908418 Eh    ::
         :: -> anisotropic ES          0.005415138735 Eh    ::
         :: -> anisotropic XC          0.042392697176 Eh    ::
         :: -> dispersion             -0.075527661009 Eh    ::
         :: repulsion energy           1.386151658689 Eh    ::
         :: add. restraining           0.561236636049 Eh    ::
         :: total charge               1.000000000108 e     ::
         :::::::::::::::::::::::::::::::::::::::::::::::::::::

      ----------------------------------------------------------- 
     |                   =====================                   |
     |                        A N C O P T                        |
     |                   =====================                   |
     |               Approximate Normal Coordinate               |
     |                Rational Function Optimizer                |
      ----------------------------------------------------------- 

          ...................................................
          :                      SETUP                      :
          :.................................................:
          :   optimization level             loose          :
          :   max. optcycles                   200          :
          :   ANC micro-cycles                  20          :
          :   degrees of freedom               210          :
          :.................................................:
          :   RF solver                   davidson          :
          :   write xtbopt.log                true          :
          :   linear?                        false          :
          :   energy convergence         0.5000000E-04 Eh   :
          :   grad. convergence          0.4000000E-02 Eh/α :
          :   maxmium RF displ.          1.0000000          :
          :   Hlow (freq-cutoff)         0.1000000E-01      :
          :   Hmax (freq-cutoff)         5.0000000          :
          :   S6 in model hess.         20.0000000          :
          ...................................................

generating ANC from model Hessian ...
Using Lindh-Hessian (1995)
 Shifting diagonal of input Hessian by    6.1043492489580090E-002
 Lowest  eigenvalues of input Hessian
    0.010000    0.024189    0.000000    0.000000    0.000000    0.000000
    0.000000    0.000000    0.061124    0.061182    0.061249    0.061319
    0.061390    0.061719    0.061891    0.062114    0.062371    0.062981
 Highest eigenvalues
    2.087007    2.096917    2.102625    2.232874    2.235542    2.244860


........................................................................
.............................. CYCLE    1 ..............................
........................................................................

 iter      E             dE          RMSdq      gap      omega  full diag
   1   -100.7914989 -0.100791E+03  0.114E-04    1.82       0.0  T
   2   -100.7914989 -0.678995E-10  0.713E-05    1.82     165.2  T
   3   -100.7914989  0.665210E-10  0.496E-05    1.82     237.5  T
     SCC iter.                  ...        0 min,  0.026 sec
     gradient                   ...        0 min,  0.070 sec
 * total energy  :   -98.8428943 Eh     change       -0.4035485E-08 Eh
   gradient norm :     0.4756959 Eh/α   predicted     0.0000000E+00 (-100.00%)
   displ. norm   :     0.5464595 α      lambda       -0.2388071E+00
   maximum displ.:     0.2957553 α      in ANC's #142, #154, #153, ...

........................................................................
.............................. CYCLE    2 ..............................
........................................................................

 iter      E             dE          RMSdq      gap      omega  full diag
   1   -100.7325662 -0.100733E+03  0.315E-01    1.74       0.0  T
   2   -100.7329250 -0.358791E-03  0.215E-01    1.88       1.0  T
   3   -100.7320537  0.871330E-03  0.146E-01    1.67       1.0  T
   4   -100.7333028 -0.124914E-02  0.563E-02    1.85       1.0  T
   5   -100.7336140 -0.311177E-03  0.137E-02    1.80       1.0  T
   6   -100.7336237 -0.972758E-05  0.592E-03    1.80       2.0  T
   7   -100.7336242 -0.530351E-06  0.244E-03    1.80       4.8  T
   8   -100.7336245 -0.269677E-06  0.634E-04    1.80      18.6  T
   9   -100.7336245 -0.154007E-07  0.275E-04    1.80      42.8  T
     SCC iter.                  ...        0 min,  0.073 sec
     gradient                   ...        0 min,  0.075 sec
 * total energy  :   -99.0261322 Eh     change       -0.1832380E+00 Eh
   gradient norm :     0.2627250 Eh/α   predicted    -0.1550626E+00 ( -15.38%)
   displ. norm   :     0.5771120 α      lambda       -0.1334289E+00
   maximum displ.:     0.2716970 α      in ANC's #142, #154, #98, ...

........................................................................
.............................. CYCLE    3 ..............................
........................................................................

 iter      E             dE          RMSdq      gap      omega  full diag
   1   -100.6655736 -0.100666E+03  0.264E-01    1.73       0.0  T
   2   -100.6653273  0.246391E-03  0.192E-01    1.89       1.0  T
   3   -100.6661012 -0.773967E-03  0.136E-01    1.71       1.0  T
   4   -100.6666547 -0.553500E-03  0.528E-02    1.83       1.0  T
   5   -100.6669295 -0.274773E-03  0.143E-02    1.78       1.0  T
   6   -100.6669406 -0.111414E-04  0.573E-03    1.79       2.1  T
   7   -100.6669412 -0.538692E-06  0.301E-03    1.79       3.9  T
   8   -100.6669416 -0.430178E-06  0.850E-04    1.79      13.9  T
   9   -100.6669416 -0.259019E-07  0.333E-04    1.79      35.4  T
     SCC iter.                  ...        0 min,  0.073 sec
     gradient                   ...        0 min,  0.069 sec
 * total energy  :   -99.1262305 Eh     change       -0.1000983E+00 Eh
   gradient norm :     0.1445888 Eh/α   predicted    -0.8893517E-01 ( -11.15%)
   displ. norm   :     0.5632920 α      lambda       -0.6637429E-01
   maximum displ.:     0.1947250 α      in ANC's #142, #98, #86, ...

........................................................................
.............................. CYCLE    4 ..............................
........................................................................

 iter      E             dE          RMSdq      gap      omega  full diag
   1   -100.6175339 -0.100618E+03  0.234E-01    1.73       0.0  T
   2   -100.6169352  0.598635E-03  0.165E-01    1.86       1.0  T
   3   -100.6179743 -0.103906E-02  0.125E-01    1.71       1.0  T
   4   -100.6184898 -0.515532E-03  0.471E-02    1.81       1.0  T
   5   -100.6186976 -0.207748E-03  0.130E-02    1.77       1.0  T
   6   -100.6187052 -0.764254E-05  0.546E-03    1.78       2.2  T
   7   -100.6187064 -0.113694E-05  0.317E-03    1.78       3.7  T
   8   -100.6187068 -0.469019E-06  0.102E-03    1.78      11.6  T
   9   -100.6187069 -0.524408E-07  0.334E-04    1.78      35.3  T
  10   -100.6187069 -0.408487E-08  0.159E-04    1.78      74.1  T
     SCC iter.                  ...        0 min,  0.082 sec
     gradient                   ...        0 min,  0.070 sec
 * total energy  :   -99.1765802 Eh     change       -0.5034964E-01 Eh
   gradient norm :     0.1033291 Eh/α   predicted    -0.4371831E-01 ( -13.17%)
   displ. norm   :     0.5377925 α      lambda       -0.3725950E-01
   maximum displ.:     0.1688440 α      in ANC's #51, #86, #142, ...

........................................................................
.............................. CYCLE    5 ..............................
........................................................................

 iter      E             dE          RMSdq      gap      omega  full diag
   1   -100.5946295 -0.100595E+03  0.324E-01    1.67       0.0  T
   2   -100.5963976 -0.176807E-02  0.154E-01    1.69       1.0  T
   3   -100.5965701 -0.172555E-03  0.965E-02    1.74       1.0  T
   4   -100.5967192 -0.149053E-03  0.795E-02    1.68       1.0  T
   5   -100.5970588 -0.339631E-03  0.296E-02    1.73       1.0  T
   6   -100.5971423 -0.835486E-04  0.587E-03    1.71       2.0  T
   7   -100.5971427 -0.331129E-06  0.323E-03    1.71       3.7  T
   8   -100.5971430 -0.351491E-06  0.123E-03    1.71       9.5  T
   9   -100.5971431 -0.111049E-06  0.540E-04    1.71      21.8  T
  10   -100.5971432 -0.173540E-07  0.207E-04    1.71      56.8  T
     SCC iter.                  ...        0 min,  0.081 sec
     gradient                   ...        0 min,  0.069 sec
 * total energy  :   -99.2061183 Eh     change       -0.2953816E-01 Eh
   gradient norm :     0.0904505 Eh/α   predicted    -0.2401788E-01 ( -18.69%)
   displ. norm   :     0.5677896 α      lambda       -0.2827129E-01
   maximum displ.:     0.1859822 α      in ANC's #51, #86, #98, ...

........................................................................
.............................. CYCLE    6 ..............................
........................................................................

 iter      E             dE          RMSdq      gap      omega  full diag
   1   -100.5933923 -0.100593E+03  0.562E-01    1.03       0.0  T
   2   -100.5875146  0.587769E-02  0.461E-01    1.35       1.0  T
   3   -100.6004528 -0.129382E-01  0.238E-01    1.20       1.0  T
   4   -100.6052172 -0.476438E-02  0.126E-01    1.24       1.0  T
   5   -100.6059406 -0.723388E-03  0.408E-02    1.23       1.0  T
   6   -100.6061044 -0.163785E-03  0.112E-02    1.23       1.1  T
   7   -100.6061006  0.380811E-05  0.101E-02    1.23       1.2  T
   8   -100.6061104 -0.980231E-05  0.333E-03    1.23       3.5  T
   9   -100.6061113 -0.880919E-06  0.104E-03    1.23      11.3  T
  10   -100.6061113 -0.565524E-07  0.380E-04    1.23      31.0  T
  11   -100.6061113 -0.250321E-08  0.207E-04    1.23      56.9  T
     SCC iter.                  ...        0 min,  0.089 sec
     gradient                   ...        0 min,  0.069 sec
 * total energy  :   -99.2254149 Eh     change       -0.1929661E-01 Eh
   gradient norm :     0.0370470 Eh/α   predicted    -0.1869283E-01 (  -3.13%)
   displ. norm   :     0.2959197 α      lambda       -0.5883691E-02
   maximum displ.:     0.1090409 α      in ANC's #86, #51, #98, ...

........................................................................
.............................. CYCLE    7 ..............................
........................................................................

 iter      E             dE          RMSdq      gap      omega  full diag
   1   -100.6122505 -0.100612E+03  0.245E-01    0.92       0.0  T
   2   -100.6087509  0.349960E-02  0.251E-01    1.10       1.0  T
   3   -100.6134675 -0.471655E-02  0.117E-01    0.99       1.0  T
   4   -100.6144934 -0.102590E-02  0.599E-02    1.01       1.0  T
   5   -100.6146312 -0.137871E-03  0.306E-02    1.01       1.0  T
   6   -100.6147378 -0.106602E-03  0.985E-03    1.01       1.2  T
   7   -100.6147464 -0.850487E-05  0.345E-03    1.01       3.4  T
   8   -100.6147469 -0.541272E-06  0.125E-03    1.01       9.4  T
   9   -100.6147470 -0.690731E-07  0.525E-04    1.01      22.5  T
  10   -100.6147470 -0.189241E-07  0.216E-04    1.01      54.6  T
     SCC iter.                  ...        0 min,  0.081 sec
     gradient                   ...        0 min,  0.069 sec
 * total energy  :   -99.2290525 Eh     change       -0.3637538E-02 Eh
   gradient norm :     0.0441264 Eh/α   predicted    -0.3199460E-02 ( -12.04%)
   displ. norm   :     0.1860127 α      lambda       -0.2884855E-02
   maximum displ.:     0.0635353 α      in ANC's #86, #51, #43, ...

........................................................................
.............................. CYCLE    8 ..............................
........................................................................

 iter      E             dE          RMSdq      gap      omega  full diag
   1   -100.6134131 -0.100613E+03  0.101E-01    0.95       0.0  T
   2   -100.6125792  0.833914E-03  0.116E-01    1.00       1.0  T
   3   -100.6136623 -0.108310E-02  0.467E-02    0.96       1.0  T
   4   -100.6136825 -0.202827E-04  0.269E-02    0.97       1.0  T
   5   -100.6137520 -0.694308E-04  0.115E-02    0.97       1.0  T
   6   -100.6137670 -0.150103E-04  0.407E-03    0.97       2.9  T
   7   -100.6137682 -0.124372E-05  0.161E-03    0.97       7.3  T
   8   -100.6137684 -0.147027E-06  0.412E-04    0.97      28.6  T
   9   -100.6137684 -0.659780E-08  0.191E-04    0.97      61.5  T
     SCC iter.                  ...        0 min,  0.073 sec
     gradient                   ...        0 min,  0.069 sec
 * total energy  :   -99.2312796 Eh     change       -0.2227110E-02 Eh
   gradient norm :     0.0272949 Eh/α   predicted    -0.1492345E-02 ( -32.99%)
   displ. norm   :     0.2545610 α      lambda       -0.3201788E-02
   maximum displ.:     0.0656762 α      in ANC's #43, #14, #28, ...

........................................................................
.............................. CYCLE    9 ..............................
........................................................................

 iter      E             dE          RMSdq      gap      omega  full diag
   1   -100.6133843 -0.100613E+03  0.138E-01    0.92       0.0  T
   2   -100.6116935  0.169088E-02  0.159E-01    0.99       1.0  T
   3   -100.6138206 -0.212710E-02  0.671E-02    0.93       1.0  T
   4   -100.6138882 -0.676152E-04  0.348E-02    0.95       1.0  T
   5   -100.6140294 -0.141194E-03  0.134E-02    0.95       1.0  T
   6   -100.6140474 -0.180279E-04  0.516E-03    0.95       2.3  T
   7   -100.6140490 -0.159662E-05  0.220E-03    0.95       5.4  T
   8   -100.6140493 -0.352716E-06  0.520E-04    0.95      22.7  T
   9   -100.6140494 -0.134021E-07  0.249E-04    0.95      47.4  T
     SCC iter.                  ...        0 min,  0.073 sec
     gradient                   ...        0 min,  0.069 sec
 * total energy  :   -99.2333765 Eh     change       -0.2096878E-02 Eh
   gradient norm :     0.0211177 Eh/α   predicted    -0.1704799E-02 ( -18.70%)
   displ. norm   :     0.1664872 α      lambda       -0.1335976E-02
   maximum displ.:     0.0502245 α      in ANC's #14, #13, #12, ...

........................................................................
.............................. CYCLE   10 ..............................
........................................................................

 iter      E             dE          RMSdq      gap      omega  full diag
   1   -100.6154263 -0.100615E+03  0.843E-02    0.91       0.0  T
   2   -100.6143615  0.106479E-02  0.117E-01    0.97       1.0  T
   3   -100.6157207 -0.135919E-02  0.352E-02    0.92       1.0  T
   4   -100.6156849  0.357871E-04  0.265E-02    0.93       1.0  T
   5   -100.6157715 -0.865574E-04  0.766E-03    0.93       1.5  T
   6   -100.6157765 -0.500805E-05  0.280E-03    0.93       4.2  T
   7   -100.6157769 -0.384602E-06  0.133E-03    0.93       8.9  T
   8   -100.6157770 -0.150716E-06  0.318E-04    0.93      37.0  T
   9   -100.6157770 -0.412757E-08  0.149E-04    0.93      79.3  T
     SCC iter.                  ...        0 min,  0.073 sec
     gradient                   ...        0 min,  0.069 sec
 * total energy  :   -99.2344378 Eh     change       -0.1061324E-02 Eh
   gradient norm :     0.0247836 Eh/α   predicted    -0.6865124E-03 ( -35.32%)
   displ. norm   :     0.3042344 α      lambda       -0.2460091E-02
   maximum displ.:     0.0954451 α      in ANC's #14, #12, #13, ...

........................................................................
.............................. CYCLE   11 ..............................
........................................................................

 iter      E             dE          RMSdq      gap      omega  full diag
   1   -100.6180722 -0.100618E+03  0.147E-01    0.86       0.0  T
   2   -100.6133502  0.472207E-02  0.237E-01    0.98       1.0  T
   3   -100.6193200 -0.596987E-02  0.531E-02    0.88       1.0  T
   4   -100.6191865  0.133544E-03  0.404E-02    0.89       1.0  T
   5   -100.6193994 -0.212945E-03  0.110E-02    0.89       1.1  T
   6   -100.6194101 -0.106846E-04  0.487E-03    0.89       2.4  T
   7   -100.6194114 -0.123496E-05  0.204E-03    0.89       5.8  T
   8   -100.6194117 -0.301206E-06  0.666E-04    0.89      17.7  T
   9   -100.6194117 -0.236091E-07  0.259E-04    0.89      45.5  T
     SCC iter.                  ...        0 min,  0.073 sec
     gradient                   ...        0 min,  0.069 sec
 * total energy  :   -99.2363605 Eh     change       -0.1922728E-02 Eh
   gradient norm :     0.0323249 Eh/α   predicted    -0.1343917E-02 ( -30.10%)
   displ. norm   :     0.4164773 α      lambda       -0.3521565E-02
   maximum displ.:     0.1277555 α      in ANC's #14, #12, #13, ...

........................................................................
.............................. CYCLE   12 ..............................
........................................................................

 iter      E             dE          RMSdq      gap      omega  full diag
   1   -100.6207448 -0.100621E+03  0.186E-01    0.78       0.0  T
   2   -100.6122270  0.851789E-02  0.316E-01    0.95       1.0  T
   3   -100.6229461 -0.107191E-01  0.653E-02    0.82       1.0  T
   4   -100.6228054  0.140652E-03  0.398E-02    0.83       1.0  T
   5   -100.6230165 -0.211048E-03  0.777E-03    0.83       1.5  T
   6   -100.6230202 -0.372893E-05  0.688E-03    0.83       1.7  T
   7   -100.6230239 -0.372919E-05  0.240E-03    0.83       4.9  T
   8   -100.6230242 -0.241719E-06  0.104E-03    0.83      11.3  T
   9   -100.6230242 -0.721395E-07  0.324E-04    0.83      36.4  T
  10   -100.6230242 -0.403108E-08  0.134E-04    0.83      88.0  T
     SCC iter.                  ...        0 min,  0.081 sec
     gradient                   ...        0 min,  0.070 sec
 * total energy  :   -99.2392355 Eh     change       -0.2875009E-02 Eh
   gradient norm :     0.0445812 Eh/α   predicted    -0.2066479E-02 ( -28.12%)
   displ. norm   :     0.5252344 α      lambda       -0.5864132E-02
   maximum displ.:     0.1585249 α      in ANC's #12, #14, #51, ...

........................................................................
.............................. CYCLE   13 ..............................
........................................................................

 iter      E             dE          RMSdq      gap      omega  full diag
   1   -100.6250163 -0.100625E+03  0.215E-01    0.68       0.0  T
   2   -100.6154271  0.958920E-02  0.343E-01    0.86       1.0  T
   3   -100.6275616 -0.121345E-01  0.853E-02    0.72       1.0  T
   4   -100.6274266  0.135003E-03  0.516E-02    0.73       1.0  T
   5   -100.6276757 -0.249129E-03  0.107E-02    0.73       1.1  T
   6   -100.6276841 -0.838479E-05  0.470E-03    0.73       2.5  T
   7   -100.6276846 -0.481376E-06  0.256E-03    0.73       4.6  T
   8   -100.6276847 -0.855848E-07  0.138E-03    0.73       8.5  T
   9   -100.6276850 -0.285266E-06  0.402E-04    0.73      29.3  T
  10   -100.6276850 -0.145252E-07  0.141E-04    0.73      83.6  T
     SCC iter.                  ...        0 min,  0.080 sec
     gradient                   ...        0 min,  0.069 sec
 * total energy  :   -99.2448373 Eh     change       -0.5601756E-02 Eh
   gradient norm :     0.0677883 Eh/α   predicted    -0.3740957E-02 ( -33.22%)
   displ. norm   :     0.7789144 α      lambda       -0.1406893E-01
   maximum displ.:     0.2454744 α      in ANC's #51, #12, #14, ...

........................................................................
.............................. CYCLE   14 ..............................
........................................................................

 iter      E             dE          RMSdq      gap      omega  full diag
   1   -100.6342443 -0.100634E+03  0.313E-01    0.50       0.0  T
   2   -100.6232943  0.109499E-01  0.403E-01    0.76       1.0  T
   3   -100.6372717 -0.139774E-01  0.154E-01    0.53       1.0  T
   4   -100.6374217 -0.150036E-03  0.892E-02    0.58       1.0  T
   5   -100.6380011 -0.579341E-03  0.270E-02    0.57       1.0  T
   6   -100.6380540 -0.529441E-04  0.863E-03    0.56       1.4  T
   7   -100.6380547 -0.677503E-06  0.490E-03    0.57       2.4  T
   8   -100.6380557 -0.993543E-06  0.200E-03    0.56       5.9  T
   9   -100.6380563 -0.671360E-06  0.580E-04    0.57      20.3  T
  10   -100.6380564 -0.279074E-07  0.240E-04    0.57      49.1  T
     SCC iter.                  ...        0 min,  0.080 sec
     gradient                   ...        0 min,  0.070 sec
 * total energy  :   -99.2549234 Eh     change       -0.1008610E-01 Eh
   gradient norm :     0.1155346 Eh/α   predicted    -0.1130243E-01 (  12.06%)
   displ. norm   :     0.3982504 α      lambda       -0.1258129E-01
   maximum displ.:     0.1069527 α      in ANC's #154, #158, #43, ...

........................................................................
.............................. CYCLE   15 ..............................
........................................................................

 iter      E             dE          RMSdq      gap      omega  full diag
   1   -100.6531712 -0.100653E+03  0.222E-01    0.50       0.0  T
   2   -100.6533053 -0.134089E-03  0.126E-01    0.51       1.0  T
   3   -100.6528861  0.419225E-03  0.111E-01    0.46       1.0  T
   4   -100.6532999 -0.413819E-03  0.777E-02    0.54       1.0  T
   5   -100.6538115 -0.511559E-03  0.197E-02    0.49       1.0  T
   6   -100.6538436 -0.321586E-04  0.681E-03    0.50       1.7  T
   7   -100.6538442 -0.573128E-06  0.391E-03    0.50       3.0  T
   8   -100.6538451 -0.947118E-06  0.128E-03    0.50       9.2  T
   9   -100.6538453 -0.206608E-06  0.683E-04    0.50      17.3  T
  10   -100.6538454 -0.407180E-07  0.250E-04    0.50      47.1  T
     SCC iter.                  ...        0 min,  0.080 sec
     gradient                   ...        0 min,  0.069 sec
 * total energy  :   -99.2619413 Eh     change       -0.7017902E-02 Eh
   gradient norm :     0.1492929 Eh/α   predicted    -0.7288434E-02 (   3.85%)
   displ. norm   :     0.3012623 α      lambda       -0.1453222E-01
   maximum displ.:     0.0972238 α      in ANC's #180, #164, #166, ...

........................................................................
.............................. CYCLE   16 ..............................
........................................................................

 iter      E             dE          RMSdq      gap      omega  full diag
   1   -100.6478543 -0.100648E+03  0.163E-01    0.52       0.0  T
   2   -100.6476848  0.169490E-03  0.120E-01    0.47       1.0  T
   3   -100.6480080 -0.323210E-03  0.753E-02    0.49       1.0  T
   4   -100.6479842  0.238321E-04  0.689E-02    0.53       1.0  T
   5   -100.6484221 -0.437899E-03  0.210E-02    0.48       1.0  T
   6   -100.6484563 -0.342755E-04  0.653E-03    0.49       1.8  T
   7   -100.6484586 -0.228098E-05  0.291E-03    0.49       4.0  T
   8   -100.6484586 -0.292538E-07  0.122E-03    0.49       9.7  T
   9   -100.6484589 -0.225579E-06  0.357E-04    0.49      33.0  T
  10   -100.6484589 -0.882913E-08  0.149E-04    0.49      79.1  T
     SCC iter.                  ...        0 min,  0.080 sec
     gradient                   ...        0 min,  0.069 sec
 * total energy  :   -99.2717001 Eh     change       -0.9758839E-02 Eh
   gradient norm :     0.0635662 Eh/α   predicted    -0.7925744E-02 ( -18.78%)
   displ. norm   :     0.6534723 α      lambda       -0.2053084E-01
   maximum displ.:     0.2198383 α      in ANC's #2, #55, #51, ...

........................................................................
.............................. CYCLE   17 ..............................
........................................................................

 iter      E             dE          RMSdq      gap      omega  full diag
   1   -100.6291722 -0.100629E+03  0.397E-01    0.75       0.0  T
   2   -100.6225657  0.660653E-02  0.353E-01    0.35       1.0  T
   3   -100.6264202 -0.385451E-02  0.280E-01    0.78       1.0  T
   4   -100.6307970 -0.437678E-02  0.114E-01    0.57       1.0  T
   5   -100.6325797 -0.178268E-02  0.270E-02    0.58       1.0  T
   6   -100.6326705 -0.908526E-04  0.112E-02    0.58       1.1  T
   7   -100.6326741 -0.353804E-05  0.708E-03    0.58       1.7  T
   8   -100.6326760 -0.194388E-05  0.275E-03    0.58       4.3  T
   9   -100.6326766 -0.582985E-06  0.736E-04    0.58      16.0  T
  10   -100.6326766 -0.464718E-07  0.311E-04    0.58      37.9  T
     SCC iter.                  ...        0 min,  0.081 sec
     gradient                   ...        0 min,  0.075 sec
 * total energy  :   -99.2799037 Eh     change       -0.8203562E-02 Eh
   gradient norm :     0.0942559 Eh/α   predicted    -0.1464911E-01 (  78.57%)
   displ. norm   :     0.2256496 α      lambda       -0.7881738E-02
   maximum displ.:     0.0893955 α      in ANC's #1, #2, #193, ...

........................................................................
.............................. CYCLE   18 ..............................
........................................................................

 iter      E             dE          RMSdq      gap      omega  full diag
   1   -100.6443848 -0.100644E+03  0.177E-01    0.63       0.0  T
   2   -100.6446965 -0.311660E-03  0.108E-01    0.57       1.0  T
   3   -100.6452410 -0.544540E-03  0.714E-02    0.64       1.0  T
   4   -100.6447826  0.458409E-03  0.791E-02    0.55       1.0  T
   5   -100.6454838 -0.701216E-03  0.105E-02    0.60       1.1  T
   6   -100.6454918 -0.797307E-05  0.510E-03    0.60       2.3  T
   7   -100.6454923 -0.469011E-06  0.247E-03    0.60       4.8  T
   8   -100.6454926 -0.291216E-06  0.770E-04    0.60      15.3  T
   9   -100.6454926 -0.370965E-07  0.289E-04    0.60      40.8  T
     SCC iter.                  ...        0 min,  0.073 sec
     gradient                   ...        0 min,  0.069 sec
 * total energy  :   -99.2852121 Eh     change       -0.5308429E-02 Eh
   gradient norm :     0.0832166 Eh/α   predicted    -0.4141602E-02 ( -21.98%)
   displ. norm   :     0.2965051 α      lambda       -0.7703360E-02
   maximum displ.:     0.1318804 α      in ANC's #2, #26, #41, ...

........................................................................
.............................. CYCLE   19 ..............................
........................................................................

 iter      E             dE          RMSdq      gap      omega  full diag
   1   -100.6607993 -0.100661E+03  0.247E-01    0.70       0.0  T
   2   -100.6597079  0.109146E-02  0.182E-01    0.49       1.0  T
   3   -100.6600798 -0.371897E-03  0.175E-01    0.77       1.0  T
   4   -100.6623552 -0.227539E-02  0.771E-02    0.60       1.0  T
   5   -100.6627640 -0.408867E-03  0.153E-02    0.63       1.0  T
   6   -100.6627951 -0.310415E-04  0.512E-03    0.62       2.3  T
   7   -100.6627960 -0.918066E-06  0.275E-03    0.62       4.3  T
   8   -100.6627966 -0.667171E-06  0.753E-04    0.62      15.7  T
   9   -100.6627967 -0.488457E-07  0.301E-04    0.63      39.2  T
     SCC iter.                  ...        0 min,  0.073 sec
     gradient                   ...        0 min,  0.069 sec
 * total energy  :   -99.2914562 Eh     change       -0.6244068E-02 Eh
   gradient norm :     0.0537384 Eh/α   predicted    -0.4190318E-02 ( -32.89%)
   displ. norm   :     0.6260967 α      lambda       -0.1320140E-01
   maximum displ.:     0.3288560 α      in ANC's #2, #26, #41, ...

........................................................................
.............................. CYCLE   20 ..............................
........................................................................

 iter      E             dE          RMSdq      gap      omega  full diag
   1   -100.6835845 -0.100684E+03  0.477E-01    0.74       0.0  T
   2   -100.6774602  0.612430E-02  0.389E-01    0.31       1.0  T
   3   -100.6796426 -0.218241E-02  0.344E-01    0.92       1.0  T
   4   -100.6849028 -0.526018E-02  0.200E-01    0.52       1.0  T
   5   -100.6888900 -0.398727E-02  0.522E-02    0.67       1.0  T
   6   -100.6891908 -0.300705E-03  0.145E-02    0.63       1.0  T
   7   -100.6892067 -0.159393E-04  0.641E-03    0.63       1.8  T
   8   -100.6892075 -0.776316E-06  0.281E-03    0.63       4.2  T
   9   -100.6892081 -0.653727E-06  0.656E-04    0.63      18.0  T
  10   -100.6892081 -0.221122E-07  0.280E-04    0.63      42.0  T
     SCC iter.                  ...        0 min,  0.081 sec
     gradient                   ...        0 min,  0.069 sec
 * total energy  :   -99.2952823 Eh     change       -0.3826114E-02 Eh
   gradient norm :     0.0826929 Eh/α   predicted    -0.9188162E-02 ( 140.14%)
   displ. norm   :     0.3063971 α      lambda       -0.1728577E-01
   maximum displ.:     0.0849491 α      in ANC's #14, #113, #36, ...
 * RMSD in coord.:     0.4073992 α      energy gain  -0.4523880E+00 Eh

generating ANC from model Hessian ...
Using Lindh-Hessian (1995)
 Shifting diagonal of input Hessian by    1.0628492555355803E-002
 Lowest  eigenvalues of input Hessian
    0.010000    0.010039    0.000000    0.000000    0.000000    0.000000
    0.000000    0.000000    0.010687    0.010706    0.010789    0.010897
    0.010970    0.011297    0.011428    0.011723    0.012004    0.012517
 Highest eigenvalues
    1.926744    2.041795    2.045025    2.184629    2.185078    2.408201


........................................................................
.............................. CYCLE   21 ..............................
........................................................................

 iter      E             dE          RMSdq      gap      omega  full diag
   1   -100.6828039 -0.100683E+03  0.167E-01    0.59       0.0  T
   2   -100.6828156 -0.117060E-04  0.110E-01    0.65       1.0  T
   3   -100.6828446 -0.290005E-04  0.783E-02    0.58       1.0  T
   4   -100.6830885 -0.243941E-03  0.267E-02    0.64       1.0  T
   5   -100.6831384 -0.498815E-04  0.145E-02    0.61       1.0  T
   6   -100.6831566 -0.181911E-04  0.628E-03    0.62       1.9  T
   7   -100.6831598 -0.318099E-05  0.241E-03    0.62       4.9  T
   8   -100.6831603 -0.492125E-06  0.651E-04    0.62      18.1  T
   9   -100.6831603 -0.203412E-07  0.278E-04    0.62      42.5  T
     SCC iter.                  ...        0 min,  0.073 sec
     gradient                   ...        0 min,  0.069 sec
 * total energy  :   -99.3027083 Eh     change       -0.7426044E-02 Eh
   gradient norm :     0.0495342 Eh/α   predicted     0.0000000E+00 (-100.00%)
   displ. norm   :     0.2732009 α      lambda       -0.6411218E-02
   maximum displ.:     0.1027590 α      in ANC's #55, #57, #13, ...

........................................................................
.............................. CYCLE   22 ..............................
........................................................................

 iter      E             dE          RMSdq      gap      omega  full diag
   1   -100.6904801 -0.100690E+03  0.159E-01    0.63       0.0  T
   2   -100.6903412  0.138976E-03  0.101E-01    0.58       1.0  T
   3   -100.6888159  0.152522E-02  0.134E-01    0.73       1.0  T
   4   -100.6903610 -0.154509E-02  0.524E-02    0.57       1.0  T
   5   -100.6906154 -0.254370E-03  0.655E-03    0.62       1.8  T
   6   -100.6906177 -0.230400E-05  0.297E-03    0.62       4.0  T
   7   -100.6906180 -0.306784E-06  0.158E-03    0.62       7.5  T
   8   -100.6906183 -0.259614E-06  0.551E-04    0.62      21.4  T
   9   -100.6906183 -0.194772E-07  0.190E-04    0.62      61.9  T
     SCC iter.                  ...        0 min,  0.073 sec
     gradient                   ...        0 min,  0.071 sec
 * total energy  :   -99.3071560 Eh     change       -0.4447681E-02 Eh
   gradient norm :     0.0370008 Eh/α   predicted    -0.3445400E-02 ( -22.53%)
   displ. norm   :     0.3880563 α      lambda       -0.6437266E-02
   maximum displ.:     0.1384116 α      in ANC's #13, #41, #11, ...

........................................................................
.............................. CYCLE   23 ..............................
........................................................................

 iter      E             dE          RMSdq      gap      omega  full diag
   1   -100.7060427 -0.100706E+03  0.191E-01    0.63       0.0  T
   2   -100.7055086  0.534098E-03  0.132E-01    0.53       1.0  T
   3   -100.7029216  0.258702E-02  0.186E-01    0.77       1.0  T
   4   -100.7061365 -0.321494E-02  0.449E-02    0.58       1.0  T
   5   -100.7063186 -0.182103E-03  0.137E-02    0.61       1.0  T
   6   -100.7063391 -0.204211E-04  0.434E-03    0.61       2.7  T
   7   -100.7063398 -0.761007E-06  0.202E-03    0.60       5.8  T
   8   -100.7063400 -0.219528E-06  0.772E-04    0.61      15.3  T
   9   -100.7063401 -0.357427E-07  0.243E-04    0.61      48.6  T
     SCC iter.                  ...        0 min,  0.072 sec
     gradient                   ...        0 min,  0.069 sec
 * total energy  :   -99.3110880 Eh     change       -0.3931994E-02 Eh
   gradient norm :     0.0365531 Eh/α   predicted    -0.3703321E-02 (  -5.82%)
   displ. norm   :     0.3442509 α      lambda       -0.3727653E-02
   maximum displ.:     0.1426233 α      in ANC's #13, #11, #18, ...

........................................................................
.............................. CYCLE   24 ..............................
........................................................................

 iter      E             dE          RMSdq      gap      omega  full diag
   1   -100.7102813 -0.100710E+03  0.121E-01    0.64       0.0  T
   2   -100.7096759  0.605390E-03  0.106E-01    0.52       1.0  T
   3   -100.7095917  0.841592E-04  0.102E-01    0.69       1.0  T
   4   -100.7102872 -0.695438E-03  0.406E-02    0.59       1.0  T
   5   -100.7104812 -0.194083E-03  0.718E-03    0.61       1.6  T
   6   -100.7104863 -0.509972E-05  0.244E-03    0.61       4.8  T
   7   -100.7104866 -0.313692E-06  0.113E-03    0.60      10.4  T
   8   -100.7104867 -0.629215E-07  0.504E-04    0.60      23.4  T
   9   -100.7104867 -0.254480E-07  0.189E-04    0.60      62.4  T
     SCC iter.                  ...        0 min,  0.073 sec
     gradient                   ...        0 min,  0.069 sec
 * total energy  :   -99.3139491 Eh     change       -0.2861052E-02 Eh
   gradient norm :     0.0260802 Eh/α   predicted    -0.2084709E-02 ( -27.13%)
   displ. norm   :     0.4818765 α      lambda       -0.4137328E-02
   maximum displ.:     0.1925956 α      in ANC's #11, #13, #18, ...

........................................................................
.............................. CYCLE   25 ..............................
........................................................................

 iter      E             dE          RMSdq      gap      omega  full diag
   1   -100.7113601 -0.100711E+03  0.158E-01    0.66       0.0  T
   2   -100.7102597  0.110041E-02  0.146E-01    0.50       1.0  T
   3   -100.7106294 -0.369758E-03  0.119E-01    0.72       1.0  T
   4   -100.7111711 -0.541706E-03  0.712E-02    0.58       1.0  T
   5   -100.7117765 -0.605349E-03  0.775E-03    0.62       1.5  T
   6   -100.7117810 -0.447564E-05  0.373E-03    0.61       3.2  T
   7   -100.7117818 -0.860751E-06  0.180E-03    0.61       6.6  T
   8   -100.7117820 -0.149191E-06  0.856E-04    0.61      13.8  T
   9   -100.7117820 -0.528813E-07  0.200E-04    0.61      58.9  T
     SCC iter.                  ...        0 min,  0.073 sec
     gradient                   ...        0 min,  0.069 sec
 * total energy  :   -99.3170153 Eh     change       -0.3066219E-02 Eh
   gradient norm :     0.0227845 Eh/α   predicted    -0.2549063E-02 ( -16.87%)
   displ. norm   :     0.4891822 α      lambda       -0.2684651E-02
   maximum displ.:     0.2074136 α      in ANC's #11, #18, #13, ...

........................................................................
.............................. CYCLE   26 ..............................
........................................................................

 iter      E             dE          RMSdq      gap      omega  full diag
   1   -100.7134889 -0.100713E+03  0.129E-01    0.67       0.0  T
   2   -100.7127170  0.771902E-03  0.125E-01    0.53       1.0  T
   3   -100.7132460 -0.528915E-03  0.886E-02    0.70       1.0  T
   4   -100.7132974 -0.514393E-04  0.682E-02    0.59       1.0  T
   5   -100.7138455 -0.548093E-03  0.651E-03    0.63       1.8  T
   6   -100.7138489 -0.337520E-05  0.321E-03    0.63       3.7  T
   7   -100.7138494 -0.569207E-06  0.151E-03    0.63       7.8  T
   8   -100.7138495 -0.106601E-06  0.668E-04    0.63      17.6  T
   9   -100.7138496 -0.302390E-07  0.184E-04    0.63      64.2  T
     SCC iter.                  ...        0 min,  0.073 sec
     gradient                   ...        0 min,  0.069 sec
 * total energy  :   -99.3189495 Eh     change       -0.1934200E-02 Eh
   gradient norm :     0.0205883 Eh/α   predicted    -0.1663574E-02 ( -13.99%)
   displ. norm   :     0.4482574 α      lambda       -0.1588242E-02
   maximum displ.:     0.1980457 α      in ANC's #11, #18, #13, ...

........................................................................
.............................. CYCLE   27 ..............................
........................................................................

 iter      E             dE          RMSdq      gap      omega  full diag
   1   -100.7156713 -0.100716E+03  0.104E-01    0.67       0.0  T
   2   -100.7153362  0.335116E-03  0.885E-02    0.58       1.0  T
   3   -100.7152811  0.550560E-04  0.800E-02    0.71       1.0  T
   4   -100.7155399 -0.258735E-03  0.483E-02    0.61       1.0  T
   5   -100.7158250 -0.285129E-03  0.427E-03    0.64       2.8  T
   6   -100.7158261 -0.111129E-05  0.237E-03    0.64       5.0  T
   7   -100.7158265 -0.377081E-06  0.115E-03    0.64      10.2  T
   8   -100.7158266 -0.849714E-07  0.489E-04    0.64      24.1  T
   9   -100.7158266 -0.157242E-07  0.135E-04    0.64      87.1  T
     SCC iter.                  ...        0 min,  0.073 sec
     gradient                   ...        0 min,  0.073 sec
 * total energy  :   -99.3201593 Eh     change       -0.1209835E-02 Eh
   gradient norm :     0.0181493 Eh/α   predicted    -0.9536913E-03 ( -21.17%)
   displ. norm   :     0.4579682 α      lambda       -0.1280515E-02
   maximum displ.:     0.2103353 α      in ANC's #11, #18, #12, ...

........................................................................
.............................. CYCLE   28 ..............................
........................................................................

 iter      E             dE          RMSdq      gap      omega  full diag
   1   -100.7180700 -0.100718E+03  0.905E-02    0.67       0.0  T
   2   -100.7179710  0.990463E-04  0.623E-02    0.62       1.0  T
   3   -100.7173572  0.613776E-03  0.873E-02    0.73       1.0  T
   4   -100.7180292 -0.671959E-03  0.266E-02    0.64       1.0  T
   5   -100.7181171 -0.878886E-04  0.338E-03    0.65       3.5  T
   6   -100.7181176 -0.542330E-06  0.177E-03    0.65       6.7  T
   7   -100.7181178 -0.163690E-06  0.909E-04    0.65      13.0  T
   8   -100.7181179 -0.843900E-07  0.362E-04    0.65      32.6  T
     SCC iter.                  ...        0 min,  0.065 sec
     gradient                   ...        0 min,  0.075 sec
 * total energy  :   -99.3211104 Eh     change       -0.9510745E-03 Eh
   gradient norm :     0.0107469 Eh/α   predicted    -0.7745428E-03 ( -18.56%)
   displ. norm   :     0.4365207 α      lambda       -0.8035794E-03
   maximum displ.:     0.2098526 α      in ANC's #11, #12, #18, ...

........................................................................
.............................. CYCLE   29 ..............................
........................................................................

 iter      E             dE          RMSdq      gap      omega  full diag
   1   -100.7162724 -0.100716E+03  0.909E-02    0.67       0.0  T
   2   -100.7161951  0.772355E-04  0.592E-02    0.63       1.0  T
   3   -100.7152901  0.905065E-03  0.974E-02    0.75       1.0  T
   4   -100.7162756 -0.985537E-03  0.142E-02    0.65       1.0  T
   5   -100.7162997 -0.240932E-04  0.271E-03    0.66       4.4  T
   6   -100.7162999 -0.237222E-06  0.158E-03    0.66       7.5  T
   7   -100.7163001 -0.117273E-06  0.606E-04    0.66      19.4  T
   8   -100.7163001 -0.352691E-07  0.190E-04    0.66      62.0  T
     SCC iter.                  ...        0 min,  0.065 sec
     gradient                   ...        0 min,  0.076 sec
 * total energy  :   -99.3216720 Eh     change       -0.5615810E-03 Eh
   gradient norm :     0.0085469 Eh/α   predicted    -0.4783522E-03 ( -14.82%)
   displ. norm   :     0.3684040 α      lambda       -0.5232145E-03
   maximum displ.:     0.1971474 α      in ANC's #11, #12, #18, ...

........................................................................
.............................. CYCLE   30 ..............................
........................................................................

 iter      E             dE          RMSdq      gap      omega  full diag
   1   -100.7211671 -0.100721E+03  0.399E-02    0.66       0.0  T
   2   -100.7211689 -0.188607E-05  0.241E-02    0.66       1.0  T
   3   -100.7211434  0.255192E-04  0.174E-02    0.65       1.0  T
   4   -100.7211605 -0.170724E-04  0.989E-03    0.67       1.2  T
   5   -100.7211713 -0.107742E-04  0.217E-03    0.66       5.4  T
   6   -100.7211716 -0.366061E-06  0.767E-04    0.66      15.4  T
   7   -100.7211717 -0.168860E-07  0.463E-04    0.66      25.5  T
     SCC iter.                  ...        0 min,  0.058 sec
     gradient                   ...        0 min,  0.069 sec
 * total energy  :   -99.3219579 Eh     change       -0.2859148E-03 Eh
   gradient norm :     0.0202202 Eh/α   predicted    -0.2971136E-03 (   3.92%)
   displ. norm   :     0.3374064 α      lambda       -0.4063301E-03
   maximum displ.:     0.1803538 α      in ANC's #11, #12, #10, ...

........................................................................
.............................. CYCLE   31 ..............................
........................................................................

 iter      E             dE          RMSdq      gap      omega  full diag
   1   -100.7174844 -0.100717E+03  0.601E-02    0.67       0.0  T
   2   -100.7174443  0.400859E-04  0.406E-02    0.65       1.0  T
   3   -100.7171217  0.322659E-03  0.606E-02    0.72       1.0  T
   4   -100.7174748 -0.353126E-03  0.143E-02    0.66       1.0  T
   5   -100.7175000 -0.251618E-04  0.199E-03    0.67       5.9  T
   6   -100.7175001 -0.160553E-06  0.116E-03    0.67      10.2  T
   7   -100.7175002 -0.663205E-07  0.367E-04    0.67      32.1  T
   8   -100.7175002 -0.787307E-08  0.145E-04    0.67      81.4  T
     SCC iter.                  ...        0 min,  0.066 sec
     gradient                   ...        0 min,  0.075 sec
 * total energy  :   -99.3222337 Eh     change       -0.2757728E-03 Eh
   gradient norm :     0.0070937 Eh/α   predicted    -0.2262963E-03 ( -17.94%)
   displ. norm   :     0.3157863 α      lambda       -0.3727968E-03
   maximum displ.:     0.1617809 α      in ANC's #11, #12, #10, ...

........................................................................
.............................. CYCLE   32 ..............................
........................................................................

 iter      E             dE          RMSdq      gap      omega  full diag
   1   -100.7183923 -0.100718E+03  0.387E-02    0.66       0.0  T
   2   -100.7183887  0.358464E-05  0.238E-02    0.67       1.0  T
   3   -100.7182540  0.134775E-03  0.350E-02    0.63       1.0  T
   4   -100.7183900 -0.136032E-03  0.683E-03    0.67       1.7  T
   5   -100.7183946 -0.464311E-05  0.120E-03    0.67       9.8  T
   6   -100.7183948 -0.135848E-06  0.565E-04    0.67      20.9  T
   7   -100.7183948 -0.177182E-07  0.238E-04    0.67      49.5  T
     SCC iter.                  ...        0 min,  0.058 sec
     gradient                   ...        0 min,  0.069 sec
 * total energy  :   -99.3225492 Eh     change       -0.3155729E-03 Eh
   gradient norm :     0.0071868 Eh/α   predicted    -0.2049868E-03 ( -35.04%)
   displ. norm   :     0.5259458 α      lambda       -0.6711423E-03
   maximum displ.:     0.2334002 α      in ANC's #11, #12, #10, ...

........................................................................
.............................. CYCLE   33 ..............................
........................................................................

 iter      E             dE          RMSdq      gap      omega  full diag
   1   -100.7188601 -0.100719E+03  0.849E-02    0.66       0.0  T
   2   -100.7187835  0.766001E-04  0.564E-02    0.69       1.0  T
   3   -100.7178894  0.894063E-03  0.958E-02    0.58       1.0  T
   4   -100.7188705 -0.981112E-03  0.109E-02    0.67       1.1  T
   5   -100.7188818 -0.113229E-04  0.297E-03    0.67       4.0  T
   6   -100.7188825 -0.638261E-06  0.142E-03    0.67       8.3  T
   7   -100.7188826 -0.114199E-06  0.471E-04    0.67      25.0  T
   8   -100.7188826 -0.976172E-08  0.133E-04    0.67      88.3  T
     SCC iter.                  ...        0 min,  0.066 sec
     gradient                   ...        0 min,  0.069 sec
 * total energy  :   -99.3230505 Eh     change       -0.5012654E-03 Eh
   gradient norm :     0.0090559 Eh/α   predicted    -0.4283979E-03 ( -14.54%)
   displ. norm   :     0.4206402 α      lambda       -0.4817735E-03
   maximum displ.:     0.1610228 α      in ANC's #19, #11, #10, ...

........................................................................
.............................. CYCLE   34 ..............................
........................................................................

 iter      E             dE          RMSdq      gap      omega  full diag
   1   -100.7205541 -0.100721E+03  0.874E-02    0.65       0.0  T
   2   -100.7203707  0.183427E-03  0.657E-02    0.71       1.0  T
   3   -100.7197699  0.600836E-03  0.909E-02    0.58       1.0  T
   4   -100.7205928 -0.822968E-03  0.602E-03    0.67       2.0  T
   5   -100.7205951 -0.232046E-05  0.227E-03    0.66       5.2  T
   6   -100.7205952 -0.107680E-06  0.110E-03    0.66      10.7  T
   7   -100.7205953 -0.269349E-07  0.479E-04    0.66      24.6  T
   8   -100.7205953 -0.258559E-07  0.154E-04    0.66      76.5  T
     SCC iter.                  ...        0 min,  0.066 sec
     gradient                   ...        0 min,  0.074 sec
 * total energy  :   -99.3233728 Eh     change       -0.3222929E-03 Eh
   gradient norm :     0.0091172 Eh/α   predicted    -0.2835107E-03 ( -12.03%)
   displ. norm   :     0.4703843 α      lambda       -0.3632722E-03
   maximum displ.:     0.2296776 α      in ANC's #11, #12, #10, ...

........................................................................
.............................. CYCLE   35 ..............................
........................................................................

 iter      E             dE          RMSdq      gap      omega  full diag
   1   -100.7168620 -0.100717E+03  0.660E-02    0.66       0.0  T
   2   -100.7167913  0.707794E-04  0.468E-02    0.69       1.0  T
   3   -100.7164218  0.369490E-03  0.673E-02    0.61       1.0  T
   4   -100.7168565 -0.434750E-03  0.173E-02    0.68       1.0  T
   5   -100.7168877 -0.312082E-04  0.284E-03    0.67       4.1  T
   6   -100.7168883 -0.597736E-06  0.134E-03    0.67       8.8  T
   7   -100.7168884 -0.884638E-07  0.557E-04    0.67      21.2  T
   8   -100.7168884 -0.167206E-07  0.240E-04    0.67      49.1  T
     SCC iter.                  ...        0 min,  0.065 sec
     gradient                   ...        0 min,  0.069 sec
 * total energy  :   -99.3235541 Eh     change       -0.1813020E-03 Eh
   gradient norm :     0.0107937 Eh/α   predicted    -0.2218320E-03 (  22.35%)
   displ. norm   :     0.2138666 α      lambda       -0.4895179E-03
   maximum displ.:     0.0689836 α      in ANC's #10, #11, #18, ...

........................................................................
.............................. CYCLE   36 ..............................
........................................................................

 iter      E             dE          RMSdq      gap      omega  full diag
   1   -100.7227964 -0.100723E+03  0.578E-02    0.65       0.0  T
   2   -100.7226866  0.109820E-03  0.477E-02    0.70       1.0  T
   3   -100.7225632  0.123379E-03  0.526E-02    0.62       1.0  T
   4   -100.7228199 -0.256705E-03  0.779E-03    0.67       1.5  T
   5   -100.7228251 -0.524727E-05  0.291E-03    0.67       4.1  T
   6   -100.7228258 -0.659824E-06  0.912E-04    0.67      12.9  T
   7   -100.7228258  0.279906E-07  0.650E-04    0.67      18.1  T
     SCC iter.                  ...        0 min,  0.058 sec
     gradient                   ...        0 min,  0.069 sec
 * total energy  :   -99.3237781 Eh     change       -0.2239784E-03 Eh
   gradient norm :     0.0075339 Eh/α   predicted    -0.2559565E-03 (  14.28%)
   displ. norm   :     0.2229165 α      lambda       -0.1687647E-03
   maximum displ.:     0.1049290 α      in ANC's #11, #12, #10, ...

........................................................................
.............................. CYCLE   37 ..............................
........................................................................

 iter      E             dE          RMSdq      gap      omega  full diag
   1   -100.7214689 -0.100721E+03  0.299E-02    0.66       0.0  T
   2   -100.7214491  0.198829E-04  0.225E-02    0.68       1.0  T
   3   -100.7213829  0.662018E-04  0.305E-02    0.64       1.0  T
   4   -100.7214720 -0.891120E-04  0.495E-03    0.67       2.4  T
   5   -100.7214740 -0.203964E-05  0.104E-03    0.67      11.3  T
   6   -100.7214741 -0.700980E-07  0.515E-04    0.67      22.9  T
   7   -100.7214741 -0.133608E-07  0.273E-04    0.67      43.2  T
     SCC iter.                  ...        0 min,  0.057 sec
     gradient                   ...        0 min,  0.071 sec
 * total energy  :   -99.3238966 Eh     change       -0.1184902E-03 Eh
   gradient norm :     0.0046352 Eh/α   predicted    -0.8857762E-04 ( -25.24%)
   displ. norm   :     0.2283149 α      lambda       -0.1569243E-03
   maximum displ.:     0.1006385 α      in ANC's #11, #10, #12, ...

........................................................................
.............................. CYCLE   38 ..............................
........................................................................

 iter      E             dE          RMSdq      gap      omega  full diag
   1   -100.7205630 -0.100721E+03  0.305E-02    0.67       0.0  T
   2   -100.7205590  0.397253E-05  0.201E-02    0.68       1.0  T
   3   -100.7205369  0.221372E-04  0.185E-02    0.66       1.0  T
   4   -100.7205542 -0.173624E-04  0.122E-02    0.68       1.0  T
   5   -100.7205708 -0.165028E-04  0.158E-03    0.67       7.5  T
   6   -100.7205709 -0.178360E-06  0.676E-04    0.67      17.4  T
   7   -100.7205709 -0.174581E-07  0.280E-04    0.67      42.1  T
     SCC iter.                  ...        0 min,  0.057 sec
     gradient                   ...        0 min,  0.069 sec
 * total energy  :   -99.3240031 Eh     change       -0.1065816E-03 Eh
   gradient norm :     0.0036737 Eh/α   predicted    -0.8255462E-04 ( -22.54%)
   displ. norm   :     0.1672294 α      lambda       -0.9615150E-04
   maximum displ.:     0.0529716 α      in ANC's #10, #11, #2, ...

........................................................................
.............................. CYCLE   39 ..............................
........................................................................

 iter      E             dE          RMSdq      gap      omega  full diag
   1   -100.7209747 -0.100721E+03  0.253E-02    0.67       0.0  T
   2   -100.7209703  0.443192E-05  0.172E-02    0.68       1.0  T
   3   -100.7209571  0.131177E-04  0.162E-02    0.67       1.0  T
   4   -100.7209651 -0.796827E-05  0.125E-02    0.69       1.0  T
   5   -100.7209821 -0.170128E-04  0.125E-03    0.68       9.4  T
   6   -100.7209822 -0.968497E-07  0.597E-04    0.68      19.8  T
   7   -100.7209822 -0.163667E-07  0.298E-04    0.68      39.6  T
     SCC iter.                  ...        0 min,  0.057 sec
     gradient                   ...        0 min,  0.069 sec
 * total energy  :   -99.3240684 Eh     change       -0.6526527E-04 Eh
   gradient norm :     0.0041920 Eh/α   predicted    -0.4942295E-04 ( -24.27%)
   displ. norm   :     0.1895078 α      lambda       -0.7568662E-04
   maximum displ.:     0.0631075 α      in ANC's #2, #10, #9, ...

........................................................................
.............................. CYCLE   40 ..............................
........................................................................

 iter      E             dE          RMSdq      gap      omega  full diag
   1   -100.7211558 -0.100721E+03  0.261E-02    0.67       0.0  T
   2   -100.7211236  0.322100E-04  0.235E-02    0.69       1.0  T
   3   -100.7211257 -0.211834E-05  0.218E-02    0.66       1.0  T
   4   -100.7211558 -0.300144E-04  0.978E-03    0.68       1.2  T
   5   -100.7211659 -0.101102E-04  0.104E-03    0.68      11.4  T
   6   -100.7211660 -0.950330E-07  0.430E-04    0.68      27.4  T
   7   -100.7211660 -0.479852E-08  0.230E-04    0.68      51.2  T
     SCC iter.                  ...        0 min,  0.057 sec
     gradient                   ...        0 min,  0.069 sec
 * total energy  :   -99.3241224 Eh     change       -0.5401226E-04 Eh
   gradient norm :     0.0045678 Eh/α   predicted    -0.3920584E-04 ( -27.41%)
   displ. norm   :     0.2548504 α      lambda       -0.8425633E-04
   maximum displ.:     0.0875650 α      in ANC's #2, #10, #9, ...

........................................................................
.............................. CYCLE   41 ..............................
........................................................................

 iter      E             dE          RMSdq      gap      omega  full diag
   1   -100.7209111 -0.100721E+03  0.363E-02    0.66       0.0  T
   2   -100.7208274  0.837592E-04  0.356E-02    0.70       1.0  T
   3   -100.7208705 -0.431031E-04  0.284E-02    0.65       1.0  T
   4   -100.7209173 -0.468419E-04  0.124E-02    0.68       1.0  T
   5   -100.7209337 -0.163590E-04  0.144E-03    0.68       8.2  T
   6   -100.7209339 -0.205964E-06  0.562E-04    0.68      21.0  T
   7   -100.7209339 -0.114747E-07  0.294E-04    0.68      40.0  T
     SCC iter.                  ...        0 min,  0.057 sec
     gradient                   ...        0 min,  0.069 sec
 * total energy  :   -99.3241795 Eh     change       -0.5711672E-04 Eh
   gradient norm :     0.0033128 Eh/α   predicted    -0.4486652E-04 ( -21.45%)
   displ. norm   :     0.2682967 α      lambda       -0.1109848E-03
   maximum displ.:     0.1246608 α      in ANC's #9, #12, #2, ...

........................................................................
.............................. CYCLE   42 ..............................
........................................................................

 iter      E             dE          RMSdq      gap      omega  full diag
   1   -100.7237527 -0.100724E+03  0.403E-02    0.65       0.0  T
   2   -100.7235741  0.178553E-03  0.488E-02    0.71       1.0  T
   3   -100.7237498 -0.175629E-03  0.254E-02    0.65       1.0  T
   4   -100.7237847 -0.349346E-04  0.534E-03    0.67       2.2  T
   5   -100.7237875 -0.278544E-05  0.129E-03    0.67       9.1  T
   6   -100.7237876 -0.116905E-06  0.521E-04    0.67      22.6  T
   7   -100.7237876 -0.735108E-08  0.307E-04    0.67      38.4  T
     SCC iter.                  ...        0 min,  0.057 sec
     gradient                   ...        0 min,  0.069 sec
 * total energy  :   -99.3242377 Eh     change       -0.5813609E-04 Eh
   gradient norm :     0.0046998 Eh/α   predicted    -0.5948983E-04 (   2.33%)
   displ. norm   :     0.2887705 α      lambda       -0.9233348E-04
   maximum displ.:     0.1044279 α      in ANC's #9, #2, #10, ...
 * RMSD in coord.:     0.6368040 α      energy gain  -0.2895538E-01 Eh

generating ANC from model Hessian ...
Using Lindh-Hessian (1995)
 Shifting diagonal of input Hessian by    1.0158120575479221E-002
 Lowest  eigenvalues of input Hessian
    0.010000    0.010089    0.000000    0.000000    0.000000    0.000000
    0.000000    0.000000    0.010206    0.010220    0.010302    0.010391
    0.010469    0.010829    0.010849    0.010951    0.011363    0.011791
 Highest eigenvalues
    1.924943    2.044551    2.046122    2.184253    2.185285    2.565783


........................................................................
.............................. CYCLE   43 ..............................
........................................................................

 iter      E             dE          RMSdq      gap      omega  full diag
   1   -100.7219296 -0.100722E+03  0.443E-02    0.65       0.0  T
   2   -100.7217172  0.212456E-03  0.522E-02    0.72       1.0  T
   3   -100.7219170 -0.199818E-03  0.297E-02    0.65       1.0  T
   4   -100.7219662 -0.491580E-04  0.779E-03    0.67       1.5  T
   5   -100.7219723 -0.615612E-05  0.149E-03    0.67       7.9  T
   6   -100.7219726 -0.234560E-06  0.586E-04    0.67      20.1  T
   7   -100.7219726 -0.146442E-07  0.282E-04    0.67      41.7  T
     SCC iter.                  ...        0 min,  0.057 sec
     gradient                   ...        0 min,  0.069 sec
 * total energy  :   -99.3242961 Eh     change       -0.5842106E-04 Eh
   gradient norm :     0.0044211 Eh/α   predicted     0.0000000E+00 (-100.00%)
   displ. norm   :     0.0505483 α      lambda       -0.7817328E-04
   maximum displ.:     0.0198153 α      in ANC's #37, #2, #19, ...

........................................................................
.............................. CYCLE   44 ..............................
........................................................................

 iter      E             dE          RMSdq      gap      omega  full diag
   1   -100.7220663 -0.100722E+03  0.365E-02    0.67       0.0  T
   2   -100.7220632  0.313408E-05  0.214E-02    0.67       1.0  T
   3   -100.7219598  0.103421E-03  0.322E-02    0.64       1.0  T
   4   -100.7220656 -0.105815E-03  0.545E-03    0.67       2.2  T
   5   -100.7220692 -0.363277E-05  0.823E-04    0.67      14.3  T
   6   -100.7220693 -0.241484E-07  0.466E-04    0.67      25.3  T
   7   -100.7220693 -0.945316E-08  0.180E-04    0.67      65.6  T
     SCC iter.                  ...        0 min,  0.057 sec
     gradient                   ...        0 min,  0.069 sec
 * total energy  :   -99.3243466 Eh     change       -0.5046808E-04 Eh
   gradient norm :     0.0023630 Eh/α   predicted    -0.3927456E-04 ( -22.18%)
   displ. norm   :     0.0883149 α      lambda       -0.7699161E-04
   maximum displ.:     0.0337333 α      in ANC's #2, #37, #7, ...

........................................................................
.............................. CYCLE   45 ..............................
........................................................................

 iter      E             dE          RMSdq      gap      omega  full diag
   1   -100.7224872 -0.100722E+03  0.213E-02    0.66       0.0  T
   2   -100.7224409  0.462561E-04  0.254E-02    0.69       1.0  T
   3   -100.7224869 -0.459160E-04  0.136E-02    0.66       1.0  T
   4   -100.7224921 -0.521695E-05  0.741E-03    0.67       1.6  T
   5   -100.7224986 -0.651431E-05  0.801E-04    0.67      14.7  T
   6   -100.7224986 -0.178305E-07  0.479E-04    0.67      24.6  T
   7   -100.7224986 -0.112335E-07  0.233E-04    0.67      50.7  T
     SCC iter.                  ...        0 min,  0.060 sec
     gradient                   ...        0 min,  0.069 sec
 * total energy  :   -99.3243908 Eh     change       -0.4425585E-04 Eh
   gradient norm :     0.0023492 Eh/α   predicted    -0.3879645E-04 ( -12.34%)
   displ. norm   :     0.0799470 α      lambda       -0.3700730E-04
   maximum displ.:     0.0352475 α      in ANC's #2, #7, #9, ...

   *** GEOMETRY OPTIMIZATION CONVERGED AFTER 45 ITERATIONS ***

------------------------------------------------------------------------
 total energy gain   :        -0.4814965 Eh     -302.1436 kcal/mol
 total RMSD          :         0.7359690 a0        0.3895 Å
 total power (kW/mol):       -28.0926443 (step) -169.3239 (real)
------------------------------------------------------------------------

 ANCopt (total)                0 d,  0 h,  0 min,  7.466 sec
 optimizer setup                ...        0 min,  0.000 sec (  0.004%)
 model hessian                  ...        0 min,  0.149 sec (  1.999%)
 ANC generation                 ...        0 min,  0.020 sec (  0.263%)
 coordinate transformation      ...        0 min,  0.003 sec (  0.041%)
 single point calculation       ...        0 min,  7.238 sec ( 96.942%)
 optimization log               ...        0 min,  0.011 sec (  0.154%)
 hessian update                 ...        0 min,  0.003 sec (  0.040%)
 rational function              ...        0 min,  0.020 sec (  0.269%)

================
 final structure:
================
72
 xtb: 6.6.1 (8d0f1dd)
N           -1.67725126655117        2.64329316922437        2.27038169341133
C           -2.36716513655357        2.32874728614330        1.41360136145592
C           -3.24474643928137        1.99129688594148        0.31022831476143
C           -3.70116726387600        0.54575662662713        0.40481049454901
C           -4.56361102654396        0.03460127716360       -0.56428220754252
C           -4.98978332395317       -1.28421257958853       -0.52508372070580
O           -5.82909319672315       -1.85805057258759       -1.40479345862291
C           -6.40997055877544       -1.07776128242885       -2.42373577488811
C           -4.52275755469434       -2.14095357795885        0.51368975145195
O           -4.96978059975990       -3.40636602465912        0.46032785168382
C           -4.58416335362359       -4.32019204208668        1.46137445632534
C           -3.66904332575835       -1.61904955425663        1.47552923457550
C           -3.26836165149516       -0.29253758867492        1.42407805018875
C           -2.45797673928941        2.22600546488023       -1.00799996853650
C           -1.48935743085863        1.10373648380819       -1.38357778589836
C           -0.32506847877753        0.96627012848127       -0.39879972591011
N            0.62071015380503       -0.03790353340474       -0.82072152121108
C            1.98542302880542        0.10657401775939       -0.38157294509955
C            2.97513525575213       -0.33700358420622       -1.47850198105723
C            4.38761282276515       -0.13959166435380       -1.01621548584012
C            5.03690271945453        1.07328818037147       -1.21736430786219
C            6.33088671372026        1.27259643922688       -0.76861241468970
C            7.01104403450979        0.26147433946059       -0.09895165177200
O            8.26042894033009        0.34067116293125        0.38042496940195
C            8.98803520581181        1.53931100949820        0.23346091812668
C            6.35505581221843       -0.98756863786836        0.11401624119533
O            7.08394220481676       -1.91004455045204        0.76248620834442
C            6.53651284941175       -3.18419371083320        1.00978999500304
C            5.05665931540668       -1.15968772009377       -0.34613344986913
C            0.10180404074783       -1.38237501504345       -0.84268790309162
C           -4.47733728764807        2.94657143641667        0.40595703696986
C           -5.25061000757053        2.68398520897117        1.69756630417032
C           -4.07467605340985        4.41722271384021        0.32981584952411
H           -4.90580692049445        0.67551600698038       -1.36019648651918
H           -6.98420738421511       -0.24319007051665       -2.01059850962218
H           -7.08127737965710       -1.74762224806045       -2.95710766779110
H           -5.65450464519888       -0.69659155957143       -3.11764828683991
H           -4.92095164651321       -3.99594223872190        2.45025849825352
H           -5.07142264168262       -5.25859758842635        1.20349070189102
H           -3.49963540414528       -4.46583587505152        1.47395932718705
H           -3.31367193589592       -2.24023372329566        2.28140420625703
H           -2.62000051520663        0.08519750485934        2.19996011352525
H           -3.17941936675825        2.34038713798656       -1.81790888731966
H           -1.90289733217399        3.16126087102774       -0.92165805853881
H           -2.03276599824361        0.16081271043735       -1.44782318931076
H           -1.07741468896150        1.32197732032938       -2.37009245850716
H           -0.72131470581647        0.72090036785207        0.59916458616005
H            0.18978855069831        1.92589220091162       -0.32541250820104
H            2.17753109964475       -0.47765457547404        0.53113469993453
H            2.17378177979209        1.15659927152969       -0.15106996273894
H            2.78510011292818        0.25701051350531       -2.37265490287760
H            2.80810052887901       -1.38609591291883       -1.72327065817502
H            4.53078389609641        1.87066755129771       -1.73898106852765
H            6.80978659392317        2.22134535109351       -0.94756994518373
H            8.47764179058673        2.37840499593947        0.71547882365296
H            9.16228101003377        1.77332257213725       -0.82113084337502
H            9.94235672249955        1.36433406029256        0.72714441159826
H            7.31635616457017       -3.74265727087747        1.52350842608883
H            5.65316380367883       -3.12177063460218        1.65216370985733
H            6.27770634652130       -3.69648092443305        0.07857829309920
H            4.55400241899486       -2.10181428130837       -0.19282160945755
H           -0.47543419697012       -1.54804326472580       -1.75303522545571
H           -0.55305342544359       -1.57339056730053        0.01632853580097
H            0.91536119379073       -2.10035031716575       -0.82785431539898
H           -5.13051869977527        2.72193219305286       -0.44359679765176
H           -4.63240891742011        2.90595934597230        2.56546923425958
H           -5.57468901937405        1.64718249556130        1.75990096828833
H           -6.13205470763136        3.31967039419393        1.73618946186437
H           -3.36679569947780        4.66547362901635        1.11811040160093
H           -3.63066576962918        4.66435456176289       -0.63084334367258
H           -4.95688700023201        5.04008093073962        0.45994940440368
H            0.69233918287094        2.73821839621884        3.52184133550209

 Bond Distances (Angstroems)
 ---------------------------
N1-C2=1.1441         C2-N1=1.1441         C2-C3=1.4496         C3-C2=1.4496         C3-C4=1.5188         C3-C14=1.5530        
C3-C31=1.5624        C4-C3=1.5188         C4-C5=1.3944         C4-C13=1.3889        C5-C4=1.3944         C5-C6=1.3865         
C5-H34=1.0777        C6-C5=1.3865         C6-O7=1.3445         C6-C9=1.4252         O7-C6=1.3445         O7-C8=1.4087         
C8-O7=1.4087         C8-H35=1.0940        C8-H36=1.0880        C8-H37=1.0943        C9-C6=1.4252         C9-O10=1.3431        
C9-C12=1.3879        O10-C9=1.3431        O10-C11=1.4092       C11-O10=1.4092       C11-H38=1.0938       C11-H39=1.0884       
C11-H40=1.0943       C12-C9=1.3879        C12-C13=1.3867       C12-H41=1.0778       C13-C4=1.3889        C13-C12=1.3867       
C13-H42=1.0794       C14-C3=1.5530        C14-C15=1.5293       C14-H43=1.0906       C14-H44=1.0910       C15-C14=1.5293       
C15-C16=1.5311       C15-H45=1.0902       C15-H46=1.0911       C16-C15=1.5311       C16-N17=1.4425       C16-H47=1.1014       
C16-H48=1.0915       N17-C16=1.4425       N17-C18=1.4409       N17-C30=1.4413       C18-N17=1.4409       C18-C19=1.5426       
C18-H49=1.1006       C18-H50=1.0914       C19-C18=1.5426       C19-C20=1.4993       C19-H51=1.0902       C19-H52=1.0901       
C20-C19=1.4993       C20-C21=1.3904       C20-C29=1.3918       C21-C20=1.3904       C21-C22=1.3840       C21-H53=1.0789       
C22-C21=1.3840       C22-C23=1.3905       C22-H54=1.0777       C23-C22=1.3905       C23-O24=1.3405       C23-C26=1.4268       
O24-C23=1.3405       O24-C25=1.4099       C25-O24=1.4099       C25-H55=1.0940       C25-H56=1.0942       C25-H57=1.0886       
C26-C23=1.4268       C26-O27=1.3427       C26-C29=1.3882       O27-C26=1.3427       O27-C28=1.4086       C28-O27=1.4086       
C28-H58=1.0881       C28-H59=1.0940       C28-H60=1.0939       C29-C20=1.3918       C29-C26=1.3882       C29-H61=1.0788       
C30-N17=1.4413       C30-H62=1.0906       C30-H63=1.0969       C30-H64=1.0852       C31-C3=1.5624        C31-C32=1.5281       
C31-C33=1.5267       C31-H65=1.0949       C32-C31=1.5281       C32-H66=1.0884       C32-H67=1.0881       C32-H68=1.0874       
C33-C31=1.5267       C33-H69=1.0882       C33-H70=1.0868       C33-H71=1.0877       H34-C5=1.0777        H35-C8=1.0940        
H36-C8=1.0880        H37-C8=1.0943        H38-C11=1.0938       H39-C11=1.0884       H40-C11=1.0943       H41-C12=1.0778       
H42-C13=1.0794       H43-C14=1.0906       H44-C14=1.0910       H45-C15=1.0902       H46-C15=1.0911       H47-C16=1.1014       
[...]
         :: gradient norm              0.002348632734 Eh/a0 ::
         :: HOMO-LUMO gap              0.665383837992 eV    ::
         ::.................................................::
         :: SCC energy              -100.722498623949 Eh    ::
         :: -> isotropic ES            0.101974267063 Eh    ::
         :: -> anisotropic ES          0.007184450818 Eh    ::
         :: -> anisotropic XC          0.051110160666 Eh    ::
         :: -> dispersion             -0.072945815228 Eh    ::
         :: repulsion energy           1.396917217786 Eh    ::
         :: add. restraining           0.000003672597 Eh    ::
         :: total charge               1.000000000002 e     ::
         :::::::::::::::::::::::::::::::::::::::::::::::::::::

           -------------------------------------------------
          |                Property Printout                |
           -------------------------------------------------

    * Orbital Energies and Occupations

         #    Occupation            Energy/Eh            Energy/eV
      -------------------------------------------------------------
         1        2.0000           -0.8216628             -22.3586
       ...           ...                  ...                  ...
        78        1.9965           -0.5379872             -14.6394
        79        1.9956           -0.5344249             -14.5424
        80        1.9950           -0.5325086             -14.4903
        81        1.9930           -0.5270706             -14.3423
        82        1.9927           -0.5263909             -14.3238
        83        1.9902           -0.5217829             -14.1984
        84        1.9889           -0.5196985             -14.1417
        85        1.9739           -0.5060661             -13.7708
        86        1.9624           -0.5002189             -13.6117
        87        1.9557           -0.4975566             -13.5392
        88        1.7743           -0.4702513             -12.7962
        89        1.7434           -0.4679391             -12.7333
        90        1.6517           -0.4622478             -12.5784 (HOMO)
        91        1.0062           -0.4377954             -11.9130 (LUMO)
        92        0.0018           -0.3263098              -8.8793
        93        0.0015           -0.3233742              -8.7995
        94        0.0013           -0.3212561              -8.7418
        95        0.0012           -0.3195619              -8.6957
        96        0.0003           -0.2974492              -8.0940
        97        0.0003           -0.2958444              -8.0503
        98        0.0000           -0.2008483              -5.4654
        99        0.0000           -0.1972123              -5.3664
       100                         -0.1109991              -3.0204
       101                         -0.0740493              -2.0150
       ...                                ...                  ...
       171                          1.0472192              28.4963
      -------------------------------------------------------------
                  HL-Gap            0.0244524 Eh            0.6654 eV
             Fermi-level           -0.4376007 Eh          -11.9077 eV

     #   Z          covCN         q      C6AA      α(0)
     1   7 N        0.911    -0.225    25.911     7.362
     2   6 C        1.923     0.124    28.057     8.554
     3   6 C        3.907     0.018    20.214     6.391
     4   6 C        2.976     0.014    27.684     8.631
     5   6 C        2.919    -0.074    29.857     8.960
     6   6 C        2.862     0.135    25.057     8.205
     7   8 O        1.706    -0.218    17.614     5.666
     8   6 C        3.644     0.025    20.495     6.507
     9   6 C        2.863     0.135    25.055     8.205
    10   8 O        1.706    -0.215    17.570     5.659
    11   6 C        3.645     0.024    20.514     6.510
    12   6 C        2.913    -0.068    29.690     8.935
    13   6 C        2.920    -0.044    29.092     8.845
    14   6 C        3.813    -0.058    21.598     6.615
    15   6 C        3.801    -0.068    21.797     6.647
    16   6 C        3.749    -0.005    20.735     6.494
    17   7 N        2.728    -0.091    23.013     7.125
    18   6 C        3.748    -0.002    20.672     6.485
    19   6 C        3.808    -0.073    21.890     6.660
    20   6 C        2.968     0.014    27.700     8.633
    21   6 C        2.921    -0.041    29.010     8.833
    22   6 C        2.912    -0.063    29.564     8.916
    23   6 C        2.864     0.138    24.977     8.192
    24   8 O        1.706    -0.206    17.434     5.637
    25   6 C        3.645     0.021    20.563     6.517
    26   6 C        2.861     0.138    24.978     8.192
    27   8 O        1.706    -0.210    17.495     5.647
    28   6 C        3.645     0.023    20.526     6.512
    29   6 C        2.919    -0.074    29.853     8.960
    30   6 C        3.701    -0.052    21.675     6.657
    31   6 C        3.861    -0.004    20.619     6.458
    32   6 C        3.755    -0.110    22.651     6.786
    33   6 C        3.755    -0.113    22.716     6.796
    34   1 H        0.926     0.057     2.232     2.336
    35   1 H        0.924     0.058     2.222     2.331
    36   1 H        0.925     0.086     1.921     2.168
    37   1 H        0.924     0.055     2.259     2.351
    38   1 H        0.924     0.061     2.186     2.312
    39   1 H        0.925     0.086     1.919     2.167
    40   1 H        0.924     0.055     2.256     2.349
    41   1 H        0.926     0.060     2.203     2.321
    42   1 H        0.926     0.055     2.262     2.352
    43   1 H        0.924     0.054     2.276     2.359
    44   1 H        0.924     0.055     2.260     2.351
    45   1 H        0.925     0.046     2.367     2.406
    46   1 H        0.924     0.057     2.232     2.336
    47   1 H        0.923     0.045     2.380     2.413
    48   1 H        0.924     0.058     2.227     2.334
    49   1 H        0.923     0.047     2.363     2.404
    50   1 H        0.924     0.059     2.215     2.327
    51   1 H        0.925     0.066     2.132     2.284
    52   1 H        0.925     0.058     2.229     2.334
    53   1 H        0.926     0.059     2.207     2.323
    54   1 H        0.926     0.066     2.131     2.283
    55   1 H        0.924     0.062     2.176     2.307
    56   1 H        0.924     0.063     2.161     2.299
    57   1 H        0.925     0.088     1.897     2.154
    58   1 H        0.925     0.087     1.907     2.159
    59   1 H        0.924     0.057     2.232     2.336
    60   1 H        0.924     0.059     2.207     2.323
    61   1 H        0.926     0.056     2.244     2.343
    62   1 H        0.924     0.062     2.171     2.304
    63   1 H        0.924     0.046     2.365     2.405
    64   1 H        0.925     0.062     2.170     2.304
    65   1 H        0.924     0.041     2.441     2.443
    66   1 H        0.925     0.051     2.306     2.375
    67   1 H        0.925     0.038     2.478     2.462
    68   1 H        0.925     0.054     2.265     2.354
    69   1 H        0.925     0.051     2.306     2.374
    70   1 H        0.925     0.043     2.406     2.425
    71   1 H        0.925     0.057     2.236     2.338
    72   1 H        0.000    -0.016     8.348     5.283

 Mol. C6AA /au·bohr⁶  :      47743.377678
 Mol. C8AA /au·bohr⁸  :    1083340.427073
 Mol. α(0) /au        :        335.022086


Wiberg/Mayer (AO) data.
largest (>0.10) Wiberg bond orders for each atom

 ---------------------------------------------------------------------------
     #   Z sym  total        # sym  WBO       # sym  WBO       # sym  WBO
 ---------------------------------------------------------------------------
     1   7 N    3.001 --     2 C    2.830
     2   6 C    3.930 --     1 N    2.830     3 C    1.022
     3   6 C    3.975 --     2 C    1.022     4 C    0.969    14 C    0.941
                            31 C    0.920
     4   6 C    3.924 --    13 C    1.395     5 C    1.376     3 C    0.969
     5   6 C    3.949 --     6 C    1.389     4 C    1.376    34 H    0.957
     6   6 C    3.880 --     5 C    1.389     9 C    1.205     7 O    1.114
     7   8 O    2.250 --     6 C    1.114     8 C    0.975
     8   6 C    3.925 --    36 H    0.976     7 O    0.975    35 H    0.972
                            37 H    0.971
     9   6 C    3.874 --    12 C    1.377     6 C    1.205    10 O    1.118
    10   8 O    2.250 --     9 C    1.118    11 C    0.974
    11   6 C    3.924 --    39 H    0.976    10 O    0.974    40 H    0.971
                            38 H    0.971
    12   6 C    3.948 --    13 C    1.417     9 C    1.377    41 H    0.962
    13   6 C    3.929 --    12 C    1.417     4 C    1.395    42 H    0.961
    14   6 C    3.981 --    15 C    1.008    44 H    0.971    43 H    0.968
                             3 C    0.941
    15   6 C    3.978 --    14 C    1.008    16 C    0.994    46 H    0.971
                            45 H    0.969
    16   6 C    3.961 --    17 N    1.007    15 C    0.994    48 H    0.968
                            47 H    0.940
    17   7 N    3.093 --    30 C    1.018    18 C    1.011    16 C    1.007
    18   6 C    3.956 --    17 N    1.011    50 H    0.969    19 C    0.966
                            49 H    0.952
    19   6 C    3.970 --    20 C    1.016    51 H    0.968    52 H    0.966
                            18 C    0.966
    20   6 C    3.912 --    29 C    1.388    21 C    1.378    19 C    1.016
    21   6 C    3.914 --    22 C    1.432    20 C    1.378    53 H    0.966
    22   6 C    3.941 --    21 C    1.432    23 C    1.364    54 H    0.961
    23   6 C    3.859 --    22 C    1.364    26 C    1.199    24 O    1.128
    24   8 O    2.249 --    23 C    1.128    25 C    0.973
    25   6 C    3.919 --    57 H    0.976    24 O    0.973    55 H    0.970
                            56 H    0.969
    26   6 C    3.867 --    29 C    1.380    23 C    1.199    27 O    1.122
    27   8 O    2.250 --    26 C    1.122    28 C    0.975
    28   6 C    3.923 --    58 H    0.976    27 O    0.975    59 H    0.971
                            60 H    0.971
    29   6 C    3.943 --    20 C    1.388    26 C    1.380    61 H    0.961
    30   6 C    3.964 --    17 N    1.018    64 H    0.978    62 H    0.968
                            63 H    0.964
    31   6 C    3.973 --    33 C    1.009    32 C    1.008    65 H    0.958
                             3 C    0.920
    32   6 C    3.982 --    31 C    1.008    67 H    0.981    68 H    0.981
                            66 H    0.981
    33   6 C    3.981 --    31 C    1.009    70 H    0.981    69 H    0.980
                            71 H    0.979
    34   1 H    0.995 --     5 C    0.957
    35   1 H    0.990 --     8 C    0.972
    36   1 H    0.992 --     8 C    0.976
    37   1 H    0.990 --     8 C    0.971
    38   1 H    0.989 --    11 C    0.971
    39   1 H    0.992 --    11 C    0.976
    40   1 H    0.989 --    11 C    0.971
    41   1 H    0.994 --    12 C    0.962
    42   1 H    0.996 --    13 C    0.961
    43   1 H    0.994 --    14 C    0.968
    44   1 H    0.995 --    14 C    0.971
    45   1 H    0.996 --    15 C    0.969
    46   1 H    0.993 --    15 C    0.971
    47   1 H    0.967 --    16 C    0.940
    48   1 H    0.995 --    16 C    0.968
    49   1 H    0.971 --    18 C    0.952
    50   1 H    0.996 --    18 C    0.969
    51   1 H    0.991 --    19 C    0.968
    52   1 H    0.994 --    19 C    0.966
    53   1 H    0.995 --    21 C    0.966
    54   1 H    0.993 --    22 C    0.961
    55   1 H    0.987 --    25 C    0.970
    56   1 H    0.986 --    25 C    0.969
    57   1 H    0.991 --    25 C    0.976
    58   1 H    0.991 --    28 C    0.976
    59   1 H    0.988 --    28 C    0.971
    60   1 H    0.988 --    28 C    0.971
    61   1 H    0.995 --    29 C    0.961
    62   1 H    0.981 --    30 C    0.968
    63   1 H    0.976 --    30 C    0.964
    64   1 H    0.995 --    30 C    0.978
    65   1 H    0.993 --    31 C    0.958
    66   1 H    0.994 --    32 C    0.981
    67   1 H    0.996 --    32 C    0.981
    68   1 H    0.994 --    32 C    0.981
    69   1 H    0.994 --    33 C    0.980
    70   1 H    0.995 --    33 C    0.981
    71   1 H    0.993 --    33 C    0.979
    72   1 H    0.011
 ---------------------------------------------------------------------------

Topologies differ in total number of bonds
Writing topology from bond orders to xtbtopo.mol

molecular dipole:
                 x           y           z       tot (Debye)
 q only:        0.968      -0.766      -1.119
   full:        0.637      -0.813      -1.222       4.067
molecular quadrupole (traceless):
                xx          xy          yy          xz          yz          zz
 q only:       87.199       4.517     -28.373       5.712     -16.173     -58.826
  q+dip:       86.282       4.325     -27.911       6.530     -20.210     -58.371
   full:       86.540       2.973     -27.954       3.123     -19.847     -58.586

           -------------------------------------------------
          |                Geometry Summary                 |
           -------------------------------------------------

      molecular mass/u    :      455.6105846
   center of mass at/Å    :       -0.0235867       0.0107312       0.0048709
  moments of inertia/u·Å² :        0.2464840E+04   0.1148157E+05   0.1278414E+05
rotational constants/cm⁻¹ :        0.6839241E-02   0.1468234E-02   0.1318636E-02

 * 66 selected distances

     #   Z          #   Z                                           value/Å
     1   7 N        2   6 C                                       1.1441123
     4   6 C        5   6 C                                       1.3943565
     5   6 C        6   6 C                                       1.3865171
     6   6 C        7   8 O                                       1.3444778
     7   8 O        8   6 C                                       1.4087277
     6   6 C        9   6 C                                       1.4251908
     9   6 C       10   8 O                                       1.3431106
    10   8 O       11   6 C                                       1.4092102
     9   6 C       12   6 C                                       1.3879292
     4   6 C       13   6 C                                       1.3888717
    12   6 C       13   6 C                                       1.3866605
    14   6 C       15   6 C                                       1.5293038
    15   6 C       16   6 C                                       1.5310957 (max)
    16   6 C       17   7 N                                       1.4425257
    17   7 N       18   6 C                                       1.4408910
    20   6 C       21   6 C                                       1.3903655
    21   6 C       22   6 C                                       1.3840148
    22   6 C       23   6 C                                       1.3904775
    23   6 C       24   8 O                                       1.3405361
    24   8 O       25   6 C                                       1.4098749
    23   6 C       26   6 C                                       1.4268092
    26   6 C       27   8 O                                       1.3426656
    27   8 O       28   6 C                                       1.4086499
    20   6 C       29   6 C                                       1.3918439
    26   6 C       29   6 C                                       1.3882350
    17   7 N       30   6 C                                       1.4413015
    31   6 C       32   6 C                                       1.5281221
    31   6 C       33   6 C                                       1.5266791
     5   6 C       34   1 H                                       1.0776593 (min)
     8   6 C       35   1 H                                       1.0940474
     8   6 C       36   1 H                                       1.0880498
     8   6 C       37   1 H                                       1.0943189
    11   6 C       38   1 H                                       1.0938264
    11   6 C       39   1 H                                       1.0883615
    11   6 C       40   1 H                                       1.0943361
    12   6 C       41   1 H                                       1.0777724
    13   6 C       42   1 H                                       1.0793744
    14   6 C       43   1 H                                       1.0906490
    14   6 C       44   1 H                                       1.0909954
    15   6 C       45   1 H                                       1.0901953
    15   6 C       46   1 H                                       1.0911175
    16   6 C       47   1 H                                       1.1014311
    16   6 C       48   1 H                                       1.0914844
    18   6 C       49   1 H                                       1.1005744
    18   6 C       50   1 H                                       1.0914046
    19   6 C       51   1 H                                       1.0901724
    19   6 C       52   1 H                                       1.0901409
    21   6 C       53   1 H                                       1.0789135
    22   6 C       54   1 H                                       1.0777271
    25   6 C       55   1 H                                       1.0940391
    25   6 C       56   1 H                                       1.0942061
    25   6 C       57   1 H                                       1.0886093
    28   6 C       58   1 H                                       1.0880919
    28   6 C       59   1 H                                       1.0940047
    28   6 C       60   1 H                                       1.0938805
    29   6 C       61   1 H                                       1.0787823
    30   6 C       62   1 H                                       1.0905881
    30   6 C       63   1 H                                       1.0969206
    30   6 C       64   1 H                                       1.0851654
    31   6 C       65   1 H                                       1.0949204
    32   6 C       66   1 H                                       1.0884396
    32   6 C       67   1 H                                       1.0880592
    32   6 C       68   1 H                                       1.0874430
    33   6 C       69   1 H                                       1.0881781
    33   6 C       70   1 H                                       1.0867776
    33   6 C       71   1 H                                       1.0877424

 * 4 distinct bonds (by element types)

   Z      Z             #   av. dist./Å        max./Å        min./Å
   1 H    6 C          38     1.0894316     1.1014311     1.0776593
   6 C    6 C          16     1.4285295     1.5310957     1.3840148
   6 C    7 N           4     1.3672076     1.4425257     1.1441123
   6 C    8 O           8     1.3759066     1.4098749     1.3405361


optimized geometry written to: xtbopt.xyz


           -------------------------------------------------
          | TOTAL ENERGY              -99.324390824688 Eh   |
          | GRADIENT NORM               0.002348632734 Eh/α |
          | HOMO-LUMO GAP               0.665383837992 eV   |
           -------------------------------------------------

------------------------------------------------------------------------
 * finished run on 2024/04/06 at 11:12:09.965     
------------------------------------------------------------------------
 total:
 * wall-time:     0 d,  0 h,  0 min,  7.819 sec
 *  cpu-time:     0 d,  0 h,  0 min,  7.799 sec
 * ratio c/w:     0.997 speedup
 SCF:
 * wall-time:     0 d,  0 h,  0 min,  0.192 sec
 *  cpu-time:     0 d,  0 h,  0 min,  0.191 sec
 * ratio c/w:     0.996 speedup
 ANC optimizer:
 * wall-time:     0 d,  0 h,  0 min,  7.588 sec
 *  cpu-time:     0 d,  0 h,  0 min,  7.584 sec
 * ratio c/w:     0.999 speedup

