25
 energy: -40.412387137869 gnorm: 8.789420742049 xtb: 6.6.1 (8d0f1dd)
C            2.68869485655105        0.83006094261467        0.02064289262922
N            1.73404200505442       -0.27246387522938       -0.02785208654860
C            2.26555775856951       -1.51442352119881       -0.03914548783925
N            1.49492531886289       -2.60895449367924        0.01842634264666
C            0.35525906070609       -2.44994850790640        0.82463731504608
C            0.42471343816429        0.05339734637503       -0.12657916164825
C           -0.07138669778137        1.45612802973520       -0.06718698071941
O            0.55622571477360        2.48167483770632       -0.02538061000251
N           -1.44722219635518        1.35176194873170       -0.06461126659553
C           -2.34297148016925        2.48847264372807       -0.00307001802002
C           -1.86303129744498        0.05753576398577       -0.07588615374824
O           -2.96059405567074       -0.40077406655071       -0.03116098208536
N           -0.67117571242449       -0.75368036126957       -0.17610649161457
C           -0.83682474948343       -2.20391801128826       -0.08190478773795
H            2.51479621494411        1.44778792816608        0.90130666524511
H            3.70179258873275        0.43924318872577        0.05476493879877
H            2.57713537996600        1.46841863496491       -0.85529298154980
H            3.33613887533588       -1.59982098758764       -0.14348326988795
H           -1.75006045334912        3.36575644676940        0.24793821011874
H           -2.82789944051332        2.63568351758078       -0.96785739875437
H           -3.10310398877545        2.31218721523140        0.75584482518475
H            0.36596729902645       -2.32259639371642        1.22905407328069
H           -0.78231487786044       -2.67685763188320       -1.06465195621300
H           -1.82090963433165       -2.38298612217881        0.35836858166284
H            1.62267758757206       -3.38344593022816       -0.62964259374829
25
 energy: -42.115939934860 gnorm: 0.150379452858 xtb: 6.6.1 (8d0f1dd)
C            2.68868206880137        0.83003083996595        0.02065699723926
N            1.73399759996731       -0.27249558662837       -0.02795050761171
C            2.26562032883431       -1.51426312123138       -0.03875496469083
N            1.49922734539637       -2.61217259723458        0.00791469148835
C            0.34795064012774       -2.53602080470456        0.54588892166603
C            0.42474370162786        0.05337803300637       -0.12665698251440
C           -0.07139586866968        1.45612967933556       -0.06717424211393
O            0.55622293819587        2.48166800150113       -0.02537840119840
N           -1.44721528892450        1.35178532786479       -0.06460800856473
C           -2.34296644823636        2.48845870450566       -0.00307178197367
C           -1.86301560393681        0.05753365879985       -0.07577818171203
O           -2.96059130760694       -0.40075847891159       -0.03117100749448
N           -0.67127099049737       -0.75354210366491       -0.17628595370667
C           -0.84002634324597       -2.20437861318810       -0.09009032346057
H            2.51480176514120        1.44778846380405        0.90131086511457
H            3.70177044726397        0.43925062992494        0.05476935052142
H            2.57714303900913        1.46842489623352       -0.85527566797637
H            3.33616017928135       -1.59975957333716       -0.14335565536640
H           -1.75006536315613        3.36575536112838        0.24793714811459
H           -2.82790019311461        2.63568426413377       -0.96785335604971
H           -3.10310285525810        2.31218637866207        0.75584397848765
H            0.37132246694952       -2.23313734808195        1.52709548896287
H           -0.78296271196307       -2.67665238405011       -1.06519164257280
H           -1.82065955218242       -2.38312846318718        0.35874038064058
H            1.62396152029564       -3.38352662304766       -0.63038952732886
25
 energy: -42.136538235964 gnorm: 0.055250303338 xtb: 6.6.1 (8d0f1dd)
C            2.68594589931424        0.82868756436812        0.01787843201528
N            1.73595382784516       -0.27848370989098       -0.02570186956032
C            2.28862196113298       -1.51134048507414       -0.04124803569069
N            1.53946471161320       -2.62536323169762       -0.00204472758072
C            0.34499444314928       -2.54127904319409        0.61409902629368
C            0.42360248456711        0.04523941961640       -0.12314257452959
C           -0.06994553041607        1.44986829352494       -0.06363916284200
O            0.55960107523134        2.47519285604276       -0.02758879691498
N           -1.44669113889224        1.35056426285488       -0.06340082445735
C           -2.34108430343290        2.48849328536972       -0.00450274862028
C           -1.86742148218195        0.05826876237310       -0.07027716639291
O           -2.96696862628319       -0.39659454902685       -0.02597060615103
N           -0.68250612882934       -0.75538197933500       -0.18719658439986
C           -0.86838752131503       -2.20967746354866       -0.11882069301085
H            2.51408996735827        1.44857256314550        0.89713946952919
H            3.69990520495040        0.44047864828762        0.04957618861723
H            2.57209069564481        1.46515993895673       -0.85916260158541
H            3.35839810469752       -1.58607061655462       -0.12823526135031
H           -1.74777132503985        3.36614544281761        0.24380109074533
H           -2.82740652870859        2.63382966261853       -0.96889819598928
H           -3.10088426728575        2.31473214723468        0.75541037336275
H            0.37084163133103       -2.22311338861083        1.59335420766701
H           -0.86459069120454       -2.65004236984667       -1.12425251623711
H           -1.83454000115620       -2.38089171611325        0.35797969140019
H            1.68511905200998       -3.38875575271937       -0.66398449641823
25
 energy: -42.139325443280 gnorm: 0.049293106880 xtb: 6.6.1 (8d0f1dd)
C            2.68386281997638        0.82682692990545        0.02031779078024
N            1.73294607426579       -0.28044733713500       -0.02792013905698
C            2.28029079991883       -1.51335568860683       -0.05205358908265
N            1.52830356714109       -2.62807735102380       -0.02395986197061
C            0.34870753504544       -2.54505642333932        0.65002326147451
C            0.42269258255817        0.04603927949927       -0.12449875574810
C           -0.06996600497872        1.44999655439736       -0.06391683438627
O            0.55919076949682        2.47537952784154       -0.02596084057591
N           -1.44644050567502        1.35126134821249       -0.06522970297984
C           -2.34061655873666        2.48896334447156       -0.00588506947957
C           -1.86683549516211        0.05841941002107       -0.07535189603634
O           -2.96673727662170       -0.39609666128665       -0.02571760252922
N           -0.68219506846897       -0.75387281602109       -0.19402430600673
C           -0.85856747627102       -2.20900817140557       -0.12823424176440
H            2.51181916042911        1.44610556250445        0.90000076148126
H            3.69856151707294        0.44126710365206        0.05109337367586
H            2.56936282186597        1.46524801397148       -0.85520854827487
H            3.35318575783341       -1.58999145033476       -0.11642073376140
H           -1.74737354131967        3.36713884798558        0.24067333773271
H           -2.82671969473152        2.63263440434664       -0.97063200060443
H           -3.10035183971566        2.31590289741279        0.75417252413554
H            0.38200578360103       -2.21335515606592        1.62932574823072
H           -0.87436237478408       -2.64281531304760       -1.13502611811590
H           -1.81577684536054       -2.38713753407435        0.36383307130558
H            1.68544500672037       -3.38773078028233       -0.68822801054343
25
 energy: -42.140103564155 gnorm: 0.047437901847 xtb: 6.6.1 (8d0f1dd)
C            2.68216893399486        0.82500981505649        0.02423250917643
N            1.73127151228061       -0.28197237998982       -0.02833145803241
C            2.27499233413954       -1.51573136250505       -0.05939237616804
N            1.51656991285371       -2.62639122563213       -0.04464497313684
C            0.35205363418894       -2.54212788806784        0.66587360060863
C            0.42225281899504        0.04536079771524       -0.12443914825390
C           -0.06997286629845        1.44927630572701       -0.06347538403041
O            0.55905540018385        2.47461619226491       -0.02266603483852
N           -1.44598421652663        1.35070148084763       -0.06709936368683
C           -2.33983273172047        2.48852340529859       -0.00805909444900
C           -1.86595310705432        0.05704253240032       -0.08009735969968
O           -2.96603890177580       -0.39631325818989       -0.02706299634471
N           -0.68105503615198       -0.75434219381226       -0.19749949040648
C           -0.85331027002860       -2.20817222464577       -0.12742125307420
H            2.50877299196271        1.44184574045565        0.90541420427540
H            3.69687731873390        0.43967383565092        0.05426336383347
H            2.56728755623477        1.46543881167829       -0.84988585370851
H            3.34962613753166       -1.59269022999380       -0.11455369050321
H           -1.74615387381149        3.36688806568435        0.23683430218321
H           -2.82673779879272        2.63124461886219       -0.97256568408348
H           -3.09885334983940        2.31673591581360        0.75292832422388
H            0.39299472462283       -2.19713107012078        1.64651238915971
H           -0.86809068745699       -2.64672937681403       -1.12725661840722
H           -1.80982148533353       -2.38932581647250        0.36705520811714
H            1.67831256316766       -3.38319194961280       -0.70749150485467
25
 energy: -42.140704010392 gnorm: 0.041703477899 xtb: 6.6.1 (8d0f1dd)
C            2.68085481449018        0.82319853019261        0.02994127327417
N            1.73011176454763       -0.28316063399240       -0.02825806130908
C            2.27170425732836       -1.51858544458458       -0.06494964553840
N            1.50496519897714       -2.62316636773681       -0.06570629858630
C            0.35716300964110       -2.53780568776851        0.67230637315651
C            0.42194182409274        0.04391400115830       -0.12373755637209
C           -0.07028655282578        1.44809796895902       -0.06229620646079
O            0.55878535929543        2.47323358285899       -0.01841093111800
N           -1.44572934413956        1.34949818435737       -0.06881624218678
C           -2.33917756864556        2.48756986695982       -0.01154091451258
C           -1.86524268304938        0.05490420243257       -0.08281573174686
O           -2.96571036563267       -0.39671572192266       -0.02828795945487
N           -0.68003980729728       -0.75592868422974       -0.19908910671571
C           -0.85059978041714       -2.20795649976224       -0.12182159727589
H            2.50575804471546        1.43668940118934        0.91311740947072
H            3.69529716876595        0.43729093493792        0.05982278667859
H            2.56689473085966        1.46650031941425       -0.84222494233710
H            3.34691833227718       -1.59441715923311       -0.11886581678674
H           -1.74452355795870        3.36624305203218        0.23006348019304
H           -2.82773603565246        2.62802102032887       -0.97553865495140
H           -3.09680944245251        2.31837587970528        0.75141450325508
H            0.40734107250520       -2.17559257698080        1.65548279564126
H           -0.86096299177027       -2.65410150941938       -1.11542547112129
H           -1.80914997259334       -2.38864492156697        0.37131266042523
H            1.66866403903832       -3.37922319573081       -0.72450452772098
25
 energy: -42.141456056230 gnorm: 0.028769284160 xtb: 6.6.1 (8d0f1dd)
C            2.67960442693339        0.82089623874941        0.03887195070383
N            1.72883068464605       -0.28413846700764       -0.02802496885900
C            2.26987721713267       -1.52231155159948       -0.06958157290554
N            1.49157621022934       -2.61780256558955       -0.09155342278692
C            0.36461027222026       -2.53346192771503        0.67095948612092
C            0.42157427186649        0.04139954386222       -0.12277587363632
C           -0.07100716771070        1.44629484244957       -0.06109416362041
O            0.55855663907094        2.47078659590738       -0.01286916523034
N           -1.44566523963691        1.34764416890796       -0.07107684334913
C           -2.33851416752622        2.48612744819244       -0.01650834626537
C           -1.86477588763113        0.05192131503334       -0.08470096919180
O           -2.96600133185528       -0.39696718683183       -0.02951537880435
N           -0.67949912285444       -0.75883520962129       -0.20002540871811
C           -0.85016619772095       -2.20884101533159       -0.11174755539592
H            2.50213594271927        1.42960883792245        0.92485334518799
H            3.69349074075413        0.43358674728356        0.06956438269521
H            2.56868492131882        1.46879014439895       -0.83029731112074
H            3.34486356030056       -1.59511903574886       -0.12866925597860
H           -1.74198633857219        3.36555239629028        0.21807561776457
H           -2.83091202133491        2.62157510577247       -0.97922877950853
H           -3.09308078927940        2.32199007653518        0.75068372047569
H            0.42875483983557       -2.14147225638515        1.65886613443897
H           -0.85563175599639       -2.66583033622230       -1.09970282350674
H           -1.81158898016239       -2.38662210273716        0.37918344947562
H            1.65670078735315       -3.37653326491682       -0.74251463008522
25
 energy: -42.142017993169 gnorm: 0.016576302850 xtb: 6.6.1 (8d0f1dd)
C            2.67914635347955        0.81941655978576        0.04621205990997
N            1.72808349442716       -0.28435290446342       -0.02841829513468
C            2.27134645991594       -1.52427516655590       -0.07141399983980
N            1.48686769901243       -2.61379897750336       -0.10490636435319
C            0.36948813047482       -2.53422895604580        0.66096348149330
C            0.42123607841734        0.03914078916422       -0.12230552710175
C           -0.07172803425096        1.44487624299951       -0.06060627780084
O            0.55880513276494        2.46846804435532       -0.00984795734947
N           -1.44591260444364        1.34644709176821       -0.07273000784981
C           -2.33831773945607        2.48529359851659       -0.02002639791176
C           -1.86522855235487        0.05031073590719       -0.08484458624087
O           -2.96716502872276       -0.39660330457268       -0.03044284198262
N           -0.68051925949222       -0.76115107059343       -0.19986210739923
C           -0.85321549225853       -2.21064224540516       -0.10394646666881
H            2.49981315203886        1.42426611998847        0.93446509720539
H            3.69254052277542        0.43077773869995        0.07857137208753
H            2.57216200608686        1.47161148321911       -0.82021947645983
H            3.34535151203794       -1.59407117818442       -0.13888785134714
H           -1.74003304654099        3.36569337976409        0.20661155351323
H           -2.83555638407849        2.61511051622160       -0.98101044078619
H           -3.08913070685066        2.32624197255569        0.75202660669968
H            0.44479834390148       -2.11322869232674        1.65318911950440
H           -0.86051141226715       -2.67329285614735       -1.09122374349355
H           -1.81416971901004       -2.38548814904253        0.38875110885972
H            1.65228060849336       -3.37828223050639       -0.74892643965395
25
 energy: -42.142372083732 gnorm: 0.013853577394 xtb: 6.6.1 (8d0f1dd)
C            2.67919273903590        0.81889149789469        0.05099305826061
N            1.72798224760371       -0.28441125489498       -0.02872875013928
C            2.27485005238603       -1.52425257983003       -0.07301097598276
N            1.49156456816780       -2.61311255869905       -0.10500918711973
C            0.37054205564692       -2.53990726144271        0.64916522870683
C            0.42093513076854        0.03753576317796       -0.12139017685242
C           -0.07214506816346        1.44403373485480       -0.06051636379410
O            0.55949045652788        2.46682924615824       -0.00996833627370
N           -1.44626483360864        1.34622179318719       -0.07367327219040
C           -2.33853943571278        2.48529134272993       -0.02190446155012
C           -1.86636172016839        0.05045212079773       -0.08430069740080
O           -2.96868942934302       -0.39589554729918       -0.03177286211338
N           -0.68262756749020       -0.76205197235160       -0.19867288488597
C           -0.85774632159608       -2.21239156720472       -0.10078690757072
H            2.49873324121059        1.42116060341728        0.94080880537224
H            3.69239773566079        0.42972906064470        0.08484533470298
H            2.57522584702123        1.47433635268213       -0.81331790573707
H            3.34768705469705       -1.59255704430459       -0.14790589069120
H           -1.73920692441660        3.36676415443888        0.19756531452606
H           -2.84048239592076        2.61005796955850       -0.98110045162238
H           -3.08574900988090        2.33020228831539        0.75447451887766
H            0.45236205434299       -2.09650278309558        1.64368229379914
H           -0.87449204859220       -2.67334950475362       -1.09123110412725
H           -1.81406557902654       -2.38604222733830        0.39912775300010
H            1.65583866494984       -3.38279308504454       -0.74620046129458
25
 energy: -42.142548028954 gnorm: 0.014673503005 xtb: 6.6.1 (8d0f1dd)
C            2.67921965707265        0.81880520042963        0.05349212346747
N            1.72820965302806       -0.28494886683222       -0.02833370012260
C            2.27758281893531       -1.52339189685655       -0.07629697320197
N            1.49983191432570       -2.61570457952566       -0.09889873241749
C            0.36914269028505       -2.54622599457443        0.64261964161648
C            0.42062930853680        0.03675804236919       -0.11970477433692
C           -0.07221810772097        1.44374825938858       -0.06025914587982
O            0.56009463815156        2.46621727796751       -0.01167846746348
N           -1.44651431317621        1.34668894071346       -0.07404297890192
C           -2.33894569045300        2.48579413013689       -0.02266441932018
C           -1.86746635390828        0.05157606594245       -0.08422055842511
O           -2.96978378617091       -0.39536548129004       -0.03369707164383
N           -0.68444536170659       -0.76158834023207       -0.19728216660227
C           -0.86068087502193       -2.21301890467397       -0.10149716764255
H            2.49820336389241        1.41963736949236        0.94421417647709
H            3.69255511152635        0.43002616965882        0.08784953752270
H            2.57615277777674        1.47601048392475       -0.80955654868258
H            3.34982838040518       -1.59213044320075       -0.15426632755348
H           -1.73935091347943        3.36822099577687        0.19178007661309
H           -2.84434764620120        2.60700812146629       -0.98048899169051
H           -3.08347900649030        2.33298596207263        0.75669561073000
H            0.45355437410771       -2.08990082774878        1.63670930974254
H           -0.88862393305652       -2.66870197610417       -1.09519182850434
H           -1.81115974749149       -2.38731860799982        0.40738306057967
H            1.66244256093306       -3.38694255870243       -0.74149206646024
25
 energy: -42.142642247226 gnorm: 0.013737840839 xtb: 6.6.1 (8d0f1dd)
C            2.67896958223631        0.81848733323510        0.05511138963523
N            1.72828823343478       -0.28599388232163       -0.02790232896131
C            2.27827599740431       -1.52278368322108       -0.08139665704458
N            1.50650364713176       -2.61962697841662       -0.09315287777332
C            0.36778732528762       -2.55059805697290        0.64110963575575
C            0.42017313633327        0.03654536505385       -0.11807447923009
C           -0.07221534989193        1.44378533746700       -0.05964662933621
O            0.56027953512952        2.46630100620439       -0.01297197347892
N           -1.44671026175954        1.34735020756548       -0.07423005148042
C           -2.33938557575852        2.48638472423375       -0.02298832866992
C           -1.86829939808426        0.05275834901036       -0.08505875193466
O           -2.97039122090463       -0.39513400755199       -0.03623394982715
N           -0.68545307892200       -0.76056227954497       -0.19646977492085
C           -0.86135300137854       -2.21257062285275       -0.10316841752220
H            2.49731123861838        1.41811246607495        0.94655066291156
H            3.69252084967808        0.43037103666987        0.08951152851642
H            2.57571724858568        1.47677310350408       -0.80708372775594
H            3.35061235352773       -1.59293575279675       -0.15877084776670
H           -1.73975953918869        3.36961312549382        0.18768605694207
H           -2.84751312492708        2.60498437647410       -0.97968888019380
H           -3.08174773970242        2.33502624217839        0.75870248526688
H            0.45375285530364       -2.08613920119026        1.63283384957033
H           -0.89789899201814       -2.66386401392605       -1.09813369973991
H           -1.80736205338773       -2.38806026810246        0.41283043749265
H            1.66832884735213       -3.38998538466914       -0.73819305255517
25
 energy: -42.142709752346 gnorm: 0.012233397823 xtb: 6.6.1 (8d0f1dd)
C            2.67849951104732        0.81774681225488        0.05674601631636
N            1.72809845682312       -0.28727957425690       -0.02786004831730
C            2.27726978831762       -1.52269900542464       -0.08756540291164
N            1.51020686787818       -2.62342832804234       -0.08989480854124
C            0.36745388388842       -2.55280294760671        0.64242128429855
C            0.41954407604815        0.03662743341941       -0.11692450249671
C           -0.07228055094062        1.44393998542758       -0.05875414204501
O            0.56006047490571        2.46667376094871       -0.01301498355204
N           -1.44692797841213        1.34791106632908       -0.07445303470067
C           -2.33979983902799        2.48686362016495       -0.02327066208563
C           -1.86892605270924        0.05361441121929       -0.08662817581645
O           -2.97075406144662       -0.39511288514576       -0.03940922106306
N           -0.68579433210154       -0.75959570220882       -0.19625694220567
C           -0.86055616403876       -2.21157312001544       -0.10396714686950
H            2.49575621040035        1.41589435362256        0.94895974274118
H            3.69218691255835        0.43012232775543        0.09136576461288
H            2.57512354092730        1.47708352111988       -0.80463183329589
H            3.35005324010907       -1.59445258708614       -0.16298119367298
H           -1.73998067034989        3.37080348569871        0.18371375757986
H           -2.85068168270053        2.60302973307972       -0.97879710147503
H           -3.07992435239076        2.33701329714677        0.76085908058911
H            0.45560663929108       -2.08113600878754        1.63036228141041
H           -0.90217244056452       -2.66088197195460       -1.09844254060422
H           -1.80416471768849       -2.38796587742592        0.41617246720119
H            1.67253475427617       -3.39215725863361       -0.73657703719674
25
 energy: -42.142789397220 gnorm: 0.010951065902 xtb: 6.6.1 (8d0f1dd)
C            2.67781560504298        0.81641981991089        0.05926727461901
N            1.72764084169016       -0.28889721852818       -0.02818748869327
C            2.27497735123125       -1.52310361084321       -0.09556042798667
N            1.51187438101380       -2.62728179425577       -0.08850579559365
C            0.36806475034084       -2.55369595225096        0.64543264774557
C            0.41862891407288        0.03681901549715       -0.11595474878652
C           -0.07246578026331        1.44408626642527       -0.05737511622201
O            0.55950359995617        2.46710742393733       -0.01145665745270
N           -1.44726945484285        1.34834660010349       -0.07483391241008
C           -2.34025507475713        2.48726140232509       -0.02375814489421
C           -1.86962130786534        0.05423560140129       -0.08906700454658
O           -2.97118453536878       -0.39521056626425       -0.04418283198446
N           -0.68580388731334       -0.75882761611597       -0.19639436052030
C           -0.85893587841624       -2.21026111413454       -0.10331567246934
H            2.49314618504071        1.41239624300641        0.95250406311845
H            3.69151710905354        0.42902624834812        0.09477582517510
H            2.57505761507920        1.47727531563853       -0.80100087790928
H            3.34831154453504       -1.59661892487515       -0.16946801646173
H           -1.73978440712091        3.37208718412738        0.17758765782788
H           -2.85535122846691        2.59985566882054       -0.97744959823685
H           -3.07694555050325        2.34008499226297        0.76419620972548
H            0.46043349959323       -2.07166651829490        1.62695304128272
H           -0.90337688274368       -2.65974579219164       -1.09617018803432
H           -1.80160753672256       -2.38720252923940        0.41893048855171
H            1.67606164183423       -3.39425160321195       -0.73579474794420
25
 energy: -42.142899071015 gnorm: 0.010316285986 xtb: 6.6.1 (8d0f1dd)
C            2.67697283751519        0.81440955669676        0.06321598578189
N            1.72690464915392       -0.29073913335028       -0.02893486082448
C            2.27171561783724       -1.52410956643441       -0.10511169525355
N            1.51115209732996       -2.63058800771137       -0.08920497817364
C            0.36960281789289       -2.55313177290777        0.64979298595463
C            0.41740686782432        0.03692318517788       -0.11517152816276
C           -0.07283152079802        1.44401049798967       -0.05530191387015
O            0.55866082795015        2.46726782968877       -0.00748504145157
N           -1.44780943562012        1.34847253928690       -0.07543881226114
C           -2.34071652915941        2.48747756873991       -0.02452250465925
C           -1.87051710078761        0.05449763825830       -0.09252754857131
O           -2.97189190465014       -0.39539788246807       -0.05129965974523
N           -0.68566161166169       -0.75859325032291       -0.19692777245417
C           -0.85701478112397       -2.20898131427092       -0.10052936448735
H            2.48924222989177        1.40750862228125        0.95766706918731
H            3.69049096409039        0.42679530326160        0.10088080881859
H            2.57633955125488        1.47742863793692       -0.79558416653141
H            3.34542215778617       -1.59927263258330       -0.18013112646116
H           -1.73878845987099        3.37349124618539        0.16747138874640
H           -2.86276221115126        2.59430671580444       -0.97511134437692
H           -3.07173702518239        2.34519450623336        0.76976484800352
H            0.46947025278805       -2.05491678874148        1.62053931343379
H           -0.90153661406876       -2.66135367117228       -1.09098070670422
H           -1.80042631918577       -2.38590897891194        0.42138868229966
H            1.67874415604494       -3.39655230706786       -0.73528644033774
25
 energy: -42.143041525609 gnorm: 0.009615443026 xtb: 6.6.1 (8d0f1dd)
C            2.67618739601130        0.81193919566815        0.06852824577527
N            1.72597822436116       -0.29233184361952       -0.03024667675534
C            2.26845336686056       -1.52574986304073       -0.11415829509083
N            1.50747992660099       -2.63186490645333       -0.09224574523454
C            0.37172448627803       -2.55070779812090        0.65475816465831
C            0.41610314430851        0.03661331996836       -0.11501551677116
C           -0.07341059209285        1.44340561578766       -0.05265674416415
O            0.55774507904147        2.46662967434799       -0.00059011635485
N           -1.44854857984827        1.34801151175919       -0.07631314552225
C           -2.34105197959706        2.48731089664675       -0.02531807502408
C           -1.87159487092586        0.05416690136351       -0.09692620181577
O           -2.97298146508609       -0.39563778767978       -0.06067371022690
N           -0.68563851860461       -0.75935570332115       -0.19823202550175
C           -0.85576556309742       -2.20840428081111       -0.09544496512452
H            2.48437811568592        1.40201297823901        0.96405866494696
H            3.68923364586782        0.42340726175662        0.11010291481628
H            2.57986099026944        1.47760618268177       -0.78864983954962
H            3.34198252028851       -1.60174591638992       -0.19514459120171
H           -1.73668448983908        3.37473175601678        0.15282733086690
H           -2.87343714103412        2.58583631235048       -0.97110349760342