      -----------------------------------------------------------      
     |                   =====================                   |     
     |                           x T B                           |     
     |                   =====================                   |     
     |                         S. Grimme                         |     
     |          Mulliken Center for Theoretical Chemistry        |     
     |                    University of Bonn                     |     
      -----------------------------------------------------------      

   * xtb version 6.6.1 (8d0f1dd) compiled by 'conda@1efc2f54142f' on 2023-08-01

   xtb is free software: you can redistribute it and/or modify it under
   the terms of the GNU Lesser General Public License as published by
   the Free Software Foundation, either version 3 of the License, or
   (at your option) any later version.
   
   xtb is distributed in the hope that it will be useful,
   but WITHOUT ANY WARRANTY; without even the implied warranty of
   MERCHANTABILITY or FITNESS FOR A PARTICULAR PURPOSE.  See the
   GNU Lesser General Public License for more details.
   
   Cite this work as:
   * C. Bannwarth, E. Caldeweyher, S. Ehlert, A. Hansen, P. Pracht,
     J. Seibert, S. Spicher, S. Grimme, WIREs Comput. Mol. Sci., 2020, 11,
     e01493. DOI: 10.1002/wcms.1493
   
   for GFN2-xTB:
   * C. Bannwarth, S. Ehlert and S. Grimme., J. Chem. Theory Comput., 2019,
     15, 1652-1671. DOI: 10.1021/acs.jctc.8b01176
   for GFN1-xTB:
   * S. Grimme, C. Bannwarth, P. Shushkov, J. Chem. Theory Comput., 2017,
     13, 1989-2009. DOI: 10.1021/acs.jctc.7b00118
   for GFN0-xTB:
   * P. Pracht, E. Caldeweyher, S. Ehlert, S. Grimme, ChemRxiv, 2019, preprint.
     DOI: 10.26434/chemrxiv.8326202.v1
   for GFN-FF:
   * S. Spicher and S. Grimme, Angew. Chem. Int. Ed., 2020, 59, 15665-15673.
     DOI: 10.1002/anie.202004239
   
   for ALPB and GBSA implicit solvation:
   * S. Ehlert, M. Stahn, S. Spicher, S. Grimme, J. Chem. Theory Comput.,
     2021, 17, 4250-4261. DOI: 10.1021/acs.jctc.1c00471
   
   for DFT-D4:
   * E. Caldeweyher, C. Bannwarth and S. Grimme, J. Chem. Phys., 2017,
     147, 034112. DOI: 10.1063/1.4993215
   * E. Caldeweyher, S. Ehlert, A. Hansen, H. Neugebauer, S. Spicher,
     C. Bannwarth and S. Grimme, J. Chem. Phys., 2019, 150, 154122.
     DOI: 10.1063/1.5090222
   * E. Caldeweyher, J.-M. Mewes, S. Ehlert and S. Grimme, Phys. Chem. Chem. Phys.
     2020, 22, 8499-8512. DOI: 10.1039/D0CP00502A
   
   for sTDA-xTB:
   * S. Grimme and C. Bannwarth, J. Chem. Phys., 2016, 145, 054103.
     DOI: 10.1063/1.4959605
   
   in the mass-spec context:
   * V. Asgeirsson, C. Bauer and S. Grimme, Chem. Sci., 2017, 8, 4879.
     DOI: 10.1039/c7sc00601b
   * J. Koopman and S. Grimme, ACS Omega 2019, 4, 12, 15120-15133.
     DOI: 10.1021/acsomega.9b02011
   
   for metadynamics refer to:
   * S. Grimme, J. Chem. Theory Comput., 2019, 155, 2847-2862
     DOI: 10.1021/acs.jctc.9b00143
   
   for SPH calculations refer to:
   * S. Spicher and S. Grimme, J. Chem. Theory Comput., 2021, 17, 1701-1714
     DOI: 10.1021/acs.jctc.0c01306
   
   with help from (in alphabetical order)
   P. Atkinson, C. Bannwarth, F. Bohle, G. Brandenburg, E. Caldeweyher
   M. Checinski, S. Dohm, S. Ehlert, S. Ehrlich, I. Gerasimov, C. Hölzer
   A. Katbashev, J. Koopman, C. Lavigne, S. Lehtola, F. März, M. Müller,
   F. Musil, H. Neugebauer, J. Pisarek, C. Plett, P. Pracht, F. Pultar,
   J. Seibert, P. Shushkov, S. Spicher, M. Stahn, M. Steiner, T. Strunk,
   J. Stückrath, T. Rose, and J. Unsleber
   
 * started run on 2024/06/05 at 20:00:10.211     

           -------------------------------------------------
          |                Calculation Setup                |
           -------------------------------------------------

          program call               : xtb xtbopt.xyz --opt crude --input .xc2 --gfn2
          hostname                   : n-62-21-68
          coordinate file            : xtbopt.xyz
          omp threads                :                     1

   ID    Z sym.   atoms
    1    6 C      1, 3, 5-7, 10, 11, 14
    2    7 N      2, 4, 9, 13
    3    8 O      8, 12
    4    1 H      15-25
########################################################################
[WARNING] Please study the warnings concerning your input carefully
-1- readin_getIntValue: could not parse ''
########################################################################

           -------------------------------------------------
          |                 G F N 2 - x T B                 |
           -------------------------------------------------

        Reference                      10.1021/acs.jctc.8b01176
      * Hamiltonian:
        H0-scaling (s, p, d)           1.850000    2.230000    2.230000
        zeta-weighting                 0.500000
      * Dispersion:
        s8                             2.700000
        a1                             0.520000
        a2                             5.000000
        s9                             5.000000
      * Repulsion:
        kExp                           1.500000    1.000000
        rExp                           1.000000
      * Coulomb:
        alpha                          2.000000
        third order                    shell-resolved
        anisotropic                    true
        a3                             3.000000
        a5                             4.000000
        cn-shift                       1.200000
        cn-exp                         4.000000
        max-rad                        5.000000

q/qsh data taken from xtbrestart
CAMM data taken from xtbrestart

          ...................................................
          :                      SETUP                      :
          :.................................................:
          :  # basis functions                  67          :
          :  # atomic orbitals                  67          :
          :  # shells                           39          :
          :  # electrons                        74          :
          :  max. iterations                   250          :
          :  Hamiltonian                  GFN2-xTB          :
          :  restarted?                       true          :
          :  GBSA solvation                  false          :
          :  PC potential                    false          :
          :  electronic temp.         5000.0000000     K    :
          :  accuracy                    1.0000000          :
          :  -> integral cutoff          0.2500000E+02      :
          :  -> integral neglect         0.1000000E-07      :
          :  -> SCF convergence          0.1000000E-05 Eh   :
          :  -> wf. convergence          0.1000000E-03 e    :
          :  Broyden damping             0.4000000          :
          ...................................................

 iter      E             dE          RMSdq      gap      omega  full diag
   1    -42.6009457 -0.426009E+02  0.169E-05    2.06       0.0  T
   2    -42.6009457 -0.163425E-12  0.137E-05    2.06    1463.7  T
   3    -42.6009457 -0.415668E-11  0.653E-06    2.06    3061.3  T

   *** convergence criteria satisfied after 3 iterations ***

         #    Occupation            Energy/Eh            Energy/eV
      -------------------------------------------------------------
         1        2.0000           -0.9501086             -25.8538
       ...           ...                  ...                  ...
        31        1.9998           -0.5916766             -16.1003
        32        1.9997           -0.5832805             -15.8719
        33        1.9988           -0.5594011             -15.2221
        34        1.9967           -0.5435952             -14.7920
        35        1.9961           -0.5411935             -14.7266
        36        1.9266           -0.4940160             -13.4429
        37        1.8515           -0.4822263             -13.1220 (HOMO)
        38        0.1890           -0.4064930             -11.0612 (LUMO)
        39        0.0343           -0.3781901             -10.2911
        40        0.0075           -0.3539668              -9.6319
        41        0.0000           -0.2555134              -6.9529
        42        0.0000           -0.2232684              -6.0754
       ...           ...                  ...                  ...
        67                          5.6761449             154.4558
      -------------------------------------------------------------
                  HL-Gap            0.0757333 Eh            2.0608 eV
             Fermi-level           -0.4422749 Eh          -12.0349 eV

 SCC (total)                   0 d,  0 h,  0 min,  0.026 sec
 SCC setup                      ...        0 min,  0.000 sec (  1.219%)
 Dispersion                     ...        0 min,  0.000 sec (  1.568%)
 classical contributions        ...        0 min,  0.000 sec (  0.399%)
 integral evaluation            ...        0 min,  0.006 sec ( 23.829%)
 iterations                     ...        0 min,  0.006 sec ( 23.132%)
 molecular gradient             ...        0 min,  0.013 sec ( 49.127%)
 printout                       ...        0 min,  0.000 sec (  0.670%)

         :::::::::::::::::::::::::::::::::::::::::::::::::::::
         ::                     SUMMARY                     ::
         :::::::::::::::::::::::::::::::::::::::::::::::::::::
         :: total energy             -40.214730123185 Eh    ::
         :: gradient norm             11.295471535945 Eh/a0 ::
         :: HOMO-LUMO gap              2.060807431213 eV    ::
         ::.................................................::
         :: SCC energy               -42.600945672617 Eh    ::
         :: -> isotropic ES            0.117819923470 Eh    ::
         :: -> anisotropic ES         -0.003443411666 Eh    ::
         :: -> anisotropic XC          0.011620032657 Eh    ::
         :: -> dispersion             -0.022670033718 Eh    ::
         :: repulsion energy           2.386117056846 Eh    ::
         :: add. restraining           0.000000000000 Eh    ::
         :: total charge               1.000000000000 e     ::
         :::::::::::::::::::::::::::::::::::::::::::::::::::::

      ----------------------------------------------------------- 
     |                   =====================                   |
     |                        A N C O P T                        |
     |                   =====================                   |
     |               Approximate Normal Coordinate               |
     |                Rational Function Optimizer                |
      ----------------------------------------------------------- 

          ...................................................
          :                      SETUP                      :
          :.................................................:
          :   optimization level             crude          :
          :   max. optcycles                   200          :
          :   ANC micro-cycles                  20          :
          :   degrees of freedom                69          :
          :.................................................:
          :   RF solver                   davidson          :
          :   write xtbopt.log                true          :
          :   linear?                        false          :
          :   energy convergence         0.5000000E-03 Eh   :
          :   grad. convergence          0.1000000E-01 Eh/α :
          :   maxmium RF displ.          1.0000000          :
          :   Hlow (freq-cutoff)         0.1000000E-01      :
          :   Hmax (freq-cutoff)         5.0000000          :
          :   S6 in model hess.         20.0000000          :
          ...................................................

generating ANC from model Hessian ...
Using Lindh-Hessian (1995)
 Shifting diagonal of input Hessian by    8.3452369564872061E-003
 Lowest  eigenvalues of input Hessian
    0.000000    0.000000    0.000000    0.000000    0.000000    0.000000
    0.010000    0.012020    0.013153    0.014489    0.015923    0.017160
    0.019510    0.022800    0.028178    0.029419    0.034139    0.035660
 Highest eigenvalues
    2.135620    2.205562    2.335037    2.440186    3.977049    6.235884


........................................................................
.............................. CYCLE    1 ..............................
........................................................................

 iter      E             dE          RMSdq      gap      omega  full diag
   1    -42.6009457 -0.426009E+02  0.326E-06    2.06       0.0  T
   2    -42.6009457 -0.781597E-13  0.282E-06    2.06    7101.2  T
   3    -42.6009457 -0.142109E-12  0.117E-06    2.06   17126.8  T
     SCC iter.                  ...        0 min,  0.005 sec
     gradient                   ...        0 min,  0.013 sec
 * total energy  :   -40.2147301 Eh     change       -0.3055334E-12 Eh
   gradient norm :    11.2954715 Eh/α   predicted     0.0000000E+00 (-100.00%)
   displ. norm   :     0.8429992 α      lambda       -0.9510296E+01
   maximum displ.:     0.8233641 α      in ANC's #68, #47, #69, ...

........................................................................
.............................. CYCLE    2 ..............................
........................................................................

 iter      E             dE          RMSdq      gap      omega  full diag
   1    -42.5672665 -0.425673E+02  0.107E+00    1.60       0.0  T
   2    -42.5687130 -0.144650E-02  0.724E-01    2.27       1.0  T
   3    -42.5706623 -0.194929E-02  0.492E-01    1.63       1.0  T
   4    -42.5747906 -0.412830E-02  0.164E-01    1.99       1.0  T
   5    -42.5750497 -0.259078E-03  0.943E-02    1.89       1.0  T
   6    -42.5752624 -0.212661E-03  0.248E-02    1.90       1.0  T
   7    -42.5752661 -0.377941E-05  0.136E-02    1.90       1.5  T
   8    -42.5752673 -0.112231E-05  0.390E-03    1.91       5.1  T
   9    -42.5752675 -0.254259E-06  0.909E-04    1.90      22.0  T
  10    -42.5752675 -0.138376E-07  0.421E-04    1.90      47.5  T
     SCC iter.                  ...        0 min,  0.014 sec
     gradient                   ...        0 min,  0.013 sec
 * total energy  :   -42.0490432 Eh     change       -0.1834313E+01 Eh
   gradient norm :     0.2629563 Eh/α   predicted    -0.8136352E+01 ( 343.56%)
   displ. norm   :     0.4559730 α      lambda       -0.6254772E-01
   maximum displ.:     0.2533676 α      in ANC's #3, #13, #47, ...

........................................................................
.............................. CYCLE    3 ..............................
........................................................................

 iter      E             dE          RMSdq      gap      omega  full diag
   1    -42.5527031 -0.425527E+02  0.352E-01    1.96       0.0  T
   2    -42.5527754 -0.722835E-04  0.214E-01    1.93       1.0  T
   3    -42.5525122  0.263196E-03  0.988E-02    2.00       1.0  T
   4    -42.5528274 -0.315211E-03  0.261E-02    1.93       1.0  T
   5    -42.5528295 -0.208320E-05  0.131E-02    1.94       1.5  T
   6    -42.5528308 -0.130257E-05  0.787E-03    1.94       2.5  T
   7    -42.5528320 -0.127299E-05  0.220E-03    1.94       9.1  T
   8    -42.5528321 -0.377051E-07  0.939E-04    1.94      21.3  T
   9    -42.5528321 -0.903750E-08  0.346E-04    1.94      57.8  T
     SCC iter.                  ...        0 min,  0.013 sec
     gradient                   ...        0 min,  0.013 sec
 * total energy  :   -42.0683486 Eh     change       -0.1930535E-01 Eh
   gradient norm :     0.0715469 Eh/α   predicted    -0.3777873E-01 (  95.69%)
   displ. norm   :     0.1558115 α      lambda       -0.5192118E-02
   maximum displ.:     0.0560196 α      in ANC's #10, #33, #20, ...

........................................................................
.............................. CYCLE    4 ..............................
........................................................................

 iter      E             dE          RMSdq      gap      omega  full diag
   1    -42.5585981 -0.425586E+02  0.773E-02    1.97       0.0  T
   2    -42.5585969  0.112004E-05  0.527E-02    1.91       1.0  T
   3    -42.5586065 -0.956042E-05  0.382E-02    1.96       1.0  T
   4    -42.5586343 -0.278244E-04  0.846E-03    1.94       2.4  T
   5    -42.5586351 -0.754613E-06  0.315E-03    1.94       6.3  T
   6    -42.5586353 -0.190669E-06  0.111E-03    1.94      18.0  T
   7    -42.5586353 -0.133404E-07  0.604E-04    1.94      33.1  T
   8    -42.5586353 -0.361614E-08  0.327E-04    1.94      61.1  T
     SCC iter.                  ...        0 min,  0.011 sec
     gradient                   ...        0 min,  0.013 sec
 * total energy  :   -42.0725120 Eh     change       -0.4163385E-02 Eh
   gradient norm :     0.0515656 Eh/α   predicted    -0.2659120E-02 ( -36.13%)
   displ. norm   :     0.3345026 α      lambda       -0.6148795E-02
   maximum displ.:     0.1231384 α      in ANC's #4, #3, #10, ...

........................................................................
.............................. CYCLE    5 ..............................
........................................................................

 iter      E             dE          RMSdq      gap      omega  full diag
   1    -42.5668698 -0.425669E+02  0.160E-01    2.00       0.0  T
   2    -42.5668720 -0.220624E-05  0.102E-01    1.92       1.0  T
   3    -42.5668143  0.576984E-04  0.815E-02    2.01       1.0  T
   4    -42.5669698 -0.155448E-03  0.155E-02    1.96       1.3  T
   5    -42.5669712 -0.144210E-05  0.807E-03    1.96       2.5  T
   6    -42.5669728 -0.155032E-05  0.261E-03    1.96       7.7  T
   7    -42.5669728 -0.649322E-07  0.125E-03    1.96      16.0  T
   8    -42.5669728 -0.817353E-08  0.567E-04    1.96      35.3  T
   9    -42.5669728 -0.616477E-08  0.155E-04    1.96     128.9  T
     SCC iter.                  ...        0 min,  0.012 sec
     gradient                   ...        0 min,  0.013 sec
 * total energy  :   -42.0760818 Eh     change       -0.3569844E-02 Eh
   gradient norm :     0.0364728 Eh/α   predicted    -0.3418402E-02 (  -4.24%)
   displ. norm   :     0.2642076 α      lambda       -0.1505176E-02
   maximum displ.:     0.1570259 α      in ANC's #4, #3, #10, ...

........................................................................
.............................. CYCLE    6 ..............................
........................................................................

 iter      E             dE          RMSdq      gap      omega  full diag
   1    -42.5649854 -0.425650E+02  0.103E-01    1.97       0.0  T
   2    -42.5649901 -0.476827E-05  0.647E-02    1.95       1.0  T
   3    -42.5650009 -0.108113E-04  0.507E-02    1.97       1.0  T
   4    -42.5650398 -0.388405E-04  0.125E-02    1.95       1.6  T
   5    -42.5650424 -0.265288E-05  0.520E-03    1.96       3.8  T
   6    -42.5650426 -0.111921E-06  0.282E-03    1.96       7.1  T
   7    -42.5650427 -0.122413E-06  0.888E-04    1.96      22.5  T
   8    -42.5650427 -0.186884E-07  0.328E-04    1.96      61.0  T
     SCC iter.                  ...        0 min,  0.011 sec
     gradient                   ...        0 min,  0.013 sec
 * total energy  :   -42.0768494 Eh     change       -0.7676131E-03 Eh
   gradient norm :     0.0275810 Eh/α   predicted    -0.8051261E-03 (   4.89%)
   displ. norm   :     0.1482545 α      lambda       -0.5242108E-03
   maximum displ.:     0.0904848 α      in ANC's #4, #3, #1, ...

........................................................................
.............................. CYCLE    7 ..............................
........................................................................

 iter      E             dE          RMSdq      gap      omega  full diag
   1    -42.5671393 -0.425671E+02  0.606E-02    1.95       0.0  T
   2    -42.5671398 -0.458153E-06  0.375E-02    1.97       1.0  T
   3    -42.5671516 -0.118706E-04  0.287E-02    1.95       1.0  T
   4    -42.5671617 -0.100534E-04  0.503E-03    1.96       4.0  T
   5    -42.5671624 -0.660014E-06  0.217E-03    1.96       9.2  T
   6    -42.5671624 -0.599635E-07  0.102E-03    1.96      19.6  T
   7    -42.5671624 -0.113803E-07  0.398E-04    1.96      50.2  T
   8    -42.5671624 -0.220594E-08  0.133E-04    1.96     150.8  T
     SCC iter.                  ...        0 min,  0.011 sec
     gradient                   ...        0 min,  0.013 sec
 * total energy  :   -42.0772258 Eh     change       -0.3763493E-03 Eh
   gradient norm :     0.0243792 Eh/α   predicted    -0.2678723E-03 ( -28.82%)
   displ. norm   :     0.1721422 α      lambda       -0.4585707E-03
   maximum displ.:     0.1126202 α      in ANC's #4, #3, #5, ...

........................................................................
.............................. CYCLE    8 ..............................
........................................................................

 iter      E             dE          RMSdq      gap      omega  full diag
   1    -42.5688841 -0.425689E+02  0.705E-02    1.93       0.0  T
   2    -42.5688841  0.269177E-07  0.458E-02    1.97       1.0  T
   3    -42.5689101 -0.259994E-04  0.314E-02    1.93       1.0  T
   4    -42.5689208 -0.107755E-04  0.843E-03    1.95       2.4  T
   5    -42.5689226 -0.174501E-05  0.290E-03    1.95       6.9  T
   6    -42.5689228 -0.170617E-06  0.136E-03    1.95      14.7  T
   7    -42.5689228 -0.135294E-07  0.670E-04    1.95      29.9  T
   8    -42.5689228 -0.410769E-08  0.252E-04    1.95      79.5  T
     SCC iter.                  ...        0 min,  0.011 sec
     gradient                   ...        0 min,  0.013 sec
 * total energy  :   -42.0775516 Eh     change       -0.3258013E-03 Eh
   gradient norm :     0.0210409 Eh/α   predicted    -0.2360833E-03 ( -27.54%)
   displ. norm   :     0.1275483 α      lambda       -0.2925642E-03
   maximum displ.:     0.0787825 α      in ANC's #4, #3, #5, ...

........................................................................
.............................. CYCLE    9 ..............................
........................................................................

 iter      E             dE          RMSdq      gap      omega  full diag
   1    -42.5694787 -0.425695E+02  0.600E-02    1.91       0.0  T
   2    -42.5694786  0.654941E-07  0.417E-02    1.95       1.0  T
   3    -42.5695017 -0.230604E-04  0.256E-02    1.92       1.0  T
   4    -42.5695086 -0.691255E-05  0.852E-03    1.94       2.3  T
   5    -42.5695100 -0.138315E-05  0.348E-03    1.93       5.8  T
   6    -42.5695103 -0.290949E-06  0.114E-03    1.93      17.5  T
   7    -42.5695103 -0.104864E-07  0.612E-04    1.93      32.7  T
   8    -42.5695103 -0.278352E-08  0.224E-04    1.93      89.1  T
     SCC iter.                  ...        0 min,  0.011 sec
     gradient                   ...        0 min,  0.013 sec
 * total energy  :   -42.0777479 Eh     change       -0.1963550E-03 Eh
   gradient norm :     0.0176265 Eh/α   predicted    -0.1486624E-03 ( -24.29%)
   displ. norm   :     0.0537590 α      lambda       -0.1344630E-03
   maximum displ.:     0.0215916 α      in ANC's #13, #3, #5, ...

........................................................................
.............................. CYCLE   10 ..............................
........................................................................

 iter      E             dE          RMSdq      gap      omega  full diag
   1    -42.5697942 -0.425698E+02  0.307E-02    1.91       0.0  T
   2    -42.5697943 -0.145048E-07  0.222E-02    1.93       1.0  T
   3    -42.5697981 -0.387933E-05  0.136E-02    1.92       1.5  T
   4    -42.5698004 -0.223325E-05  0.447E-03    1.93       4.5  T
   5    -42.5698007 -0.341297E-06  0.207E-03    1.92       9.7  T
   6    -42.5698008 -0.104067E-06  0.526E-04    1.92      38.0  T
   7    -42.5698008 -0.196029E-08  0.291E-04    1.92      68.8  T
     SCC iter.                  ...        0 min,  0.010 sec
     gradient                   ...        0 min,  0.013 sec
 * total energy  :   -42.0778473 Eh     change       -0.9939278E-04 Eh
   gradient norm :     0.0156647 Eh/α   predicted    -0.6742865E-04 ( -32.16%)
   displ. norm   :     0.0611700 α      lambda       -0.1461533E-03
   maximum displ.:     0.0292998 α      in ANC's #2, #8, #1, ...

........................................................................
.............................. CYCLE   11 ..............................
........................................................................

 iter      E             dE          RMSdq      gap      omega  full diag
   1    -42.5701260 -0.425701E+02  0.292E-02    1.92       0.0  T
   2    -42.5701263 -0.343194E-06  0.185E-02    1.92       1.1  T
   3    -42.5701228  0.348028E-05  0.122E-02    1.91       1.6  T
   4    -42.5701271 -0.426315E-05  0.218E-03    1.92       9.2  T
   5    -42.5701272 -0.645202E-07  0.123E-03    1.92      16.3  T
   6    -42.5701272 -0.368813E-07  0.449E-04    1.92      44.5  T
   7    -42.5701272 -0.172504E-08  0.204E-04    1.92      98.0  T
     SCC iter.                  ...        0 min,  0.010 sec
     gradient                   ...        0 min,  0.013 sec
 * total energy  :   -42.0779529 Eh     change       -0.1055583E-03 Eh
   gradient norm :     0.0127437 Eh/α   predicted    -0.7335043E-04 ( -30.51%)
   displ. norm   :     0.0776979 α      lambda       -0.1229038E-03
   maximum displ.:     0.0390689 α      in ANC's #4, #2, #1, ...

........................................................................
.............................. CYCLE   12 ..............................
........................................................................

 iter      E             dE          RMSdq      gap      omega  full diag
   1    -42.5706975 -0.425707E+02  0.359E-02    1.93       0.0  T
   2    -42.5706966  0.948953E-06  0.223E-02    1.91       1.0  T
   3    -42.5706951  0.148682E-05  0.195E-02    1.93       1.0  T
   4    -42.5707024 -0.730729E-05  0.350E-03    1.92       5.7  T
   5    -42.5707026 -0.234354E-06  0.135E-03    1.92      14.8  T
   6    -42.5707027 -0.268285E-07  0.661E-04    1.92      30.2  T
   7    -42.5707027 -0.431309E-08  0.303E-04    1.92      66.0  T
     SCC iter.                  ...        0 min,  0.010 sec
     gradient                   ...        0 min,  0.013 sec
 * total energy  :   -42.0780374 Eh     change       -0.8448785E-04 Eh
   gradient norm :     0.0091729 Eh/α   predicted    -0.6182431E-04 ( -26.82%)
   displ. norm   :     0.0614997 α      lambda       -0.6769883E-04
   maximum displ.:     0.0313947 α      in ANC's #4, #3, #2, ...

   *** GEOMETRY OPTIMIZATION CONVERGED AFTER 12 ITERATIONS ***

------------------------------------------------------------------------
 total energy gain   :        -1.8633072 Eh    -1169.2429 kcal/mol
 total RMSD          :         0.2850363 a0        0.1508 Å
 total power (kW/mol):      -407.6760411 (step)********** (real)
------------------------------------------------------------------------

 ANCopt (total)                0 d,  0 h,  0 min,  0.361 sec
 optimizer setup                ...        0 min,  0.000 sec (  0.097%)
 model hessian                  ...        0 min,  0.006 sec (  1.688%)
 ANC generation                 ...        0 min,  0.001 sec (  0.241%)
 coordinate transformation      ...        0 min,  0.000 sec (  0.032%)
 single point calculation       ...        0 min,  0.348 sec ( 96.510%)
 optimization log               ...        0 min,  0.002 sec (  0.674%)
 hessian update                 ...        0 min,  0.000 sec (  0.042%)
 rational function              ...        0 min,  0.002 sec (  0.525%)

================
 final structure:
================
25
 xtb: 6.6.1 (8d0f1dd)
C            3.29081480877365        1.22465270833505        0.01899498261640
N            2.36903257514479        0.12063267265050        0.00602156576971
C            2.67165951500428       -1.18056649899756        0.00557781648859
N            1.53292796823051       -1.91600694103844       -0.01493881967587
C            0.47607381357398       -1.04853809486882       -0.01905887454495
C            0.99876557373301        0.23600494351680       -0.00888287505681
C            0.14318366842778        1.39538375192024        0.02129752144075
O            0.48841989607158        2.56013019969225        0.02875405709943
N           -1.20869927461119        1.00999220005191        0.05009735177651
C           -2.14189773974751        2.12055577576574        0.10670791362079
C           -1.72908982083827       -0.22675225465941        0.03407786059654
O           -2.82885585278819       -2.55436971831583        0.04138932204783
N           -0.85513646266910       -1.27865039527942       -0.02521846748876
C           -1.36467231549300       -2.61164206328280        0.06873492734824
H            3.93582879026742        1.17015083470228        0.89621291577817
H            3.91254641502415        1.21178742786435       -0.87675625140411
H            2.71727132492451        2.15083921785034        0.04684553364017
H            3.66209042390085       -1.58606938597057        0.01803178348206
H           -1.93902316032720        2.80631542933898       -0.71573928291731
H           -3.15658035284780        1.73957647924827        0.04154048409230
H           -2.00532609872088        2.66879427710052        1.03939488752553
H           -3.18158759560442       -2.09671458505467       -0.77222912127138
H           -1.04440667927663       -3.22791084235086       -0.76973857062862
H           -3.06268245631624       -1.94748178322320        0.78151049605889
H            1.47977455026232       -2.92187481339597        0.02854446150671

 Bond Distances (Angstroems)
 ---------------------------
C1-N2=1.4383         C1-H15=1.0902        C1-H16=1.0905        C1-H17=1.0897        N2-C1=1.4383         N2-C3=1.3359         
N2-C6=1.3752         C3-N2=1.3359         C3-N4=1.3557         C3-H18=1.0703        N4-C3=1.3557         N4-C5=1.3673         
N4-H25=1.0082        C5-N4=1.3673         C5-C6=1.3869         C5-N13=1.3510        C6-N2=1.3752         C6-C5=1.3869         
C6-C7=1.4412         C7-C6=1.4412         C7-O8=1.2149         C7-N9=1.4060         O8-C7=1.2149         N9-C7=1.4060         
N9-C10=1.4517        N9-C11=1.3419        C10-N9=1.4517        C10-H19=1.0899       C10-H20=1.0858       C10-H21=1.0905       
C11-N9=1.3419        C11-N13=1.3689       O12-C14=1.4656       O12-H22=0.9979       O12-H24=0.9853       N13-C5=1.3510        
N13-C11=1.3689       N13-C14=1.4301       C14-O12=1.4656       C14-N13=1.4301       C14-H23=1.0888       H15-C1=1.0902        
H16-C1=1.0905        H17-C1=1.0897        H18-C3=1.0703        H19-C10=1.0899       H20-C10=1.0858       H21-C10=1.0905       
H22-O12=0.9979       H23-C14=1.0888       H24-O12=0.9853       H25-N4=1.0082        
 C  H  Rav=1.0870 sigma=0.0065  Rmin=1.0703  Rmax=1.0905     8
 C  C  Rav=1.4140 sigma=0.0272  Rmin=1.3869  Rmax=1.4412     2
 N  H  Rav=1.0082 sigma=0.0000  Rmin=1.0082  Rmax=1.0082     1
 N  C  Rav=1.3838 sigma=0.0390  Rmin=1.3359  Rmax=1.4517    11
 O  H  Rav=0.9916 sigma=0.0063  Rmin=0.9853  Rmax=0.9979     2
 O  C  Rav=1.3402 sigma=0.1254  Rmin=1.2149  Rmax=1.4656     2

 selected bond angles (degree)
 --------------------
H15-C1-N2=110.37               H16-C1-N2=110.42               H16-C1-H15=108.85              H17-C1-N2=108.38               
H17-C1-H15=109.47              H17-C1-H16=109.34              C3-N2-C1=127.05                C6-N2-C1=125.05                
C6-N2-C3=107.90                N4-C3-N2=109.76                H18-C3-N2=125.36               H18-C3-N4=124.88               
C5-N4-C3=107.77                H25-N4-C3=125.79               H25-N4-C5=126.32               C6-C5-N4=107.24                
N13-C5-N4=130.81               N13-C5-C6=121.95               C5-C6-N2=107.33                C7-C6-N2=131.21                
C7-C6-C5=121.43                O8-C7-C6=127.06                N9-C7-C6=110.53                N9-C7-O8=122.40                
C10-N9-C7=114.15               C11-N9-C7=128.70               C11-N9-C10=117.15              H19-C10-N9=109.41              
H20-C10-N9=109.27              H20-C10-H19=110.45             H21-C10-N9=109.72              H21-C10-H19=107.81             
H21-C10-H20=110.17             

 selected dihedral angles (degree)
 ---------------------------------
C3-N2-C1-H15=301.61           C3-N2-C1-H16= 62.00           C3-N2-C1-H17=181.74           C6-N2-C1-H15=121.64           
C6-N2-C1-H16=242.03           C6-N2-C1-H17=  1.77           N4-C3-N2-C1=180.28            N4-C3-N2-C6=  0.26            
H18-C3-N2-C1=  0.20           H18-C3-N2-C6=180.17           C5-N4-C3-N2=359.61            C5-N4-C3-H18=179.70           
H25-N4-C3-N2=183.38           H25-N4-C3-H18=  3.47          C6-C5-N4-C3=  0.36            C6-C5-N4-H25=176.56           
N13-C5-N4-C3=180.66           N13-C5-N4-H25=356.86          C5-C6-N2-C1=179.95            C5-C6-N2-C3=359.97            
C7-C6-N2-C1=358.06            C7-C6-N2-C3=178.08            N2-C6-C5-N4=359.79            N2-C6-C5-N13=179.53           
C7-C6-C5-N4=181.46            C7-C6-C5-N13=  1.20           O8-C7-C6-N2=  2.34            O8-C7-C6-C5=180.22            
N9-C7-C6-N2=182.68            N9-C7-C6-C5=  0.56            C10-N9-C7-C6=178.92           C10-N9-C7-O8=359.24           
C11-N9-C7-C6=359.02           C11-N9-C7-O8=179.34           H19-C10-N9-C7= 54.25          H19-C10-N9-C11=234.15         
H20-C10-N9-C7=175.28          H20-C10-N9-C11=355.19         H21-C10-N9-C7=296.17          H21-C10-N9-C11=116.07         
           -------------------------------------------------
          |                Final Singlepoint                |
           -------------------------------------------------

          ...................................................
          :                      SETUP                      :
          :.................................................:
          :  # basis functions                  67          :
          :  # atomic orbitals                  67          :
          :  # shells                           39          :
          :  # electrons                        74          :
          :  max. iterations                   250          :
          :  Hamiltonian                  GFN2-xTB          :
          :  restarted?                      false          :
          :  GBSA solvation                  false          :
          :  PC potential                    false          :
          :  electronic temp.         5000.0000000     K    :
          :  accuracy                    1.0000000          :
          :  -> integral cutoff          0.2500000E+02      :
          :  -> integral neglect         0.1000000E-07      :
          :  -> SCF convergence          0.1000000E-05 Eh   :
          :  -> wf. convergence          0.1000000E-03 e    :
          :  Broyden damping             0.4000000          :
          ...................................................

 iter      E             dE          RMSdq      gap      omega  full diag
   1    -42.5707027 -0.425707E+02  0.891E-05    1.92       0.0  T
   2    -42.5707027 -0.362022E-10  0.534E-05    1.92     374.6  T
   3    -42.5707027 -0.134861E-10  0.359E-05    1.92     557.6  T

   *** convergence criteria satisfied after 3 iterations ***

         #    Occupation            Energy/Eh            Energy/eV
      -------------------------------------------------------------
         1        2.0000           -0.9183474             -24.9895
       ...           ...                  ...                  ...
        31        1.9998           -0.5921429             -16.1130
        32        1.9998           -0.5875000             -15.9867
        33        1.9989           -0.5615694             -15.2811
        34        1.9971           -0.5455654             -14.8456
        35        1.9967           -0.5433873             -14.7863
        36        1.9509           -0.5004879             -13.6190
        37        1.8091           -0.4777885             -13.0013 (HOMO)
        38        0.1987           -0.4072680             -11.0823 (LUMO)
        39        0.0405           -0.3807399             -10.3605
        40        0.0086           -0.3560253              -9.6879
        41        0.0000           -0.2577319              -7.0132
        42        0.0000           -0.2133431              -5.8054
       ...           ...                  ...                  ...
        67                          0.5519044              15.0181
      -------------------------------------------------------------
                  HL-Gap            0.0705205 Eh            1.9190 eV
             Fermi-level           -0.4421772 Eh          -12.0323 eV

 SCC (total)                   0 d,  0 h,  0 min,  0.023 sec
 SCC setup                      ...        0 min,  0.000 sec (  0.858%)
 Dispersion                     ...        0 min,  0.000 sec (  0.807%)
 classical contributions        ...        0 min,  0.000 sec (  0.307%)
 integral evaluation            ...        0 min,  0.005 sec ( 21.467%)
 iterations                     ...        0 min,  0.005 sec ( 20.093%)
 molecular gradient             ...        0 min,  0.013 sec ( 55.879%)
 printout                       ...        0 min,  0.000 sec (  0.532%)

         :::::::::::::::::::::::::::::::::::::::::::::::::::::
         ::                     SUMMARY                     ::
         :::::::::::::::::::::::::::::::::::::::::::::::::::::
         :: total energy             -42.078037365728 Eh    ::
         :: gradient norm              0.009175367430 Eh/a0 ::
         :: HOMO-LUMO gap              1.918960697667 eV    ::
         ::.................................................::
         :: SCC energy               -42.570702676891 Eh    ::
         :: -> isotropic ES            0.124879289493 Eh    ::
         :: -> anisotropic ES         -0.009009867188 Eh    ::
         :: -> anisotropic XC          0.012831526523 Eh    ::
         :: -> dispersion             -0.022735761696 Eh    ::
         :: repulsion energy           0.492560244778 Eh    ::
         :: add. restraining           0.000000000000 Eh    ::
         :: total charge               1.000000000000 e     ::
         :::::::::::::::::::::::::::::::::::::::::::::::::::::

           -------------------------------------------------
          |                Property Printout                |
           -------------------------------------------------

    * Orbital Energies and Occupations

         #    Occupation            Energy/Eh            Energy/eV
      -------------------------------------------------------------
         1        2.0000           -0.9183474             -24.9895
       ...           ...                  ...                  ...
        25        2.0000           -0.6463341             -17.5876
        26        2.0000           -0.6444830             -17.5373
        27        2.0000           -0.6329171             -17.2226
        28        2.0000           -0.6194947             -16.8573
        29        2.0000           -0.6158201             -16.7573
        30        1.9999           -0.6074850             -16.5305
        31        1.9998           -0.5921429             -16.1130
        32        1.9998           -0.5875000             -15.9867
        33        1.9989           -0.5615694             -15.2811
        34        1.9971           -0.5455654             -14.8456
        35        1.9967           -0.5433873             -14.7863
        36        1.9509           -0.5004879             -13.6190
        37        1.8091           -0.4777885             -13.0013 (HOMO)
        38        0.1987           -0.4072680             -11.0823 (LUMO)
        39        0.0405           -0.3807399             -10.3605
        40        0.0086           -0.3560253              -9.6879
        41        0.0000           -0.2577319              -7.0132
        42        0.0000           -0.2133431              -5.8054
        43                         -0.1713711              -4.6632
        44                         -0.1554628              -4.2304
        45                         -0.0993506              -2.7035
        46                         -0.0955046              -2.5988
        47                         -0.0799738              -2.1762
        48                         -0.0304973              -0.8299
       ...                                ...                  ...
        67                          0.5519044              15.0181
      -------------------------------------------------------------
                  HL-Gap            0.0705205 Eh            1.9190 eV
             Fermi-level           -0.4421772 Eh          -12.0323 eV

     #   Z          covCN         q      C6AA      α(0)
     1   6 C        3.691    -0.085    22.322     6.761
     2   7 N        2.828     0.058    20.228     6.680
     3   6 C        3.045     0.046    26.927     8.511
     4   7 N        2.786    -0.075    22.697     7.076
     5   6 C        3.051     0.101    25.715     8.317
     6   6 C        3.111    -0.013    28.174     8.696
     7   6 C        2.773     0.253    22.750     7.812
     8   8 O        0.857    -0.409    21.856     6.268
     9   7 N        2.751    -0.020    21.630     6.907
    10   6 C        3.719    -0.059    21.760     6.663
    11   6 C        1.889    -0.168    35.946     9.683
    12   8 O        2.444    -0.220    17.612     5.668
    13   7 N        2.744    -0.012    21.491     6.885
    14   6 C        2.703    -0.091    30.244     9.001
    15   1 H        0.925     0.095     1.829     2.115
    16   1 H        0.924     0.096     1.826     2.113
    17   1 H        0.925     0.130     1.534     1.937
    18   1 H        0.927     0.109     1.703     2.041
    19   1 H        0.925     0.089     1.894     2.152
    20   1 H        0.925     0.079     1.993     2.207
    21   1 H        0.924     0.085     1.927     2.171
    22   1 H        0.800     0.362     0.562     1.178
    23   1 H        0.925     0.043     2.414     2.430
    24   1 H        0.802     0.386     0.512     1.124
    25   1 H        0.860     0.220     1.008     1.572

 Mol. C6AA /au·bohr⁶  :       6709.193641
 Mol. C8AA /au·bohr⁸  :     155704.228842
 Mol. α(0) /au        :        125.968048


Wiberg/Mayer (AO) data.
largest (>0.10) Wiberg bond orders for each atom

 ---------------------------------------------------------------------------
     #   Z sym  total        # sym  WBO       # sym  WBO       # sym  WBO
 ---------------------------------------------------------------------------
     1   6 C    3.925 --     2 N    0.989    15 H    0.964    17 H    0.963
                            16 H    0.963
     2   7 N    3.628 --     3 C    1.352     6 C    1.150     1 C    0.989
     3   6 C    3.781 --     2 N    1.352     4 N    1.264    18 H    0.957
     4   7 N    3.547 --     3 C    1.264     5 C    1.169    25 H    0.924
     5   6 C    3.928 --     6 C    1.351    13 N    1.183     4 N    1.169
     6   6 C    3.905 --     5 C    1.351     2 N    1.150     7 C    1.096
     7   6 C    3.927 --     8 O    1.650     6 C    1.096     9 N    1.067
     8   8 O    1.964 --     7 C    1.650     9 N    0.130
     9   7 N    3.627 --    11 C    1.348     7 C    1.067    10 C    0.989
                             8 O    0.130
    10   6 C    3.947 --     9 N    0.989    20 H    0.980    19 H    0.968
                            21 H    0.967
    11   6 C    2.875 --     9 N    1.348    13 N    1.228
    12   8 O    2.509 --    22 H    0.826    14 C    0.825    24 H    0.821
    13   7 N    3.613 --    11 C    1.228     5 C    1.183    14 C    1.014
    14   6 C    2.956 --    13 N    1.014    23 H    0.952    12 O    0.825
    15   1 H    0.987 --     1 C    0.964
    16   1 H    0.986 --     1 C    0.963
    17   1 H    0.983 --     1 C    0.963
    18   1 H    0.987 --     3 C    0.957
    19   1 H    0.990 --    10 C    0.968
    20   1 H    0.993 --    10 C    0.980
    21   1 H    0.990 --    10 C    0.967
    22   1 H    0.861 --    12 O    0.826
    23   1 H    0.985 --    14 C    0.952
    24   1 H    0.851 --    12 O    0.821
    25   1 H    0.951 --     4 N    0.924
 ---------------------------------------------------------------------------

Topologies differ in total number of bonds
Writing topology from bond orders to xtbtopo.mol

molecular dipole:
                 x           y           z       tot (Debye)
 q only:       -0.387      -2.738      -0.005
   full:        0.040      -2.720      -0.358       6.973
molecular quadrupole (traceless):
                xx          xy          yy          xz          yz          zz
 q only:       33.358       5.848      -9.913       0.148       0.858     -23.445
  q+dip:       32.835       1.858     -13.341       1.621       3.974     -19.494
   full:       32.601       1.884     -14.288       1.657       3.947     -18.313

           -------------------------------------------------
          |                Geometry Summary                 |
           -------------------------------------------------

      molecular mass/u    :      195.1988581
   center of mass at/Å    :        0.0911485      -0.1533962       0.0194316
  moments of inertia/u·Å² :        0.5076078E+03   0.7697985E+03   0.1267215E+04
rotational constants/cm⁻¹ :        0.3320996E-01   0.2189876E-01   0.1330290E-01

 * 25 selected distances

     #   Z          #   Z                                           value/Å
     1   6 C        2   7 N                                       1.4383016
     2   7 N        3   6 C                                       1.3359277
     3   6 C        4   7 N                                       1.3557299
     4   7 N        5   6 C                                       1.3672821
     2   7 N        6   6 C                                       1.3751963
     5   6 C        6   6 C                                       1.3868531
     6   6 C        7   6 C                                       1.4412116
     7   6 C        8   8 O                                       1.2148573
     7   6 C        9   7 N                                       1.4060384
     9   7 N       10   6 C                                       1.4516942
     9   7 N       11   6 C                                       1.3418644
     5   6 C       13   7 N                                       1.3509666
    11   6 C       13   7 N                                       1.3688684
    12   8 O       14   6 C                                       1.4655585 (max)
     1   6 C       15   1 H                                       1.0901949
     1   6 C       16   1 H                                       1.0904523
     1   6 C       17   1 H                                       1.0897474
     3   6 C       18   1 H                                       1.0702996
    10   6 C       19   1 H                                       1.0898826
    10   6 C       20   1 H                                       1.0858053
    10   6 C       21   1 H                                       1.0904689
    12   8 O       22   1 H                                       0.9979194
    14   6 C       23   1 H                                       1.0887586
    12   8 O       24   1 H                                       0.9852753 (min)
     4   7 N       25   1 H                                       1.0082095

 * 6 distinct bonds (by element types)

   Z      Z             #   av. dist./Å        max./Å        min./Å
   1 H    6 C           8     1.0869512     1.0904689     1.0702996
   6 C    6 C           2     1.4140323     1.4412116     1.3868531
   1 H    7 N           1     1.0082095     1.0082095     1.0082095
   6 C    7 N          10     1.3791869     1.4516942     1.3359277
   1 H    8 O           2     0.9915973     0.9979194     0.9852753
   6 C    8 O           2     1.3402079     1.4655585     1.2148573


optimized geometry written to: xtbopt.xyz


           -------------------------------------------------
          | TOTAL ENERGY              -42.078037365728 Eh   |
          | GRADIENT NORM               0.009175367430 Eh/α |
          | HOMO-LUMO GAP               1.918960697667 eV   |
           -------------------------------------------------

------------------------------------------------------------------------
 * finished run on 2024/06/05 at 20:00:10.663     
------------------------------------------------------------------------
 total:
 * wall-time:     0 d,  0 h,  0 min,  0.452 sec
 *  cpu-time:     0 d,  0 h,  0 min,  0.423 sec
 * ratio c/w:     0.937 speedup
 SCF:
 * wall-time:     0 d,  0 h,  0 min,  0.026 sec
 *  cpu-time:     0 d,  0 h,  0 min,  0.026 sec
 * ratio c/w:     1.000 speedup
 ANC optimizer:
 * wall-time:     0 d,  0 h,  0 min,  0.389 sec
 *  cpu-time:     0 d,  0 h,  0 min,  0.384 sec
 * ratio c/w:     0.985 speedup

