72
 energy: -103.313041026544 gnorm: 0.065110420366 xtb: 6.6.1 (8d0f1dd)
N           -1.50893827487514        2.78667656572037        2.25154178964087
C           -1.57645639991937        2.15235498257669        1.17763585514845
C           -2.75447912048907        2.05753251193406        0.26271595689987
C           -3.33234140698542        0.65160330829375        0.34180844482156
C           -4.30768289852173        0.24597845353460       -0.57140387778992
C           -4.85944707053911       -1.02059848746992       -0.52503114765603
O           -5.81500734806532       -1.49497690820516       -1.37163559511897
C           -6.36987092633757       -0.61746951944046       -2.31730302257654
C           -4.43070060144298       -1.93544047329126        0.46190386633615
O           -5.02784733013865       -3.15915842324505        0.42311732596672
C           -4.71745495971969       -4.08721539396955        1.43087032958237
C           -3.46789010339497       -1.53082099644433        1.36621641328580
C           -2.92501563164068       -0.25055902295484        1.30578939594301
C           -2.17738049020887        2.27754877498266       -1.15711344017032
C           -1.22418412147167        1.13551869845165       -1.63423607504315
C            0.02110691929805        1.11519441540572       -0.84255834195601
N            0.64317713373772       -0.05955186074464       -0.55030842215485
C            2.01751331511875       -0.05455930745072       -0.14923114545528
C            2.94712255041182       -0.53610088664347       -1.28114922206618
C            4.37310011732968       -0.42889062282832       -0.84589486090321
C            5.09010019779480        0.74335323225701       -1.04009660142546
C            6.39916292768499        0.85334798115273       -0.59980781577794
C            7.01807375873965       -0.20146096136699        0.04777100528263
O            8.29180556952919       -0.20853658357318        0.51634071170068
C            9.08612053498685        0.93636184736665        0.31136216606113
C            6.29141838321755       -1.39758299103296        0.26193853366988
O            6.97867142280797       -2.38397093010616        0.90237210713950
C            6.34104936458940       -3.61705366668251        1.11343244519496
C            4.98214315689571       -1.49110013954367       -0.17780050060964
C           -0.01076276109357       -1.34940016332257       -0.66964498901124
C           -3.87843415478727        3.08117092903969        0.57429011446543
C           -4.52216845112305        2.79459419735971        1.92645854062976
C           -3.39475646756078        4.52860056705208        0.53126879518089
H           -4.64068736384226        0.93747238746232       -1.32413600714980
H           -6.82355384964294        0.25599118713132       -1.83958730609565
H           -7.14084054273260       -1.19354828738207       -2.82619543495855
H           -5.62542189095068       -0.28486412825008       -3.04745250749546
H           -4.95298302192629       -3.69428278934676        2.42575328112621
H           -5.34238561318988       -4.95560386383203        1.22826957309288
H           -3.66625968092438       -4.38258695141031        1.39919429392709
H           -3.13539779005385       -2.20195294296441        2.14205753339007
H           -2.20009154864120        0.03795967277719        2.04851641180009
H           -2.99554626862996        2.37496884481159       -1.85657359729743
H           -1.62764083688003        3.22189235071252       -1.16891231165443
H           -1.77716333039267        0.21177306062539       -1.58392732270077
H           -1.02062205008917        1.19999736340648       -2.71897396727510
H           -0.70268358323022        1.63433823856249        0.69911511384607
H            0.68793449286469        1.95868396898141       -0.93304432026121
H            2.14652157303732       -0.70234951430969        0.72698138776080
H            2.30509560260482        0.95186313989628        0.13765405525300
H            2.76972309178483        0.09678979802147       -2.15369942830935
H            2.70311264751103       -1.56351656107827       -1.53752488152201
H            4.63029188451154        1.57991120678741       -1.54477510637991
H            6.93332226765340        1.77045457894113       -0.78001930599328
H            8.66866319448088        1.81290790608630        0.81691370107392
H            9.21075004909856        1.15808215217367       -0.75427681463711
H           10.05325479699645        0.69846303380828        0.74798522598959
H            7.08163736864467       -4.24498291812070        1.60623889376476
H            5.46337100416574       -3.51383834516766        1.76200068093439
H            6.04069705909264       -4.08593079122792        0.17070035632306
H            4.42198251441900       -2.39705656358818       -0.02739810063190
H           -0.14860420355451       -1.57422852875283       -1.77007197871488
H           -0.99302005671003       -1.29727249703284       -0.16554525534453
H            0.58237528890067       -2.11107202627885       -0.17758295213166
H           -4.64690029452310        2.96024392568534       -0.20231189364663
H           -3.79400230826458        2.92967225255982        2.71138285435145
H           -4.90696704410244        1.77940688585563        1.96411199595802
H           -5.35201214985800        3.48458459508427        2.09208732889469
H           -2.60759274058669        4.68132786753616        1.26657547634550
H           -3.02116958051003        4.80234586131027       -0.45021351263650
H           -4.22222761297757        5.19409029639969        0.77081468038001
H           -0.65189976794656        2.79363518294049        2.77687441876158
72
 energy: -103.315401138307 gnorm: 0.027385550525 xtb: 6.6.1 (8d0f1dd)
N           -1.52915259921577        2.80638558728442        2.25914755581129
C           -1.58168520645999        2.14953586824964        1.19201172937787
C           -2.75209393587625        2.05622235250792        0.25985464694474
C           -3.33502157339271        0.65181756339144        0.34394064210296
C           -4.30878892143534        0.24585490370496       -0.57079803952986
C           -4.85935435350253       -1.02066503765032       -0.52520406131870
O           -5.81631489672635       -1.49401338914287       -1.37226507298761
C           -6.36962350017870       -0.61626955860413       -2.31849864558912
C           -4.43057675985946       -1.93509329116035        0.46212441306863
O           -5.02830160266167       -3.15940826299923        0.42403477309549
C           -4.71652949896134       -4.08660827152731        1.43187615080945
C           -3.47008542458961       -1.53046853249577        1.36889389004358
C           -2.93031072926702       -0.24988319998563        1.31002649486403
C           -2.17747731477648        2.28098505213810       -1.16512487332860
C           -1.24216116102133        1.14127744250505       -1.63471703634777
C            0.02109029683187        1.11499105292407       -0.85494390680715
N            0.65168314201845       -0.06974291190724       -0.54334404362750
C            2.02470091413388       -0.06431125094378       -0.14640264010409
C            2.95429344510990       -0.53701881487475       -1.28407119688649
C            4.38056156564975       -0.42960273138705       -0.85104178614786
C            5.09347457325191        0.74104117665994       -1.04166396738675
C            6.40238011316105        0.85256271534794       -0.59961152393055
C            7.01978795108944       -0.20257854472573        0.04920172482122
O            8.29735050201726       -0.20786901585171        0.51753371104266
C            9.08747358410023        0.93711405254862        0.31232535544253
C            6.29470628291329       -1.39774063805611        0.26143950644059
O            6.98030735475149       -2.38503996201539        0.90412168141819
C            6.34090744458189       -3.61713599284402        1.11414976146152
C            4.98938915165377       -1.49150171788260       -0.18324247779876
C           -0.01196588322553       -1.34290517809738       -0.67132000395226
C           -3.87976588249272        3.07997911000007        0.56801447915276
C           -4.52367013989391        2.79544662583195        1.92324041132293
C           -3.39509911864879        4.52763896843920        0.53055182184544
H           -4.64143945296719        0.93822934050026       -1.32545509231465
H           -6.82412502185197        0.25758242709175       -1.84046188167840
H           -7.14124632267218       -1.19009525882056       -2.82931739250073
H           -5.62400252815729       -0.28402413974637       -3.04874691162097
H           -4.95232721274540       -3.69451996160115        2.42704756509920
H           -5.34039434958905       -4.95614730676264        1.23045527634066
H           -3.66316764568392       -4.38213651870936        1.39921529177313
H           -3.13263971906259       -2.20283489843489        2.14183676523924
H           -2.19738375242830        0.03711132354027        2.04708761896705
H           -3.00009066587286        2.37688545390745       -1.87002410524343
H           -1.61898854846430        3.21899192120876       -1.17453830244098
H           -1.78529256527876        0.20184676664551       -1.55553594376383
H           -1.04055907534231        1.26537066970617       -2.71631520312090
H           -0.70642838856491        1.62353563330344        0.72572457006119
H            0.68725902610422        1.95917182856360       -0.95870327835847
H            2.15925424885275       -0.71197156391200        0.72846305682978
H            2.30901232376356        0.94864810446342        0.13921069761559
H            2.77144108107160        0.09491697084130       -2.15538610641549
H            2.70596845590820       -1.56599225670097       -1.54127851440049
H            4.63232247042321        1.57657527304122       -1.54690155077635
H            6.93585445439470        1.77237488518749       -0.77657601163815
H            8.66729648747757        1.81340662988715        0.81714126959166
H            9.21039379324344        1.15718911829359       -0.75355540025197
H           10.05692038845213        0.70157095048778        0.74715189928709
H            7.07902030029176       -4.24725052787040        1.60795407884578
H            5.46311262806997       -3.51334759456655        1.76181675110052
H            6.04072475374287       -4.08473763409737        0.17017929982531
H            4.42533528180194       -2.39740821392070       -0.02913446472732
H           -0.15612367932707       -1.60286072511654       -1.73693523624598
H           -0.99281747940311       -1.30666367562492       -0.18321210552237
H            0.58476712235910       -2.10987306224450       -0.19048343022255
H           -4.64783000342323        2.95960191452942       -0.20697052871873
H           -3.79063145918506        2.92804859178596        2.71003127602433
H           -4.90849465097481        1.77963171612065        1.96437466864707
H           -5.35128354806440        3.48366626740042        2.09196488107759
H           -2.60897262614814        4.67714276459573        1.26551399064138
H           -3.02068234217949        4.80144377454254       -0.45189622768235
H           -4.22186801344758        5.19314395831636        0.77138953581902
H           -0.65921504476791        2.79993906041275        2.77925371890767
72
 energy: -103.316201443108 gnorm: 0.014505732751 xtb: 6.6.1 (8d0f1dd)
N           -1.51712789103257        2.79996652068082        2.25488548267936
C           -1.57046494986734        2.14750451384244        1.18326131068609
C           -2.74913804560881        2.05554858106238        0.25842397775907
C           -3.33156710525971        0.65060593442914        0.34195795876231
C           -4.30682595374939        0.24522948697422       -0.57152437707315
C           -4.85756197889586       -1.02096216808811       -0.52561898301421
O           -5.81575842725174       -1.49497668502442       -1.37143728248330
C           -6.37029894014742       -0.61835320607522       -2.31719585889099
C           -4.42866640810734       -1.93537360456637        0.46092435127978
O           -5.02871625768255       -3.15912302433431        0.42310554837213
C           -4.71891229378034       -4.08672927678202        1.43060286219453
C           -3.46808428025957       -1.53143929075667        1.36765888737700
C           -2.92717803164855       -0.25184980554470        1.30768117826524
C           -2.17205208307621        2.27393814376652       -1.16888295873408
C           -1.23932591900282        1.13782550588425       -1.64545866554341
C            0.02056989075834        1.11686463124136       -0.85550701312560
N            0.65034179180369       -0.07093029494403       -0.53231483328563
C            2.02074485553330       -0.06005153778655       -0.14111561906920
C            2.94929399043845       -0.53323657678591       -1.27980180972553
C            4.37452622981735       -0.42581854613263       -0.84559730142997
C            5.08704511181284        0.74282449448123       -1.03851525018933
C            6.39760521143262        0.85336348747730       -0.60015372281047
C            7.01380204573314       -0.20227683268048        0.04828978878701
O            8.29394005193103       -0.20803416454798        0.51511043592151
C            9.08448782410816        0.93532227206643        0.31127812400135
C            6.28888753948858       -1.39601749484584        0.26270108275940
O            6.97719462962509       -2.38391914256941        0.90243379680626
C            6.34067648100712       -3.61697562886599        1.11343624636409
C            4.98315756986578       -1.48835686659424       -0.17844217545990
C           -0.01501880160411       -1.33412787766516       -0.67620975044801
C           -3.87681688965642        3.08042401658517        0.57168117057887
C           -4.52447369510293        2.79620774592575        1.92612864835988
C           -3.39436653196933        4.52934257318691        0.53298717533577
H           -4.64054837241133        0.93846206077767       -1.32573868025016
H           -6.82502417350956        0.25552407854844       -1.83876866479204
H           -7.14198745706386       -1.19336957042213       -2.82667692097319
H           -5.62556931456953       -0.28563278085315       -3.04843575714275
H           -4.95436145634736       -3.69468867416084        2.42576531409126
H           -5.34347443166662       -4.95565230569413        1.22830664927997
H           -3.66523623722987       -4.38399876747168        1.39853878402558
H           -3.13357711165817       -2.20232721424031        2.14297245682041
H           -2.19793820178503        0.03738937663350        2.04800471883952
H           -3.00161982498224        2.37101623418902       -1.86756601719552
H           -1.62159166892587        3.21575523488034       -1.17271896308342
H           -1.77635042854075        0.19398202776258       -1.56198049366729
H           -1.01507027937230        1.23336498049090       -2.72232260559622
H           -0.69899697147776        1.63297462592540        0.70644522568227
H            0.68624393254813        1.96346989716569       -0.94072413715417
H            2.15305982860287       -0.70437297502894        0.73460143014370
H            2.30217840438219        0.95696327177254        0.14103750621594
H            2.76621914422659        0.09697914335374       -2.15186572405782
H            2.69933030617241       -1.56341941622897       -1.53587535380410
H            4.62631832485932        1.57881360464946       -1.54375247373971
H            6.93248049927514        1.77213438179621       -0.78050650711987
H            8.66667292706388        1.81244181720732        0.81689969872678
H            9.20956549357622        1.15673076130156       -0.75413251428906
H           10.05333123009100        0.69753892881265        0.74692403970874
H            7.08140678103964       -4.24525391848057        1.60571732340211
H            5.46404197204528       -3.51506862734850        1.76271089560902
H            6.03999590553122       -4.08558025185153        0.16992749016597
H            4.41826189832765       -2.39526997158981       -0.02485521133354
H           -0.15068431415687       -1.57702956325112       -1.73958279427743
H           -0.99031734047810       -1.30029540800125       -0.18172820373619
H            0.58054312802904       -2.10716110899336       -0.19579147436840
H           -4.64544319787871        2.95978284627482       -0.20123343565370
H           -3.79274855718999        2.92964799766226        2.71592682901667
H           -4.90725455715021        1.77919945232517        1.96681767978773
H           -5.35211244364001        3.48317308679813        2.09247278768410
H           -2.60870924453607        4.68185394579255        1.26682704046522
H           -3.02085334241229        4.80213295310698       -0.45061932220873
H           -4.22231428637604        5.19378577752305        0.77203197987262
H           -0.63497876263077        2.77874636147836        2.76279897727078
72
 energy: -103.316310713384 gnorm: 0.011442987785 xtb: 6.6.1 (8d0f1dd)
N           -1.53588900440611        2.80376522554160        2.26106646205617
C           -1.57688386668014        2.15218695121697        1.18761830711428
C           -2.75433074278518        2.05693545292123        0.26203467054332
C           -3.33410764558243        0.65143381151532        0.34280341225886
C           -4.30907149020922        0.24574459711856       -0.57062385488086
C           -4.85971380556421       -1.02042436687005       -0.52470763233037
O           -5.81665235380444       -1.49447539189551       -1.37185363450127
C           -6.36911992715893       -0.61707702618886       -2.31787350880312
C           -4.43066060899889       -1.93470475597725        0.46170031977796
O           -5.02894548787467       -3.15941329743841        0.42378166453076
C           -4.71713708505821       -4.08617088230885        1.43123973860115
C           -3.46926770661700       -1.53087079971844        1.36751987444106
C           -2.92829901605696       -0.25136574516821        1.30738794415195
C           -2.17186232612870        2.27915217382183       -1.16164675593685
C           -1.24076187017236        1.14236317356882       -1.64060906352278
C            0.02048888154245        1.11356741058737       -0.85280835681375
N            0.64856865120741       -0.07581675658861       -0.53663875567530
C            2.02029236449336       -0.06313622383020       -0.15199299620640
C            2.95397125271105       -0.53649386986144       -1.28645376157423
C            4.37881243593306       -0.42854418399242       -0.84931500746578
C            5.09226165740396        0.74040993605943       -1.04149811361400
C            6.40215055378892        0.85197398905799       -0.60033597162425
C            7.01774009079567       -0.20343085965220        0.04818386336412
O            8.29755131156893       -0.20737588292452        0.51687979707394
C            9.08684511821171        0.93651152980703        0.31250592822781
C            6.29334965729534       -1.39789483389023        0.26106260400167
O            6.98054998214482       -2.38527604287727        0.90266205045585
C            6.34169073618927       -3.61697623413663        1.11418850549284
C            4.98784778200711       -1.49114296176422       -0.18161676862778
C           -0.01456509086902       -1.34127059680043       -0.67670245141389
C           -3.88124484378280        3.08227078084366        0.57032601574894
C           -4.52645918749554        2.79594967659422        1.92438727652906
C           -3.39522599583302        4.52970921654331        0.53104197577209
H           -4.64245235553254        0.93864061618187       -1.32482462974144
H           -6.82344830531736        0.25732499105968       -1.84020806784062
H           -7.14043940842091       -1.19157999737905       -2.82834787959254
H           -5.62347579332335       -0.28416092450015       -3.04790659513776
H           -4.95189030022489       -3.69416873013532        2.42651402033431
H           -5.34015695405133       -4.95629313925562        1.22952865402342
H           -3.66322632175250       -4.38164177139098        1.39913717708739
H           -3.13480155202252       -2.20184516033084        2.14255453148676
H           -2.20052461905976        0.03882743802078        2.04865928350618
H           -3.00102880738778        2.38005856733634       -1.85832390001382
H           -1.62544288167555        3.22327870539007       -1.16386023415571
H           -1.78397633739138        0.20557471388178       -1.56818102844322
H           -1.02159044935719        1.21878113881054       -2.71729945726232
H           -0.70557843369749        1.63632458720569        0.71371402523092
H            0.68939403684193        1.95683085074140       -0.93630466507477
H            2.15235710360015       -0.70827099809863        0.72235353760174
H            2.30425144853318        0.95163291148239        0.13320070737694
H            2.77335186273907        0.09447510158673       -2.15827015637959
H            2.70644143677427       -1.56679995928883       -1.54371040080065
H            4.63344190416033        1.57729576579533       -1.54718579957017
H            6.93648497322595        1.77107963423672       -0.77874573780157
H            8.66909293757940        1.81403744094684        0.81740028954718
H            9.21266966048278        1.15839605717891       -0.75296177122557
H           10.05571251754556        0.70050099514231        0.74898161129597
H            7.08067644994523       -4.24587665682202        1.60827331164596
H            5.46371711701194       -3.51275533871903        1.76145091525959
H            6.04179509810347       -4.08631651724646        0.17085540876376
H            4.42488165917217       -2.39950475117542       -0.03121890849038
H           -0.14932744863100       -1.58273711692500       -1.74675552623875
H           -0.98624071468545       -1.30229027908084       -0.17020544850159
H            0.58143929808483       -2.11046382444660       -0.18402719606280
H           -4.64867220292213        2.96114148850088       -0.20378812959649
H           -3.79244647163971        2.92847629319734        2.71142002018882
H           -4.90868607752336        1.77876437736389        1.96343711550960
H           -5.35255475638637        3.48428743043914        2.09204722139603
H           -2.60901898733579        4.67977015202257        1.26501750869693
H           -3.02100401273212        4.80218138992988       -0.45228905873865
H           -4.22211304719192        5.19537682153712        0.76980692964701
H           -0.65672714631918        2.79069265911907        2.77297254229064
72
 energy: -103.316568961512 gnorm: 0.006201794264 xtb: 6.6.1 (8d0f1dd)
N           -1.52569328809523        2.80225431641547        2.25708685644957
C           -1.57098939378273        2.14875962781873        1.18534794242122
C           -2.75084555119651        2.05546984500011        0.26146088806092
C           -3.33269635429227        0.65108665872495        0.34315566729129
C           -4.30757100472161        0.24554391550455       -0.57059791346959
C           -4.85856647249738       -1.02060769605197       -0.52491140283486
O           -5.81582846640896       -1.49448986495840       -1.37190498838312
C           -6.36977628693623       -0.61738621240131       -2.31740526722713
C           -4.42993751480536       -1.93492021990758        0.46176098625555
O           -5.02847909099675       -3.15950533268939        0.42360343696709
C           -4.71814515682033       -4.08656566877438        1.43118745927345
C           -3.46847703914896       -1.53126191619189        1.36775231976313
C           -2.92719453275970       -0.25176611414555        1.30782681086690
C           -2.17381825538745        2.27786001917597       -1.16476184570720
C           -1.24069474980343        1.14354365501223       -1.63986906515044
C            0.02208321106981        1.11670496441186       -0.85600605074586
N            0.64871932414470       -0.07165499721308       -0.53726944085289
C            2.01940004104273       -0.06002053697328       -0.14608706375202
C            2.95105191673810       -0.53463600781306       -1.28104934733799
C            4.37639306669599       -0.42734632186261       -0.84655315013970
C            5.08985904549919        0.74177069736387       -1.03952699883256
C            6.40002359631487        0.85324342831398       -0.59897758663564
C            7.01581556270387       -0.20254310097866        0.04888790998069
O            8.29577220988763       -0.20739168797343        0.51663060571448
C            9.08516445276572        0.93600665334335        0.31112292999996
C            6.29145636186126       -1.39704305920422        0.26249303197852
O            6.97882601885162       -2.38468021821914        0.90337885136063
C            6.34027378386747       -3.61679113790370        1.11377346794792
C            4.98544515039832       -1.48993840587874       -0.17898035430544
C           -0.01384272866461       -1.33984121977858       -0.67743485357466
C           -3.87765976305192        3.08015102693168        0.57046124392206
C           -4.52331332648606        2.79509893437578        1.92458913986512
C           -3.39373745107872        4.52803196631896        0.53198496854910
H           -4.64014823685004        0.93812464759049       -1.32520037866279
H           -6.82424378065093        0.25673956854491       -1.83951426151133
H           -7.14140700717756       -1.19208268412081       -2.82719838008000
H           -5.62523230332580       -0.28425354536156       -3.04835715433328
H           -4.95317534159210       -3.69450592458683        2.42639031967480
H           -5.34216608622269       -4.95587732537513        1.22921049867361
H           -3.66475801400984       -4.38326911126137        1.39950062540107
H           -3.13307190013028       -2.20295001781099        2.14179298405961
H           -2.19707905252898        0.03712404258008        2.04722862074703
H           -3.00075837524103        2.37537151206701       -1.86440081634658
H           -1.62438059232102        3.22020955932446       -1.17366206086770
H           -1.78137572767051        0.20525145766656       -1.56866587878388
H           -1.03110288891446        1.23660764536753       -2.71775366785888
H           -0.70389159061294        1.62420236298324        0.71410909380111
H            0.68988414491928        1.95957540132326       -0.94770465989892
H            2.15188016938734       -0.70598508987700        0.72864509660902
H            2.30562132575948        0.95305253463610        0.14080353353358
H            2.76911632860796        0.09668934952418       -2.15237223715276
H            2.70245642906214       -1.56459057009891       -1.53728917427529
H            4.63031372458503        1.57889215932086       -1.54426525923809
H            6.93396354303152        1.77232293578299       -0.77752458870524
H            8.66767668859836        1.81344707553428        0.81642487215172
H            9.20927011227119        1.15756550159649       -0.75466718825516
H           10.05464039856949        0.69995361875474        0.74624099593161
H            7.07974772607014       -4.24637988574549        1.60623951031524
H            5.46283044798018       -3.51393000691547        1.76202131831033
H            6.03965953520113       -4.08475523738865        0.17000035172565
H            4.42156494154506       -2.39682981085549       -0.02588614228795
H           -0.14943027171748       -1.58826606949141       -1.74752990149042
H           -0.99042480120670       -1.30233102297598       -0.17811130605447
H            0.58122971871523       -2.10914151752865       -0.18387094413498
H           -4.64493900295992        2.95878958928180       -0.20414457613814
H           -3.79051870863708        2.92864587575219        2.71187436961005
H           -4.90609604582138        1.77841762995334        1.96480811913795
H           -5.34984476532794        3.48349194832161        2.09131970328898
H           -2.60780815276566        4.67858899450615        1.26632507730321
H           -3.02017778484765        4.80187130508894       -0.45103591088848
H           -4.22161435593864        5.19219304306499        0.77172451974880
H           -0.64642122330626        2.79004224666099        2.76794968659440
72
 energy: -103.316558196078 gnorm: 0.005985073297 xtb: 6.6.1 (8d0f1dd)
N           -1.52771996093262        2.80179181613033        2.25919506734253
C           -1.57288794119943        2.14912357311929        1.18698874356452
C           -2.75209236479005        2.05646177274596        0.26094650459936
C           -3.33390567761368        0.65196045929344        0.34279541721616
C           -4.30818407553542        0.24575573244075       -0.57138164410222
C           -4.85864882274433       -1.02066025486563       -0.52552960725999
O           -5.81603529259789       -1.49483295824310       -1.37228512886683
C           -6.36981818412602       -0.61794950076550       -2.31798883348628
C           -4.42992613378634       -1.93469192838240        0.46133695992605
O           -5.02828712394676       -3.15941830357210        0.42324520723456
C           -4.71766392410006       -4.08641582892878        1.43071189327020
C           -3.46952767264948       -1.53030731945967        1.36816500840036
C           -2.92924243819975       -0.25039711024552        1.30847325265494
C           -2.17242971444776        2.27450970787909       -1.16557779456773
C           -1.23904638882985        1.13896842198026       -1.63829017293035
C            0.02233738710957        1.11627859077627       -0.85258641687694
N            0.65046134173409       -0.07166942160316       -0.53352585559824
C            2.02200734414095       -0.06117537426407       -0.14546282533930
C            2.95138873368753       -0.53515783599786       -1.28323912077104