72
 energy: 0.000000000000 xtb: 6.6.1 (8d0f1dd)
N           -1.47310934822924        2.74401318561852        2.22063942287560
C           -1.55658894218425        2.16490305624665        1.13274284460745
C           -2.74549225258129        2.05621251263064        0.23826250649470
C           -3.31377583855761        0.64333417511334        0.32332515650284
C           -4.30230195924506        0.24487112428158       -0.58026167086503
C           -4.85238808050968       -1.02286499940159       -0.53363593669082
O           -5.81420026757557       -1.48606047972767       -1.36157895357670
C           -6.39655692584623       -0.60827005826649       -2.29568495601309
C           -4.39972542350640       -1.94646120241305        0.44396933240983
O           -4.98748357557592       -3.16146026488900        0.41085995818162
C           -4.66362171172287       -4.10093865802695        1.40909140816864
C           -3.42072545213514       -1.54561399150247        1.33436558640148
C           -2.88302826362110       -0.26315802838497        1.27400162590187
C           -2.19303818453636        2.30467021687947       -1.18742988123374
C           -1.26651549989641        1.17243380322503       -1.65249445018642
C            0.01082525039567        1.09745464658138       -0.89354811789923
N            0.61779399208289       -0.02034948241203       -0.57705527866251
C            2.00145228921113       -0.02376006609561       -0.15611401051620
C            2.92554961797610       -0.53865287672537       -1.27700100652360
C            4.35756883501756       -0.43050761225877       -0.83075552032494
C            5.07346182539911        0.73206415878124       -1.03980975472950
C            6.38628045899965        0.84224449235903       -0.60344828301384
C            7.00047329721665       -0.20824758267940        0.05722314949100
O            8.26703733840855       -0.21011315050632        0.52410948507466
C            9.06912311989339        0.92943609656965        0.31863060963839
C            6.27040022445068       -1.40439766990411        0.28033468609137
O            6.94830004375713       -2.38012947787858        0.92752007684741
C            6.31537376337817       -3.61583233633369        1.15217722400438
C            4.96302840674480       -1.49347485723979       -0.16064431849589
C           -0.05511211878686       -1.29906259857679       -0.62085692079872
C           -3.86758072907722        3.07992629005348        0.58498065642721
C           -4.49286201346546        2.77383518785172        1.94313307512182
C           -3.39165211343248        4.52917708609625        0.54797528556046
H           -4.66030069703099        0.94509076131725       -1.31640581036773
H           -6.85037992114187        0.25803164586058       -1.80468862056629
H           -7.17287509152171       -1.18600121846629       -2.79318183475679
H           -5.66836870040540       -0.26952968819383       -3.04040283452035
H           -4.88416765986127       -3.71589494995018        2.40913564538747
H           -5.29223619720187       -4.96637504833431        1.20969248126828
H           -3.61139846644506       -4.39919876145526        1.35529370415983
H           -3.07077825100221       -2.21868786295666        2.10002682176568
H           -2.14562774333496        0.02067850888151        2.01001363031684
H           -3.02188903413801        2.38238034416975       -1.88813562572432
H           -1.65198546223364        3.25146730843841       -1.20556295755141
H           -1.81103391047759        0.23006526775522       -1.62116316669324
H           -0.99335697743926        1.37490224954061       -2.69443281971844
H           -0.67628070635666        1.65183902374723        0.61785732877701
H            0.63525847086258        1.98466388206871       -0.92314029755375
H            2.11132572081740       -0.65949698961381        0.72532619960637
H            2.30680494458141        0.98978260887088        0.11078973822125
H            2.76694224489122        0.06750735773687       -2.17075272340394
H            2.67954606229959       -1.57455642411728       -1.51167757545099
H            4.62170041431221        1.56295626549351       -1.56123593485311
H            6.92357738865082        1.75715832247601       -0.79119604059515
H            8.65159193263071        1.81001840117181        0.81701562739969
H            9.20136256512460        1.14042868409438       -0.74698998879646
H           10.03428931104811        0.69003246578081        0.76064945022918
H            7.05567240429544       -4.23621211097668        1.65347581279537
H            5.43848051513375       -3.50813590722545        1.79970582482858
H            6.02060097762632       -4.09420535105165        0.21253284608183
H            4.40102799328555       -2.40127288651695       -0.00490198294521
H           -0.22071301762289       -1.61775598610935       -1.65116024301020
H           -1.01972267469312       -1.24102728946113       -0.10935207845464
H            0.55899959333766       -2.04486104898380       -0.12333731565713
H           -4.63991918782192        2.95501120214274       -0.18098089750912
H           -3.76095251366987        2.90314731895452        2.73380846416528
H           -4.87457659255110        1.75695657819473        1.97884621460846
H           -5.31925601899505        3.45579242388173        2.12325583951056
H           -2.60025614255587        4.69225089676674        1.27368930043085
H           -3.03987434616939        4.81897697030947       -0.43870979129779
H           -4.22191779840287        5.18069696155015        0.80616701440619
H           -0.59832439338922        2.77744720721660        2.72959009765665
72
 energy: -5.528555222246 xtb: 6.6.1 (8d0f1dd)
N           -1.51043183245617        2.78630056694340        2.25248374245110
C           -1.57574613870874        2.15298298115437        1.17476571927899
C           -2.75136157968066        2.05737742439381        0.25426435035937
C           -3.32888539402780        0.65011601984688        0.33841727583604
C           -4.30681741955045        0.24579717941867       -0.57271713150596
C           -4.85633718039545       -1.02151908486655       -0.52871040290255
O           -5.81467041397455       -1.49119206652952       -1.36712212142162
C           -6.38059895369599       -0.61390379822983       -2.30855451004221
C           -4.41780667441686       -1.93997471283616        0.45436627574361
O           -5.01131431322224       -3.15995309429363        0.41797752014413
C           -4.69561093781349       -4.09293328708675        1.42190697128568
C           -3.45123688932453       -1.53579004487348        1.35475071616839
C           -2.91302152210990       -0.25382544493413        1.29674281902400
C           -2.18533682660214        2.28878598008755       -1.17172644779405
C           -1.25402268931690        1.16831583737119       -1.66177342014447
C            0.01337424616701        1.10862958933582       -0.87800243451392
N            0.63889837326712       -0.05286012667625       -0.55531850908055
C            2.01481918484106       -0.04920507274697       -0.15003473909479
C            2.94255721853901       -0.53610891286520       -1.28001602961024
C            4.37092259876524       -0.42845037843843       -0.84352457165851
C            5.08327667166023        0.73926819321397       -1.03977498182917
C            6.39431231447345        0.84973416991965       -0.60097387691722
C            7.01023974179260       -0.20423641406756        0.05193379690291
O            8.28571896336726       -0.20878740598058        0.51782115892713
C            9.07991636338783        0.93377996672148        0.31398290354652
C            6.28310676208368       -1.40008818588313        0.26898547397969
O            6.96643195079465       -2.38240512164631        0.91233648929648
C            6.33062085311198       -3.61662153860759        1.12917846109220
C            4.97828286216152       -1.49136158593307       -0.17437442120451
C           -0.03744656733957       -1.31991429799205       -0.63710973762186
C           -3.87682260429993        3.08115996833640        0.57579315164595
C           -4.51242780741432        2.78798745916057        1.93197199037503
C           -3.39347682637578        4.52854055180982        0.53943986633720
H           -4.65052009169939        0.94133526583067       -1.31996850967393
H           -6.83463758117194        0.25670850810067       -1.82473786576171
H           -7.15370233521802       -1.19099532394341       -2.81252366388865
H           -5.64204759073770       -0.27903251272350       -3.04463168889056
H           -4.92445029386799       -3.70314931558606        2.41868641892563
H           -5.32199606434849       -4.95999047875269        1.22031165241030
H           -3.64244639513657       -4.38983963940495        1.37989904637467
H           -3.10740744551738       -2.20903446569792        2.12343797550782
H           -2.17672445164609        0.03092321800611        2.03177420889464
H           -3.01197666530054        2.37745948084877       -1.87643034758506
H           -1.63744883199340        3.23206349912994       -1.18318321567234
H           -1.79582038545747        0.22435792078529       -1.60736286614006
H           -1.00217670049489        1.35278698484271       -2.72001530978715
H           -0.69792685188516        1.63816280805515        0.68277532478072
H            0.64944842791331        1.98155927335550       -0.93257570318310
H            2.13586277037149       -0.69039286186177        0.72694831699673
H            2.30518530341358        0.96673471170495        0.12632736808203
H            2.76827018762544        0.08340873708749       -2.16113562790045
H            2.69236374020829       -1.56815853825936       -1.52528229497036
H            4.62638534181093        1.57319609123921       -1.55143554052162
H            6.93060848372118        1.76698563694266       -0.78331094792088
H            8.66065751697024        1.81147364954240        0.81689925510216
H            9.20712613801844        1.15126852417249       -0.75152163994047
H           10.04763385126377        0.69562253054865        0.75164297923904
H            7.07086962941205       -4.24103824826170        1.62633126025895
H            5.45350577700818       -3.51168046881733        1.77697622186560
H            6.03270224125396       -4.08927752760394        0.18720351742718
H            4.41465003156889       -2.39849732052564       -0.01941626107248
H           -0.20132032450838       -1.60421554170558       -1.68511343385146
H           -1.00668723527156       -1.26489698201211       -0.13369733862781
H            0.57059835533169       -2.07586268538909       -0.14586079157963
H           -4.64563864988217        2.95886454376986       -0.19540405697128
H           -3.77882109185798        2.91780639753873        2.72116152820075
H           -4.89371241247250        1.77062229469897        1.96961768007239
H           -5.33904163452261        3.47329218629482        2.10455811485112
H           -2.60462050634925        4.68547321008601        1.26921385648339
H           -3.02846269687827        4.80858593217631       -0.44537157955042
H           -4.22217927825935        5.18802812489027        0.78721820546860
H           -0.63330901822201        2.78898883974515        2.76309693795530
72
 energy: -6.127194015285 xtb: 6.6.1 (8d0f1dd)
N           -1.58134272894198        2.85631050539112        2.29509511387001
C           -1.60600721953638        2.14190001336856        1.24027443253005
C           -2.76110082287333        2.05562374482692        0.27942847858425
C           -3.35375277381377        0.65694200063171        0.36278469654483
C           -4.31449616235488        0.24544986908363       -0.56174634399532
C           -4.86598247617948       -1.01942898375191       -0.51909745332627
O           -5.81426762624855       -1.49996270218631       -1.37777841391957
C           -6.34769025293901       -0.62498320016714       -2.33538562381842
C           -4.45560452314679       -1.92810553899901        0.47660107251948
O           -5.05923733453554       -3.15462436488087        0.43385406124495
C           -4.76139584070577       -4.07590423585987        1.44901611999418
C           -3.51167618655369       -1.51955450366602        1.39676838603728
C           -2.96950110809313       -0.24078901306829        1.34017558918507
C           -2.16793121683883        2.26656688318298       -1.14368554619379
C           -1.23498598178951        1.14892278618698       -1.64932654691799
C            0.02021742959100        1.11427495278529       -0.83959425026654
N            0.66906265750854       -0.10108423513086       -0.51608170914148
C            2.03615245067447       -0.08796005795697       -0.13745250539131
C            2.97059963684572       -0.52798139885854       -1.28480700955304
C            4.39412769311944       -0.42048566334931       -0.85993617828507
C            5.10195372462776        0.75384623193446       -1.03715666086339
C            6.41208072695399        0.86435809011584       -0.59723467142039
C            7.03083657245432       -0.19615020019273        0.03941022814082
O            8.31925230986912       -0.20482750119451        0.50219279381647
C            9.10085100377626        0.94299443057173        0.30390157623793
C            6.30969928402102       -1.39205018827907        0.24435581306224
O            7.00143513311696       -2.38580402527869        0.87850710423207
C            6.36161355540738       -3.61808383534724        1.08126527590253
C            5.00687270455829       -1.48565885558037       -0.20028727512369
C           -0.00722641329532       -1.35271422135834       -0.67520656404587
C           -3.88874981442487        3.08419550826794        0.55873793514035
C           -4.55047371880131        2.81462729014941        1.90868458308335
C           -3.39477768410183        4.52893652690734        0.51985425367481
H           -4.63218739986983        0.93365921453624       -1.32799109569071
H           -6.80391899015331        0.25391073053615       -1.86728208489124
H           -7.11384238063741       -1.20022924526591       -2.85290913268701
H           -5.58856836059011       -0.29907456996512       -3.05497275679792
H           -5.00870264324796       -3.67801241840942        2.43915902522204
H           -5.38315291375782       -4.94589585543018        1.24264518332312
H           -3.70675677337726       -4.37182492472075        1.43128322335022
H           -3.18399128121053       -2.19038498758071        2.17492580008229
H           -2.24236233559871        0.04862293247330        2.08065630860431
H           -2.99062341472348        2.37190308123595       -1.85412377245760
H           -1.60693252442481        3.20290899912814       -1.14078874234774
H           -1.77252803189475        0.20246299803629       -1.56946711132773
H           -1.00915392753835        1.30520961053200       -2.73105514273799
H           -0.73661597413022        1.60081765600415        0.80734137323004
H            0.67784820690793        1.96217905913181       -0.92764283399767
H            2.18307360509830       -0.74801590658030        0.72584775415477
H            2.30736788751432        0.92729199541101        0.16360243975421
H            2.77251446535014        0.11717090806431       -2.14287479240429
H            2.71826468140261       -1.55369644910083       -1.55581734560386
H            4.63625877988649        1.59313924477882       -1.53190762859714
H            6.94495655712712        1.78684528131741       -0.76724259348011
H            8.68016879580393        1.81477710683750        0.81725699108456
H            9.21985461055386        1.17384581538337       -0.76074349067730
H           10.07358671889477        0.70681976097792        0.73258106278618
H            7.10190518454332       -4.25030300520201        1.56956976891038
H            5.48511470200934       -3.51944503180089        1.73114308670655
H            6.05856852392436       -4.07996656912907        0.13483230047212
H            4.44163399097546       -2.39283418349462       -0.05039651369064
H           -0.16180325116518       -1.57690956791028       -1.75227851158187
H           -0.98505629581256       -1.31708362868958       -0.18654637531808
H            0.59100505463052       -2.12991432633459       -0.20012207925668
H           -4.64804719134176        2.96288366662442       -0.22373860052837
H           -3.82031555122160        2.94885102641769        2.69990901824042
H           -4.93515451663185        1.79830158337501        1.95243004945557
H           -5.37615922384296        3.50709697840765        2.06236914539273
H           -2.61483671642367        4.67694083824078        1.26066875489650
H           -3.00515264279319        4.79159429064369       -0.46088104282873
H           -4.22108285800022        5.20104881056513        0.74644168947269
H           -0.70183276671048        2.80580474473416        2.81247444268699
72
 energy: 1.546816317115 xtb: 6.6.1 (8d0f1dd)
N           -1.66370467896605        2.93059513317816        2.34140812242862
C           -1.63666969427799        2.13224429270479        1.31099155795053
C           -2.77163277957935        2.05332682906272        0.30703504677569
C           -3.38001923355449        0.66364565914465        0.38841191416922
C           -4.32240776430458        0.24465442856247       -0.55017805043085
C           -4.87628229301740       -1.01709482135507       -0.50793029498674
O           -5.81411747825324       -1.51015536631530       -1.38967316643410
C           -6.30995476549207       -0.63796011633545       -2.36505615867717
C           -4.49821380232589       -1.91418577702765        0.50161825728447
O           -5.11407003499355       -3.14884510283417        0.45183014112903
C           -4.83603931485611       -4.05603214857322        1.47933819234115
C           -3.57997729110887       -1.50151570505506        1.44422255461903
C           -3.03291176998073       -0.22717367556178        1.38831924358675
C           -2.14812424947979        2.24389204530729       -1.11312704227499
C           -1.21512059961551        1.12478250150118       -1.63053654595657
C            0.02663684549278        1.12115984906777       -0.79692364218268
N            0.70180736460587       -0.15602133505327       -0.46833203664370
C            2.05888641657770       -0.12980360088450       -0.12335664875341
C            3.00167225441680       -0.51820057039256       -1.29002697310334
C            4.41907176532928       -0.41066364272209       -0.87663328450640
C            5.12285492534297        0.77011388119982       -1.03382971887542
C            6.43235651723629        0.88074430650731       -0.59333243098441
C            7.05336519421454       -0.18714459465904        0.02469659490018
O            8.35709412881159       -0.20027318430583        0.48430301860940
C            9.12398408545946        0.95311946044010        0.29247316210825
C            6.33949403793556       -1.38242681435474        0.21613191301310
O            7.04092525576179       -2.38970945170359        0.84008954321584
C            6.39657532070360       -3.61933420405836        1.02701092603679
C            5.03835566507659       -1.47867466739693       -0.22894407917184
C            0.02658481117034       -1.38808037886127       -0.71970648952865
C           -3.90017770614422        3.08737460577251        0.54023868813551
C           -4.59308305015400        2.84429750484379        1.88250601350471
C           -3.39581955249003        4.52989474782058        0.49747961481360
H           -4.61109361803206        0.92500367470470       -1.33681355614048
H           -6.76898310053220        0.25047593150502       -1.91533930847743
H           -7.06816444651478       -1.21076618149919       -2.89820679649837
H           -5.52801170448237       -0.32218505435705       -3.06617503317197
H           -5.10446824590054       -3.64953842899327        2.46210804009679
H           -5.45223719450882       -4.92972782319058        1.26807490871885
H           -3.77991413503612       -4.35127818474083        1.48961280604588
H           -3.27140018511153       -2.16914960497335        2.23354244329093
H           -2.31761378730648        0.06859518814604        2.13628626424834
H           -2.96673764782588        2.36734900232336       -1.82907443016509
H           -1.57180849028318        3.17179874422551       -1.09260093811519
H           -1.74785957935386        0.17568165289981       -1.52463533815895
H           -1.01536156068636        1.24843138414885       -2.73925368042548
H           -0.78102068263462        1.56080371004804        0.95079593175833
H            0.71072438570908        1.93758858360971       -0.91815671665237
H            2.23810762139688       -0.81205182229706        0.72410437267603
H            2.31021933729748        0.88359378832619        0.20649281752477
H            2.77714905840361        0.15572430254066       -2.12165378326622
H            2.74697553025611       -1.53662516017518       -1.59116184718794
H            4.64715884693211        1.61510314501915       -1.50989006409738
H            6.96108182885731        1.80919013686961       -0.74924999104497
H            8.70241410480262        1.81849077801588        0.81780460843530
H            9.23431384117772        1.19942836843977       -0.77108614438667
H           10.10260785569011        0.71951204935435        0.71083334178388
H            7.13690626514348       -4.26045761080753        1.50514898413978
H            5.52094409486318       -3.52827111317328        1.67956810446700
H            6.08786712358919       -4.06946839971386        0.07570666779459
H            4.47133992797216       -2.38603191679852       -0.08559657227229
H           -0.11670532231295       -1.54426340517537       -1.82932340617197
H           -0.96082688423338       -1.37682743723690       -0.24801772380285
H            0.61346982587321       -2.18957470685847       -0.26254376837883
H           -4.64851261839770        2.96616417455130       -0.25494951360745
H           -3.86827410709497        2.98450688407006        2.67685905727860
H           -4.98229348233211        1.82949103485735        1.93340545278212
H           -5.41738084934328        3.54483056886783        2.01351109309391
H           -2.62687746389375        4.66857831405664        1.25120346652483
H           -2.97882510789999        4.77283196053254       -0.47840218151600
H           -4.21957738669142        5.21517382488556        0.69980438450798
H           -0.77677178022783        2.82061133240851        2.85923663872116
72
 energy: 16.734430159850 xtb: 6.6.1 (8d0f1dd)
N           -1.74410215391356        2.98819583410088        2.39680759949139
C           -1.66914060921865        2.12927115216023        1.37864795612572
C           -2.78348522590341        2.05204897904693        0.33499418588889
C           -3.40663281209758        0.67083927636402        0.41468327476622
C           -4.32921603767779        0.24367638177339       -0.53906646677331
C           -4.88590695326227       -1.01504156967039       -0.49759648560264
O           -5.81384183849361       -1.51983824140647       -1.40099370715425
C           -6.27201247488150       -0.65101196398801       -2.39454348261459
C           -4.54112497999515       -1.90036353386837        0.52656154002573
O           -5.16870900522711       -3.14267008883802        0.47007942532931
C           -4.91111880991071       -4.03617651813351        1.50998073672687
C           -3.64888126042909       -1.48293860303026        1.49125648065698
C           -3.09646363380798       -0.21278096807262        1.43602298366272
C           -2.12959216373482        2.22068240001032       -1.08204626958965
C           -1.19604633957723        1.10202890886166       -1.61471726573292
C            0.03187461305662        1.12921919707441       -0.75696467760728
N            0.73516674377045       -0.21470201663172       -0.41992190768756
C            2.08330636017951       -0.17316919134058       -0.10887211383523
C            3.03237904786397       -0.50828534090038       -1.29516849886411
C            4.44402719938474       -0.40085083780993       -0.89359439927986
C            5.14338059113479        0.78689407260512       -1.03009443746747
C            6.45208214111035        0.89745149683619       -0.58932354627006
C            7.07594978829085       -0.17806394240527        0.00991222689360
O            8.39464068718185       -0.19547405904267        0.46654787278011
C            9.14730560917672        0.96339596833613        0.28110771588289
C            6.36898867284111       -1.37327785952355        0.18771895127407
O            7.07993748765167       -2.39338032415124        0.80176570609648
C            6.43157676156762       -3.62070250825574        0.97276522143407
C            5.06960510610044       -1.47195099734704       -0.25742951223542
C            0.06162322599429       -1.42447213340127       -0.76311191041865
C           -3.91268160479783        3.09098061726810        0.52209801816325
C           -4.63552576989179        2.87421048315342        1.85621784346039
C           -3.39672371443420        4.53067131550286        0.47508412352256
H           -4.58958023334369        0.91602528145465       -1.34505752947288
H           -6.73352159115019        0.24686220586868       -1.96346382607534
H           -7.02196387217996       -1.22186466436757       -2.94293129347204
H           -5.46744953229496       -0.34585950175261       -3.07689894495042
H           -5.20043854815563       -3.62088248175127        2.48493511410273
H           -5.52180669357553       -4.91338229703201        1.29361909493912
H           -3.85386091612020       -4.33049018393224        1.54798517323066
H           -3.35981499699972       -2.14718576094652        2.29178555960401
H           -2.39387447473085        0.08919053082902        2.19211592122230
H           -2.94282403799011        2.36211881644219       -1.80444768683584
H           -1.53798412143151        3.13994069262860       -1.04470268950523
H           -1.72378380302212        0.15049588577142       -1.48033052020797
H           -1.01983870002264        1.19218029413220       -2.74943123479594
H           -0.82662101262152        1.52571620138267        1.09047292314127
H            0.74241762833379        1.91401216661634       -0.91058262227345
H            2.29383354046057       -0.87519691697215        0.72282277531039
H            2.31380201506547        0.83869865738602        0.24807762011903
H            2.78185534346064        0.19367668877506       -2.09985087270700
H            2.77502966962071       -1.51874555980182       -1.62548516384754
H            4.65797847342265        1.63729792162755       -1.48767989462428
H            6.97698154078328        1.83138699662570       -0.73170805192808
H            8.72478028251428        1.82224822151105        0.81824639813934
H            9.24879541545068        1.22484586422854       -0.78125799044033
H           10.13156311943619        0.73210916471267        0.68925485066823
H            7.17217272549483       -4.27033736696916        1.44068810403927
H            5.55680734030044       -3.53729254839212        1.62795581360797
H            6.11731356272594       -4.05900461151137        0.01664793931577
H            4.50091962207674       -2.37948096186089       -0.12042231510490
H           -0.07026537134225       -1.51241278024936       -1.90395293520532
H           -0.93558644973557       -1.43522858724415       -0.31025337989567
H            0.63758335192073       -2.24892346223128       -0.32435745828420
H           -4.64946103927471        2.96903001957861       -0.28572166336286
H           -3.91660872914899        3.02046337224536        2.65424533057589
H           -5.02900337923361        1.86089998167244        1.91382919452824
H           -5.45852195088654        3.58246675012924        1.96415947335013
H           -2.63877477686239        4.66166492562819        1.24125285203186
H           -2.95299071399270        4.75400217707078       -0.49567193232926
H           -4.21784033209379        5.22886049697294        0.65304832546492
H           -0.84815820604454        2.83697075852999        2.90674489334326
72
 energy: 36.559153402954 xtb: 6.6.1 (8d0f1dd)
N           -1.82006115243569        3.02603427674108        2.45961299170488
C           -1.70271602359316        2.13254658613678        1.44009487817267
C           -2.79674041199618        2.05121276284779        0.36242061637996
C           -3.43291204366731        0.67763586789396        0.44091466227981
C           -4.33427335289473        0.24219512086169       -0.52894634339712
C           -4.89453346704734       -1.01337963144629       -0.48834950739112
O           -5.81313433418127       -1.52857173889179       -1.41137256144883
C           -6.23392892275317       -0.66415184010976       -2.42321622369356
C           -4.58387279143754       -1.88670212897993        0.55108899401001
O           -5.22241457029925       -3.13578436438819        0.48855673121507
C           -4.98600269839319       -4.01632039429353        1.54055112837776
C           -3.71764682474312       -1.46420459548952        1.53687321517015
C           -3.15910846102163       -0.19827906982554        1.48217941468146
C           -2.11309996865741        2.19861616491107       -1.05121763403822
C           -1.17971570670262        1.07985523359814       -1.59952935688527
C            0.03435242880413        1.13832282695945       -0.72119863335023
N            0.76843211537276       -0.27795833309480       -0.37266139865062
C            2.10931296943447       -0.21635374653690       -0.09505234723668
C            3.06172735142211       -0.49844665957012       -1.30001903751971
C            4.46820114116910       -0.39060184548108       -0.90930888489395