25
 energy: 8.213892012086 xtb: 6.6.1 (8d0f1dd)
C            3.18994350809409        1.41018712470064        0.12491812942184
N            2.42103230882480        0.06793740958968        0.04099045716875
C            2.65929884127257       -1.33906957457903        0.09068943910027
N            1.45241897390868       -2.03921149304150        0.00090759900170
C            0.43656257459099       -1.15375325513845       -0.02584337351814
C            1.00539463751086        0.12119389288781       -0.00102128253588
C            0.18840148166431        1.26358651989564       -0.03644244985592
O            0.56865796338725        2.43390168451116       -0.09537470157998
N           -1.20894642375394        0.97633679864034       -0.03302477321248
C           -2.09767170121246        2.12163183768494       -0.02703750051353
C           -1.79186496034205       -0.24722508623082       -0.04682296200234
O           -2.99677089295665       -0.40442620644974       -0.05623714352937
N           -0.92730699253919       -1.36289342543144       -0.05111065301282
C           -1.56352532252946       -2.66298283308972       -0.06324427607033
H            3.67228884666782        1.64076278245563        1.08051382592115
H            3.98291523395418        1.47306418175444       -0.63918262743391
H            2.44984174269985        2.18905887070585       -0.05181729800384
H            3.58437154316940       -1.86110871395988        0.02387094004436
H           -1.47233882985059        3.00808804313094       -0.05642158437081
H           -2.73232569963668        2.06985398043324       -0.88655566163500
H           -2.66919467133126        2.12851832221558        0.88775071340691
H           -1.30342092251543       -3.23759828797959        0.82775836450166
H           -1.29294923462193       -3.22224373637279       -0.96034632781607
H           -2.64245457324318       -2.48812968548260       -0.06909107798727
H            1.33756153708437       -3.04770376114685       -0.02484996467243
