      -----------------------------------------------------------      
     |                   =====================                   |     
     |                           x T B                           |     
     |                   =====================                   |     
     |                         S. Grimme                         |     
     |          Mulliken Center for Theoretical Chemistry        |     
     |                    University of Bonn                     |     
      -----------------------------------------------------------      

   * xtb version 6.6.1 (8d0f1dd) compiled by 'conda@1efc2f54142f' on 2023-08-01

   xtb is free software: you can redistribute it and/or modify it under
   the terms of the GNU Lesser General Public License as published by
   the Free Software Foundation, either version 3 of the License, or
   (at your option) any later version.
   
   xtb is distributed in the hope that it will be useful,
   but WITHOUT ANY WARRANTY; without even the implied warranty of
   MERCHANTABILITY or FITNESS FOR A PARTICULAR PURPOSE.  See the
   GNU Lesser General Public License for more details.
   
   Cite this work as:
   * C. Bannwarth, E. Caldeweyher, S. Ehlert, A. Hansen, P. Pracht,
     J. Seibert, S. Spicher, S. Grimme, WIREs Comput. Mol. Sci., 2020, 11,
     e01493. DOI: 10.1002/wcms.1493
   
   for GFN2-xTB:
   * C. Bannwarth, S. Ehlert and S. Grimme., J. Chem. Theory Comput., 2019,
     15, 1652-1671. DOI: 10.1021/acs.jctc.8b01176
   for GFN1-xTB:
   * S. Grimme, C. Bannwarth, P. Shushkov, J. Chem. Theory Comput., 2017,
     13, 1989-2009. DOI: 10.1021/acs.jctc.7b00118
   for GFN0-xTB:
   * P. Pracht, E. Caldeweyher, S. Ehlert, S. Grimme, ChemRxiv, 2019, preprint.
     DOI: 10.26434/chemrxiv.8326202.v1
   for GFN-FF:
   * S. Spicher and S. Grimme, Angew. Chem. Int. Ed., 2020, 59, 15665-15673.
     DOI: 10.1002/anie.202004239
   
   for ALPB and GBSA implicit solvation:
   * S. Ehlert, M. Stahn, S. Spicher, S. Grimme, J. Chem. Theory Comput.,
     2021, 17, 4250-4261. DOI: 10.1021/acs.jctc.1c00471
   
   for DFT-D4:
   * E. Caldeweyher, C. Bannwarth and S. Grimme, J. Chem. Phys., 2017,
     147, 034112. DOI: 10.1063/1.4993215
   * E. Caldeweyher, S. Ehlert, A. Hansen, H. Neugebauer, S. Spicher,
     C. Bannwarth and S. Grimme, J. Chem. Phys., 2019, 150, 154122.
     DOI: 10.1063/1.5090222
   * E. Caldeweyher, J.-M. Mewes, S. Ehlert and S. Grimme, Phys. Chem. Chem. Phys.
     2020, 22, 8499-8512. DOI: 10.1039/D0CP00502A
   
   for sTDA-xTB:
   * S. Grimme and C. Bannwarth, J. Chem. Phys., 2016, 145, 054103.
     DOI: 10.1063/1.4959605
   
   in the mass-spec context:
   * V. Asgeirsson, C. Bauer and S. Grimme, Chem. Sci., 2017, 8, 4879.
     DOI: 10.1039/c7sc00601b
   * J. Koopman and S. Grimme, ACS Omega 2019, 4, 12, 15120-15133.
     DOI: 10.1021/acsomega.9b02011
   
   for metadynamics refer to:
   * S. Grimme, J. Chem. Theory Comput., 2019, 155, 2847-2862
     DOI: 10.1021/acs.jctc.9b00143
   
   for SPH calculations refer to:
   * S. Spicher and S. Grimme, J. Chem. Theory Comput., 2021, 17, 1701-1714
     DOI: 10.1021/acs.jctc.0c01306
   
   with help from (in alphabetical order)
   P. Atkinson, C. Bannwarth, F. Bohle, G. Brandenburg, E. Caldeweyher
   M. Checinski, S. Dohm, S. Ehlert, S. Ehrlich, I. Gerasimov, C. Hölzer
   A. Katbashev, J. Koopman, C. Lavigne, S. Lehtola, F. März, M. Müller,
   F. Musil, H. Neugebauer, J. Pisarek, C. Plett, P. Pracht, F. Pultar,
   J. Seibert, P. Shushkov, S. Spicher, M. Stahn, M. Steiner, T. Strunk,
   J. Stückrath, T. Rose, and J. Unsleber
   
 * started run on 2024/06/05 at 19:57:50.916     

           -------------------------------------------------
          |                Calculation Setup                |
           -------------------------------------------------

          program call               : xtb struc.xyz --opt loose --input .xc1 --gfn2
          hostname                   : n-62-21-68
          coordinate file            : struc.xyz
          omp threads                :                     1

   ID    Z sym.   atoms
    1    6 C      1, 3, 5-7, 10, 11, 14
    2    7 N      2, 4, 9, 13
    3    8 O      8, 12
    4    1 H      15-25
constraining bond 2 5 to    4.9200000 Å, actual value:    2.2205058 Å

           -------------------------------------------------
          |                 G F N 2 - x T B                 |
           -------------------------------------------------

        Reference                      10.1021/acs.jctc.8b01176
      * Hamiltonian:
        H0-scaling (s, p, d)           1.850000    2.230000    2.230000
        zeta-weighting                 0.500000
      * Dispersion:
        s8                             2.700000
        a1                             0.520000
        a2                             5.000000
        s9                             5.000000
      * Repulsion:
        kExp                           1.500000    1.000000
        rExp                           1.000000
      * Coulomb:
        alpha                          2.000000
        third order                    shell-resolved
        anisotropic                    true
        a3                             3.000000
        a5                             4.000000
        cn-shift                       1.200000
        cn-exp                         4.000000
        max-rad                        5.000000


          ...................................................
          :                      SETUP                      :
          :.................................................:
          :  # basis functions                  67          :
          :  # atomic orbitals                  67          :
          :  # shells                           39          :
          :  # electrons                        74          :
          :  max. iterations                   250          :
          :  Hamiltonian                  GFN2-xTB          :
          :  restarted?                      false          :
          :  GBSA solvation                  false          :
          :  PC potential                    false          :
          :  electronic temp.         5000.0000000     K    :
          :  accuracy                    1.0000000          :
          :  -> integral cutoff          0.2500000E+02      :
          :  -> integral neglect         0.1000000E-07      :
          :  -> SCF convergence          0.1000000E-05 Eh   :
          :  -> wf. convergence          0.1000000E-03 e    :
          :  Broyden damping             0.4000000          :
          ...................................................

 iter      E             dE          RMSdq      gap      omega  full diag
   1    -42.5894031 -0.425894E+02  0.445E+00    3.52       0.0  T
   2    -42.7683054 -0.178902E+00  0.251E+00    3.36       1.0  T
   3    -42.7759211 -0.761567E-02  0.147E+00    3.35       1.0  T
   4    -42.7728404  0.308066E-02  0.553E-01    3.33       1.0  T
   5    -42.7789548 -0.611444E-02  0.112E-01    3.35       1.0  T
   6    -42.7790473 -0.924914E-04  0.614E-02    3.33       1.0  T
   7    -42.7790721 -0.247928E-04  0.258E-02    3.34       1.0  T
   8    -42.7790772 -0.508996E-05  0.938E-03    3.34       2.1  T
   9    -42.7790779 -0.669422E-06  0.448E-03    3.34       4.5  T
  10    -42.7790780 -0.821511E-07  0.115E-03    3.34      17.4  T
  11    -42.7790780 -0.322662E-08  0.553E-04    3.34      36.2  T
  12    -42.7790780 -0.287052E-08  0.180E-04    3.34     111.1  T

   *** convergence criteria satisfied after 12 iterations ***

         #    Occupation            Energy/Eh            Energy/eV
      -------------------------------------------------------------
         1        2.0000           -0.9185990             -24.9964
       ...           ...                  ...                  ...
        31        1.9996           -0.6230278             -16.9534
        32        1.9995           -0.6194601             -16.8564
        33        1.9979           -0.5974976             -16.2587
        34        1.9932           -0.5789629             -15.7544
        35        1.9817           -0.5631863             -15.3251
        36        1.9779           -0.5602245             -15.2445
        37        1.9748           -0.5581234             -15.1873 (HOMO)
        38        0.0652           -0.4353579             -11.8467 (LUMO)
        39        0.0099           -0.4050467             -11.0219
        40        0.0013           -0.3732218             -10.1559
        41        0.0000           -0.2886859              -7.8555
        42                         -0.2065804              -5.6213
       ...                                ...                  ...
        67                          0.5625656              15.3082
      -------------------------------------------------------------
                  HL-Gap            0.1227656 Eh            3.3406 eV
             Fermi-level           -0.4890455 Eh          -13.3076 eV

 SCC (total)                   0 d,  0 h,  0 min,  0.042 sec
 SCC setup                      ...        0 min,  0.000 sec (  0.670%)
 Dispersion                     ...        0 min,  0.000 sec (  0.847%)
 classical contributions        ...        0 min,  0.000 sec (  0.211%)
 integral evaluation            ...        0 min,  0.006 sec ( 14.490%)
 iterations                     ...        0 min,  0.020 sec ( 47.971%)
 molecular gradient             ...        0 min,  0.015 sec ( 35.372%)
 printout                       ...        0 min,  0.000 sec (  0.399%)

         :::::::::::::::::::::::::::::::::::::::::::::::::::::
         ::                     SUMMARY                     ::
         :::::::::::::::::::::::::::::::::::::::::::::::::::::
         :: total energy             -29.236205840321 Eh    ::
         :: gradient norm              7.215658415485 Eh/a0 ::
         :: HOMO-LUMO gap              3.340621582928 eV    ::
         ::.................................................::
         :: SCC energy               -42.779077977399 Eh    ::
         :: -> isotropic ES            0.141123876439 Eh    ::
         :: -> anisotropic ES         -0.005230418907 Eh    ::
         :: -> anisotropic XC          0.011966818540 Eh    ::
         :: -> dispersion             -0.022657731803 Eh    ::
         :: repulsion energy           0.531105277918 Eh    ::
         :: add. restraining          13.011652700151 Eh    ::
         :: total charge               1.000000000002 e     ::
         :::::::::::::::::::::::::::::::::::::::::::::::::::::

      ----------------------------------------------------------- 
     |                   =====================                   |
     |                        A N C O P T                        |
     |                   =====================                   |
     |               Approximate Normal Coordinate               |
     |                Rational Function Optimizer                |
      ----------------------------------------------------------- 

          ...................................................
          :                      SETUP                      :
          :.................................................:
          :   optimization level             loose          :
          :   max. optcycles                   200          :
          :   ANC micro-cycles                  20          :
          :   degrees of freedom                69          :
          :.................................................:
          :   RF solver                   davidson          :
          :   write xtbopt.log                true          :
          :   linear?                        false          :
          :   energy convergence         0.5000000E-04 Eh   :
          :   grad. convergence          0.4000000E-02 Eh/α :
          :   maxmium RF displ.          1.0000000          :
          :   Hlow (freq-cutoff)         0.1000000E-01      :
          :   Hmax (freq-cutoff)         5.0000000          :
          :   S6 in model hess.         20.0000000          :
          ...................................................

generating ANC from model Hessian ...
Using Lindh-Hessian (1995)
 Shifting diagonal of input Hessian by    2.1548070919885269     
 Lowest  eigenvalues of input Hessian
    0.010000    0.777687    0.000000    0.000000    0.000000    0.000000
    0.000000    0.000000    2.157635    2.159455    2.160545    2.164585
    2.164766    2.166629    2.167525    2.169548    2.177018    2.180162
 Highest eigenvalues
    4.175917    4.266995    4.351926    4.558493    4.674314    5.827111


........................................................................
.............................. CYCLE    1 ..............................
........................................................................

 iter      E             dE          RMSdq      gap      omega  full diag
   1    -42.7790780 -0.427791E+02  0.626E-05    3.34       0.0  T
   2    -42.7790780 -0.124203E-10  0.329E-05    3.34     607.4  T
   3    -42.7790780  0.106581E-12  0.193E-05    3.34    1034.2  T
     SCC iter.                  ...        0 min,  0.006 sec
     gradient                   ...        0 min,  0.015 sec
 * total energy  :   -29.2362058 Eh     change       -0.6650680E-10 Eh
   gradient norm :     7.2156585 Eh/α   predicted     0.0000000E+00 (-100.00%)
   displ. norm   :     0.7211942 α      lambda       -0.5195547E+01
   maximum displ.:     0.6710423 α      in ANC's #69, #50, #60, ...

........................................................................
.............................. CYCLE    2 ..............................
........................................................................

 iter      E             dE          RMSdq      gap      omega  full diag
   1    -42.6001729 -0.426002E+02  0.167E+00    2.46       0.0  T
   2    -42.6084483 -0.827543E-02  0.143E+00    2.48       1.0  T
   3    -42.6484047 -0.399564E-01  0.618E-01    2.57       1.0  T
   4    -42.6491388 -0.734124E-03  0.260E-01    2.45       1.0  T
   5    -42.6493819 -0.243091E-03  0.173E-01    2.55       1.0  T
   6    -42.6500354 -0.653437E-03  0.344E-02    2.51       1.0  T
   7    -42.6500408 -0.541479E-05  0.173E-02    2.51       1.2  T
   8    -42.6500432 -0.235987E-05  0.519E-03    2.51       3.9  T
   9    -42.6500435 -0.363206E-06  0.170E-03    2.51      11.8  T
  10    -42.6500435 -0.929013E-08  0.805E-04    2.51      24.8  T
  11    -42.6500435 -0.502608E-08  0.174E-04    2.51     114.6  T
     SCC iter.                  ...        0 min,  0.017 sec
     gradient                   ...        0 min,  0.015 sec
 * total energy  :   -33.6872592 Eh     change       -0.4451053E+01 Eh
   gradient norm :     5.0947670 Eh/α   predicted    -0.3948967E+01 ( -11.28%)
   displ. norm   :     0.7686081 α      lambda       -0.3893398E+01
   maximum displ.:     0.6722859 α      in ANC's #69, #50, #48, ...

........................................................................
.............................. CYCLE    3 ..............................
........................................................................

 iter      E             dE          RMSdq      gap      omega  full diag
   1    -42.2321462 -0.422321E+02  0.206E+00    2.08       0.0  T
   2    -41.8825599  0.349586E+00  0.380E+00    1.30       1.0  T
   3    -42.3642468 -0.481687E+00  0.807E-01    1.66       1.0  T
   4    -42.3591414  0.510540E-02  0.762E-01    1.52       1.0  T
   5    -42.3701522 -0.110109E-01  0.290E-01    1.71       1.0  T
   6    -42.3707733 -0.621111E-03  0.160E-01    1.58       1.0  T
   7    -42.3714524 -0.679071E-03  0.557E-02    1.65       1.0  T
   8    -42.3714971 -0.447163E-04  0.344E-02    1.64       1.0  T
   9    -42.3715096 -0.124781E-04  0.133E-02    1.64       1.5  T
  10    -42.3715132 -0.359001E-05  0.463E-03    1.64       4.3  T
  11    -42.3715134 -0.242875E-06  0.201E-03    1.64       9.9  T
  12    -42.3715135 -0.523731E-07  0.499E-04    1.64      40.1  T
  13    -42.3715135 -0.461842E-08  0.131E-04    1.64     153.0  T
     SCC iter.                  ...        0 min,  0.020 sec
     gradient                   ...        0 min,  0.015 sec
 * total energy  :   -36.6996014 Eh     change       -0.3012342E+01 Eh
   gradient norm :     3.0387258 Eh/α   predicted    -0.3096730E+01 (   2.80%)
   displ. norm   :     0.7751445 α      lambda       -0.2347886E+01
   maximum displ.:     0.4354334 α      in ANC's #69, #50, #48, ...

........................................................................
.............................. CYCLE    4 ..............................
........................................................................

 iter      E             dE          RMSdq      gap      omega  full diag
   1    -42.0659392 -0.420659E+02  0.138E+00    1.31       0.0  T
   2    -41.8484347  0.217505E+00  0.272E+00    0.60       1.0  T
   3    -42.0954766 -0.247042E+00  0.866E-01    1.04       1.0  T
   4    -42.0410292  0.544474E-01  0.139E+00    0.95       1.0  T
   5    -42.1034864 -0.624572E-01  0.234E-01    1.06       1.0  T
   6    -42.1033694  0.117020E-03  0.199E-01    1.09       1.0  T
   7    -42.1042602 -0.890816E-03  0.104E-01    1.07       1.0  T
   8    -42.1043541 -0.938922E-04  0.630E-02    1.06       1.0  T
   9    -42.1044372 -0.831300E-04  0.260E-02    1.07       1.0  T
  10    -42.1044469 -0.963076E-05  0.114E-02    1.07       1.8  T
  11    -42.1044490 -0.212865E-05  0.223E-03    1.07       9.0  T
  12    -42.1044490 -0.164217E-07  0.121E-03    1.07      16.5  T
  13    -42.1044490 -0.182338E-07  0.579E-04    1.07      34.6  T
  14    -42.1044490 -0.933729E-08  0.199E-04    1.07     100.5  T
     SCC iter.                  ...        0 min,  0.021 sec
     gradient                   ...        0 min,  0.014 sec
 * total energy  :   -38.7278123 Eh     change       -0.2028211E+01 Eh
   gradient norm :     2.3030057 Eh/α   predicted    -0.1879382E+01 (  -7.34%)
   displ. norm   :     0.8341369 α      lambda       -0.1913559E+01
   maximum displ.:     0.4652364 α      in ANC's #69, #50, #65, ...

........................................................................
.............................. CYCLE    5 ..............................
........................................................................

 iter      E             dE          RMSdq      gap      omega  full diag
   1    -41.7981135 -0.417981E+02  0.266E+00    0.14       0.0  T
   2    -40.7498222  0.104829E+01  0.581E+00    0.43       1.0  T
   3    -41.8754241 -0.112560E+01  0.172E+00    0.39       1.0  T
   4    -41.9325379 -0.571138E-01  0.981E-01    0.54       1.0  T
   5    -41.8807967  0.517412E-01  0.133E+00    0.29       1.0  T
   6    -41.9553342 -0.745375E-01  0.242E-01    0.55       1.0  T
   7    -41.9548824  0.451811E-03  0.253E-01    0.52       1.0  T
   8    -41.9569870 -0.210457E-02  0.926E-02    0.51       1.0  T
   9    -41.9572005 -0.213577E-03  0.348E-02    0.53       1.0  T
  10    -41.9572125 -0.120018E-04  0.201E-02    0.53       1.0  T
  11    -41.9572239 -0.114114E-04  0.491E-03    0.53       4.1  T
  12    -41.9572242 -0.271185E-06  0.264E-03    0.53       7.6  T
  13    -41.9572244 -0.223365E-06  0.610E-04    0.53      32.8  T
  14    -41.9572244 -0.103914E-07  0.218E-04    0.53      91.7  T
     SCC iter.                  ...        0 min,  0.021 sec
     gradient                   ...        0 min,  0.015 sec
 * total energy  :   -40.3146371 Eh     change       -0.1586825E+01 Eh
   gradient norm :     1.5515564 Eh/α   predicted    -0.1622491E+01 (   2.25%)
   displ. norm   :     0.7453185 α      lambda       -0.1142553E+01
   maximum displ.:     0.4733442 α      in ANC's #69, #50, #65, ...

........................................................................
.............................. CYCLE    6 ..............................
........................................................................

 iter      E             dE          RMSdq      gap      omega  full diag
   1    -41.7491586 -0.417492E+02  0.184E+00    0.15       0.0  T
   2    -40.6986084  0.105055E+01  0.565E+00    0.81       1.0  T
   3    -41.8485379 -0.114993E+01  0.903E-01    0.17       1.0  T
   4    -41.8490637 -0.525778E-03  0.716E-01    0.27       1.0  T
   5    -41.8271311  0.219326E-01  0.824E-01    0.10       1.0  T
   6    -41.8552077 -0.280766E-01  0.401E-01    0.19       1.0  T
   7    -41.8599620 -0.475428E-02  0.215E-01    0.23       1.0  T
   8    -41.8616514 -0.168942E-02  0.466E-02    0.21       1.0  T
   9    -41.8617071 -0.557260E-04  0.228E-02    0.21       1.0  T
  10    -41.8617228 -0.157167E-04  0.108E-02    0.21       1.9  T
  11    -41.8617257 -0.285578E-05  0.437E-03    0.21       4.6  T
  12    -41.8617257 -0.413799E-07  0.241E-03    0.21       8.3  T
  13    -41.8617258 -0.103286E-06  0.131E-03    0.21      15.2  T
  14    -41.8617259 -0.544069E-07  0.400E-04    0.21      50.0  T
  15    -41.8617259 -0.245340E-08  0.136E-04    0.21     147.2  T
     SCC iter.                  ...        0 min,  0.023 sec
     gradient                   ...        0 min,  0.013 sec
 * total energy  :   -41.0781793 Eh     change       -0.7635422E+00 Eh
   gradient norm :     0.6463714 Eh/α   predicted    -0.8886291E+00 (  16.38%)
   displ. norm   :     0.4635735 α      lambda       -0.2532363E+00
   maximum displ.:     0.2436283 α      in ANC's #1, #69, #41, ...

........................................................................
.............................. CYCLE    7 ..............................
........................................................................

 iter      E             dE          RMSdq      gap      omega  full diag
   1    -41.7552808 -0.417553E+02  0.161E+00    0.14       0.0  T
   2    -40.5823980  0.117288E+01  0.545E+00    0.66       1.0  T
   3    -41.8062883 -0.122389E+01  0.127E+00    0.23       1.0  T
   4    -41.8202747 -0.139864E-01  0.102E+00    0.38       1.0  T
   5    -41.8508480 -0.305733E-01  0.568E-01    0.36       1.0  T
   6    -41.8598317 -0.898372E-02  0.347E-01    0.30       1.0  T
   7    -41.8616653 -0.183360E-02  0.204E-01    0.33       1.0  T
   8    -41.8634231 -0.175776E-02  0.787E-02    0.27       1.0  T
   9    -41.8635174 -0.943287E-04  0.525E-02    0.28       1.0  T
  10    -41.8635331 -0.156894E-04  0.229E-02    0.28       1.0  T
  11    -41.8635452 -0.121295E-04  0.101E-02    0.28       2.0  T
  12    -41.8635471 -0.187176E-05  0.616E-03    0.28       3.2  T
  13    -41.8635482 -0.109012E-05  0.271E-03    0.28       7.4  T
  14    -41.8635484 -0.201342E-06  0.829E-04    0.28      24.1  T
  15    -41.8635484 -0.966417E-08  0.533E-04    0.28      37.5  T
     SCC iter.                  ...        0 min,  0.020 sec
     gradient                   ...        0 min,  0.013 sec
 * total energy  :   -41.2525738 Eh     change       -0.1743945E+00 Eh
   gradient norm :     0.4377923 Eh/α   predicted    -0.1538297E+00 ( -11.79%)
   displ. norm   :     0.5007404 α      lambda       -0.1294852E+00
   maximum displ.:     0.4078380 α      in ANC's #1, #41, #15, ...

........................................................................
.............................. CYCLE    8 ..............................
........................................................................

 iter      E             dE          RMSdq      gap      omega  full diag
   1    -41.8159340 -0.418159E+02  0.134E+00    0.11       0.0  T
   2    -40.8567334  0.959201E+00  0.503E+00    0.31       1.0  T
   3    -41.8716046 -0.101487E+01  0.763E-01    0.28       1.0  T
   4    -41.8700689  0.153566E-02  0.682E-01    0.43       1.0  T
   5    -41.8819157 -0.118468E-01  0.362E-01    0.27       1.0  T
   6    -41.8773802  0.453546E-02  0.424E-01    0.34       1.0  T
   7    -41.8868191 -0.943886E-02  0.120E-01    0.33       1.0  T
   8    -41.8872517 -0.432572E-03  0.449E-02    0.32       1.0  T
   9    -41.8872947 -0.430662E-04  0.256E-02    0.32       1.0  T
  10    -41.8872986 -0.383943E-05  0.179E-02    0.32       1.1  T
  11    -41.8873068 -0.826147E-05  0.753E-03    0.32       2.7  T
  12    -41.8873082 -0.135710E-05  0.432E-03    0.32       4.6  T
  13    -41.8873085 -0.357885E-06  0.180E-03    0.32      11.1  T
  14    -41.8873086 -0.343511E-07  0.994E-04    0.32      20.1  T
  15    -41.8873086 -0.312086E-07  0.477E-04    0.32      41.9  T
     SCC iter.                  ...        0 min,  0.020 sec
     gradient                   ...        0 min,  0.012 sec
 * total energy  :   -41.3447942 Eh     change       -0.9222044E-01 Eh
   gradient norm :     0.3815522 Eh/α   predicted    -0.8097623E-01 ( -12.19%)
   displ. norm   :     0.3896874 α      lambda       -0.1025180E+00
   maximum displ.:     0.1342050 α      in ANC's #41, #15, #51, ...

........................................................................
.............................. CYCLE    9 ..............................
........................................................................

 iter      E             dE          RMSdq      gap      omega  full diag
   1    -41.9063260 -0.419063E+02  0.672E-01    0.43       0.0  T
   2    -41.8988621  0.746387E-02  0.718E-01    0.34       1.0  T
   3    -41.9120079 -0.131458E-01  0.343E-01    0.41       1.0  T
   4    -41.8987731  0.132348E-01  0.622E-01    0.46       1.0  T
   5    -41.9020707 -0.329755E-02  0.488E-01    0.28       1.0  T
   6    -41.9127720 -0.107013E-01  0.190E-01    0.43       1.0  T
   7    -41.9143569 -0.158488E-02  0.661E-02    0.40       1.0  T
   8    -41.9145148 -0.157849E-03  0.278E-02    0.40       1.0  T
   9    -41.9145259 -0.110974E-04  0.109E-02    0.40       1.8  T
  10    -41.9145276 -0.172285E-05  0.734E-03    0.40       2.7  T
  11    -41.9145294 -0.179682E-05  0.198E-03    0.40      10.1  T
  12    -41.9145294 -0.941286E-08  0.133E-03    0.40      15.0  T
  13    -41.9145294 -0.435305E-07  0.425E-04    0.40      47.0  T
  14    -41.9145294 -0.881414E-09  0.204E-04    0.40      98.2  T
     SCC iter.                  ...        0 min,  0.019 sec
     gradient                   ...        0 min,  0.013 sec
 * total energy  :   -41.4158551 Eh     change       -0.7106090E-01 Eh
   gradient norm :     0.2344525 Eh/α   predicted    -0.5904355E-01 ( -16.91%)
   displ. norm   :     0.5153343 α      lambda       -0.6383848E-01
   maximum displ.:     0.4181257 α      in ANC's #1, #15, #41, ...

........................................................................
.............................. CYCLE   10 ..............................
........................................................................

 iter      E             dE          RMSdq      gap      omega  full diag
   1    -41.9016128 -0.419016E+02  0.101E+00    0.44       0.0  T
   2    -41.7092610  0.192352E+00  0.221E+00    0.33       1.0  T
   3    -41.8871313 -0.177870E+00  0.968E-01    0.24       1.0  T
   4    -41.8979812 -0.108499E-01  0.837E-01    0.54       1.0  T
   5    -41.9248084 -0.268271E-01  0.395E-01    0.45       1.0  T
   6    -41.9282257 -0.341730E-02  0.224E-01    0.42       1.0  T
   7    -41.9295887 -0.136300E-02  0.654E-02    0.45       1.0  T
   8    -41.9296819 -0.932446E-04  0.349E-02    0.45       1.0  T
   9    -41.9296855 -0.357804E-05  0.241E-02    0.45       1.0  T
  10    -41.9297002 -0.146841E-04  0.119E-02    0.45       1.7  T
  11    -41.9297045 -0.435619E-05  0.363E-03    0.45       5.5  T
  12    -41.9297046 -0.126584E-06  0.191E-03    0.45      10.5  T
  13    -41.9297047 -0.862418E-07  0.676E-04    0.45      29.6  T
  14    -41.9297047 -0.866147E-08  0.422E-04    0.45      47.4  T
     SCC iter.                  ...        0 min,  0.019 sec
     gradient                   ...        0 min,  0.012 sec
 * total energy  :   -41.4583026 Eh     change       -0.4244749E-01 Eh
   gradient norm :     0.2061045 Eh/α   predicted    -0.4039608E-01 (  -4.83%)
   displ. norm   :     0.3943078 α      lambda       -0.4507610E-01
   maximum displ.:     0.1858154 α      in ANC's #1, #15, #50, ...

........................................................................
.............................. CYCLE   11 ..............................
........................................................................

 iter      E             dE          RMSdq      gap      omega  full diag
   1    -41.9429308 -0.419429E+02  0.752E-01    0.66       0.0  T
   2    -41.7814354  0.161495E+00  0.183E+00    0.07       1.0  T
   3    -41.9405059 -0.159071E+00  0.725E-01    0.61       1.0  T
   4    -41.9552908 -0.147849E-01  0.312E-01    0.59       1.0  T
   5    -41.9540883  0.120256E-02  0.344E-01    0.56       1.0  T
   6    -41.9589068 -0.481852E-02  0.928E-02    0.54       1.0  T
   7    -41.9591847 -0.277866E-03  0.355E-02    0.55       1.0  T
   8    -41.9592091 -0.244254E-04  0.212E-02    0.55       1.0  T
   9    -41.9592160 -0.695155E-05  0.847E-03    0.55       2.4  T
  10    -41.9592173 -0.126369E-05  0.481E-03    0.55       4.2  T
  11    -41.9592179 -0.614797E-06  0.199E-03    0.55      10.0  T
  12    -41.9592180 -0.508692E-07  0.852E-04    0.55      23.5  T
  13    -41.9592180 -0.838386E-08  0.416E-04    0.55      48.1  T
     SCC iter.                  ...        0 min,  0.018 sec
     gradient                   ...        0 min,  0.012 sec
 * total energy  :   -41.4763192 Eh     change       -0.1801659E-01 Eh
   gradient norm :     0.2474342 Eh/α   predicted    -0.2604263E-01 (  44.55%)
   displ. norm   :     0.4394587 α      lambda       -0.2742920E-01
   maximum displ.:     0.4131162 α      in ANC's #1, #50, #48, ...

........................................................................
.............................. CYCLE   12 ..............................
........................................................................

 iter      E             dE          RMSdq      gap      omega  full diag
   1    -41.9556388 -0.419556E+02  0.671E-01    0.53       0.0  T
   2    -41.9018064  0.538325E-01  0.117E+00    0.54       1.0  T
   3    -41.9393122 -0.375059E-01  0.701E-01    0.44       1.0  T
   4    -41.9458608 -0.654853E-02  0.554E-01    0.61       1.0  T
   5    -41.9597609 -0.139001E-01  0.229E-01    0.57       1.0  T
   6    -41.9613666 -0.160574E-02  0.676E-02    0.56       1.0  T
   7    -41.9614744 -0.107768E-03  0.352E-02    0.57       1.0  T
   8    -41.9614924 -0.180502E-04  0.179E-02    0.57       1.1  T
   9    -41.9614969 -0.447242E-05  0.831E-03    0.57       2.4  T
  10    -41.9614988 -0.188306E-05  0.494E-03    0.57       4.0  T
  11    -41.9614994 -0.610023E-06  0.226E-03    0.57       8.9  T
  12    -41.9614995 -0.632896E-07  0.993E-04    0.57      20.1  T
  13    -41.9614995 -0.232976E-07  0.462E-04    0.57      43.3  T
     SCC iter.                  ...        0 min,  0.017 sec
     gradient                   ...        0 min,  0.012 sec
 * total energy  :   -41.4974504 Eh     change       -0.2113124E-01 Eh
   gradient norm :     0.2157104 Eh/α   predicted    -0.1636311E-01 ( -22.56%)
   displ. norm   :     0.3433671 α      lambda       -0.3234493E-01
   maximum displ.:     0.2538523 α      in ANC's #1, #50, #29, ...

........................................................................
.............................. CYCLE   13 ..............................
........................................................................

 iter      E             dE          RMSdq      gap      omega  full diag
   1    -41.9673071 -0.419673E+02  0.551E-01    0.62       0.0  T
   2    -41.9565185  0.107886E-01  0.623E-01    0.62       1.0  T
   3    -41.9678406 -0.113220E-01  0.359E-01    0.64       1.0  T
   4    -41.9624984  0.534220E-02  0.464E-01    0.57       1.0  T
   5    -41.9679914 -0.549303E-02  0.320E-01    0.66       1.0  T
   6    -41.9724157 -0.442431E-02  0.620E-02    0.65       1.0  T
   7    -41.9725185 -0.102774E-03  0.313E-02    0.64       1.0  T
   8    -41.9725434 -0.249508E-04  0.189E-02    0.65       1.1  T
   9    -41.9725496 -0.617561E-05  0.102E-02    0.64       2.0  T
  10    -41.9725517 -0.213504E-05  0.464E-03    0.64       4.3  T
  11    -41.9725524 -0.657352E-06  0.169E-03    0.64      11.8  T
  12    -41.9725524 -0.409902E-07  0.700E-04    0.64      28.6  T
  13    -41.9725525 -0.118151E-07  0.341E-04    0.64      58.6  T
     SCC iter.                  ...        0 min,  0.017 sec
     gradient                   ...        0 min,  0.012 sec
 * total energy  :   -41.5219031 Eh     change       -0.2445266E-01 Eh
   gradient norm :     0.1762407 Eh/α   predicted    -0.1807930E-01 ( -26.06%)
   displ. norm   :     0.3067703 α      lambda       -0.3473112E-01
   maximum displ.:     0.1062615 α      in ANC's #50, #29, #33, ...

........................................................................
.............................. CYCLE   14 ..............................
........................................................................

 iter      E             dE          RMSdq      gap      omega  full diag
   1    -41.9912958 -0.419913E+02  0.640E-01    0.71       0.0  T
   2    -41.9339296  0.573662E-01  0.123E+00    0.57       1.0  T
   3    -41.9859938 -0.520642E-01  0.664E-01    0.74       1.0  T
   4    -42.0029656 -0.169718E-01  0.252E-01    0.77       1.0  T
   5    -42.0037033 -0.737724E-03  0.153E-01    0.80       1.0  T
   6    -42.0041148 -0.411486E-03  0.926E-02    0.79       1.0  T
   7    -42.0044680 -0.353236E-03  0.352E-02    0.79       1.0  T
   8    -42.0044998 -0.317759E-04  0.192E-02    0.79       1.0  T
   9    -42.0045122 -0.123371E-04  0.986E-03    0.79       2.0  T
  10    -42.0045140 -0.188447E-05  0.340E-03    0.79       5.9  T
  11    -42.0045142 -0.186343E-06  0.225E-03    0.79       8.9  T
  12    -42.0045143 -0.115498E-06  0.906E-04    0.79      22.1  T
  13    -42.0045144 -0.177535E-07  0.323E-04    0.79      61.9  T
     SCC iter.                  ...        0 min,  0.017 sec
     gradient                   ...        0 min,  0.012 sec
 * total energy  :   -41.5440614 Eh     change       -0.2215828E-01 Eh
   gradient norm :     0.1825895 Eh/α   predicted    -0.1899983E-01 ( -14.25%)
   displ. norm   :     0.2259785 α      lambda       -0.1655957E-01
   maximum displ.:     0.1127728 α      in ANC's #1, #50, #33, ...

........................................................................
.............................. CYCLE   15 ..............................
........................................................................

 iter      E             dE          RMSdq      gap      omega  full diag
   1    -42.0162526 -0.420163E+02  0.332E-01    0.87       0.0  T
   2    -42.0160382  0.214405E-03  0.248E-01    0.86       1.0  T
   3    -42.0165600 -0.521814E-03  0.171E-01    0.86       1.0  T
   4    -42.0166253 -0.652943E-04  0.137E-01    0.87       1.0  T
   5    -42.0168675 -0.242192E-03  0.849E-02    0.85       1.0  T
   6    -42.0171390 -0.271467E-03  0.294E-02    0.86       1.0  T
   7    -42.0171667 -0.276959E-04  0.205E-02    0.86       1.0  T
   8    -42.0171804 -0.137118E-04  0.116E-02    0.86       1.7  T
   9    -42.0171836 -0.324170E-05  0.477E-03    0.86       4.2  T
  10    -42.0171841 -0.449328E-06  0.257E-03    0.86       7.8  T
  11    -42.0171842 -0.163217E-06  0.133E-03    0.86      15.0  T
  12    -42.0171843 -0.478571E-07  0.360E-04    0.86      55.6  T
  13    -42.0171843 -0.171698E-08  0.127E-04    0.86     157.4  T
     SCC iter.                  ...        0 min,  0.017 sec
     gradient                   ...        0 min,  0.012 sec
 * total energy  :   -41.5573610 Eh     change       -0.1329958E-01 Eh
   gradient norm :     0.1810766 Eh/α   predicted    -0.8702908E-02 ( -34.56%)
   displ. norm   :     0.3265527 α      lambda       -0.3109340E-01
   maximum displ.:     0.1283690 α      in ANC's #37, #33, #50, ...

........................................................................
.............................. CYCLE   16 ..............................
........................................................................

 iter      E             dE          RMSdq      gap      omega  full diag
   1    -42.0452127 -0.420452E+02  0.517E-01    0.86       0.0  T
   2    -42.0401942  0.501849E-02  0.523E-01    0.74       1.0  T
   3    -42.0387166  0.147754E-02  0.462E-01    0.83       1.0  T
   4    -42.0376154  0.110127E-02  0.514E-01    0.75       1.0  T
   5    -42.0475445 -0.992915E-02  0.161E-01    0.84       1.0  T
   6    -42.0483453 -0.800766E-03  0.469E-02    0.84       1.0  T
   7    -42.0483847 -0.394412E-04  0.234E-02    0.84       1.0  T
   8    -42.0483932 -0.852268E-05  0.163E-02    0.84       1.2  T
   9    -42.0483993 -0.606710E-05  0.666E-03    0.84       3.0  T
  10    -42.0484001 -0.851278E-06  0.366E-03    0.84       5.5  T
  11    -42.0484004 -0.252816E-06  0.189E-03    0.84      10.6  T
  12    -42.0484005 -0.942758E-07  0.743E-04    0.84      26.9  T
  13    -42.0484005 -0.106143E-07  0.314E-04    0.84      63.6  T
     SCC iter.                  ...        0 min,  0.017 sec
     gradient                   ...        0 min,  0.012 sec
 * total energy  :   -41.5796932 Eh     change       -0.2233220E-01 Eh
   gradient norm :     0.1959748 Eh/α   predicted    -0.1720548E-01 ( -22.96%)
   displ. norm   :     0.3433113 α      lambda       -0.2562300E-01
   maximum displ.:     0.1379760 α      in ANC's #37, #1, #50, ...

........................................................................
.............................. CYCLE   17 ..............................
........................................................................

 iter      E             dE          RMSdq      gap      omega  full diag
   1    -42.0599107 -0.420599E+02  0.501E-01    0.76       0.0  T
   2    -42.0263106  0.336001E-01  0.968E-01    0.42       1.0  T
   3    -42.0608273 -0.345167E-01  0.325E-01    0.77       1.0  T
   4    -42.0572091  0.361815E-02  0.401E-01    0.73       1.0  T
   5    -42.0628309 -0.562178E-02  0.105E-01    0.74       1.0  T
   6    -42.0631934 -0.362547E-03  0.596E-02    0.75       1.0  T
   7    -42.0632839 -0.904599E-04  0.272E-02    0.75       1.0  T
   8    -42.0633019 -0.179494E-04  0.120E-02    0.75       1.7  T
   9    -42.0633038 -0.195446E-05  0.673E-03    0.75       3.0  T
  10    -42.0633047 -0.864925E-06  0.370E-03    0.75       5.4  T
  11    -42.0633051 -0.384105E-06  0.108E-03    0.75      18.6  T
  12    -42.0633051 -0.288487E-07  0.302E-04    0.75      66.2  T
  13    -42.0633051 -0.749999E-09  0.154E-04    0.75     129.9  T
     SCC iter.                  ...        0 min,  0.018 sec
     gradient                   ...        0 min,  0.012 sec
 * total energy  :   -41.5993244 Eh     change       -0.1963120E-01 Eh
   gradient norm :     0.2182205 Eh/α   predicted    -0.1432153E-01 ( -27.05%)
   displ. norm   :     0.3884653 α      lambda       -0.3507688E-01
   maximum displ.:     0.2026818 α      in ANC's #37, #54, #65, ...

........................................................................
.............................. CYCLE   18 ..............................
........................................................................

 iter      E             dE          RMSdq      gap      omega  full diag
   1    -42.0928306 -0.420928E+02  0.554E-01    0.67       0.0  T
   2    -42.0840281  0.880249E-02  0.599E-01    0.48       1.0  T
   3    -42.0782712  0.575695E-02  0.630E-01    0.67       1.0  T
   4    -42.0922176 -0.139464E-01  0.279E-01    0.62       1.0  T
   5    -42.0947166 -0.249896E-02  0.799E-02    0.64       1.0  T
   6    -42.0948262 -0.109666E-03  0.474E-02    0.65       1.0  T
   7    -42.0948784 -0.522158E-04  0.284E-02    0.64       1.0  T
   8    -42.0948962 -0.177516E-04  0.142E-02    0.65       1.4  T
   9    -42.0949002 -0.397619E-05  0.709E-03    0.64       2.8  T
  10    -42.0949013 -0.117669E-05  0.355E-03    0.65       5.6  T
  11    -42.0949017 -0.316959E-06  0.116E-03    0.65      17.2  T
  12    -42.0949017 -0.295966E-07  0.448E-04    0.65      44.6  T
  13    -42.0949017 -0.362011E-08  0.189E-04    0.65     106.0  T
     SCC iter.                  ...        0 min,  0.018 sec
     gradient                   ...        0 min,  0.012 sec
 * total energy  :   -41.6247536 Eh     change       -0.2542923E-01 Eh
   gradient norm :     0.2423024 Eh/α   predicted    -0.2018509E-01 ( -20.62%)
   displ. norm   :     0.3588577 α      lambda       -0.3626216E-01
   maximum displ.:     0.1957073 α      in ANC's #37, #65, #54, ...

........................................................................
.............................. CYCLE   19 ..............................
........................................................................

 iter      E             dE          RMSdq      gap      omega  full diag
   1    -42.1011066 -0.421011E+02  0.664E-01    0.51       0.0  T
   2    -42.0565117  0.445949E-01  0.116E+00    0.34       1.0  T
   3    -42.1009914 -0.444797E-01  0.504E-01    0.59       1.0  T
   4    -42.0940567  0.693470E-02  0.588E-01    0.35       1.0  T
   5    -42.1086093 -0.145526E-01  0.169E-01    0.55       1.0  T
   6    -42.1094598 -0.850542E-03  0.509E-02    0.52       1.0  T
   7    -42.1094921 -0.322231E-04  0.305E-02    0.52       1.0  T
   8    -42.1095092 -0.171861E-04  0.169E-02    0.52       1.2  T
   9    -42.1095142 -0.492157E-05  0.843E-03    0.52       2.4  T
  10    -42.1095155 -0.138617E-05  0.393E-03    0.52       5.1  T
  11    -42.1095159 -0.366325E-06  0.161E-03    0.52      12.4  T
  12    -42.1095160 -0.720111E-07  0.459E-04    0.52      43.6  T
  13    -42.1095160 -0.193820E-08  0.277E-04    0.52      72.3  T
     SCC iter.                  ...        0 min,  0.018 sec
     gradient                   ...        0 min,  0.012 sec
 * total energy  :   -41.6506442 Eh     change       -0.2589060E-01 Eh
   gradient norm :     0.2576246 Eh/α   predicted    -0.2046607E-01 ( -20.95%)
   displ. norm   :     0.3694092 α      lambda       -0.4379619E-01
   maximum displ.:     0.1823809 α      in ANC's #37, #1, #2, ...

........................................................................
.............................. CYCLE   20 ..............................
........................................................................

 iter      E             dE          RMSdq      gap      omega  full diag
   1    -42.1465401 -0.421465E+02  0.563E-01    0.47       0.0  T
   2    -42.1314104  0.151297E-01  0.675E-01    0.59       1.0  T
   3    -42.1446726 -0.132622E-01  0.399E-01    0.42       1.0  T
   4    -42.1404841  0.418847E-02  0.478E-01    0.57       1.0  T
   5    -42.1491140 -0.862991E-02  0.177E-01    0.49       1.0  T
   6    -42.1501355 -0.102145E-02  0.410E-02    0.51       1.0  T
   7    -42.1501622 -0.267011E-04  0.273E-02    0.51       1.0  T
   8    -42.1501781 -0.158771E-04  0.980E-03    0.51       2.0  T
   9    -42.1501798 -0.178004E-05  0.377E-03    0.51       5.3  T
  10    -42.1501802 -0.333791E-06  0.175E-03    0.51      11.4  T
  11    -42.1501802 -0.729863E-07  0.510E-04    0.51      39.2  T
  12    -42.1501802 -0.203882E-08  0.287E-04    0.51      69.7  T
     SCC iter.                  ...        0 min,  0.016 sec
     gradient                   ...        0 min,  0.012 sec
 * total energy  :   -41.6839618 Eh     change       -0.3331759E-01 Eh
   gradient norm :     0.2834484 Eh/α   predicted    -0.2488644E-01 ( -25.31%)
   displ. norm   :     0.4208026 α      lambda       -0.6013184E-01
   maximum displ.:     0.1627374 α      in ANC's #37, #2, #41, ...
 * RMSD in coord.:     0.9690990 α      energy gain  -0.1244776E+02 Eh

generating ANC from model Hessian ...
Using Lindh-Hessian (1995)
 Shifting diagonal of input Hessian by    1.3517079487957388E-002
 Lowest  eigenvalues of input Hessian
    0.010000    0.011414    0.000000    0.000000    0.000000    0.000000
    0.000000    0.000000    0.013895    0.015654    0.015865    0.016161
    0.017186    0.018009    0.020297    0.023425    0.025188    0.025435
 Highest eigenvalues
    1.930617    1.960045    2.004062    2.175919    2.475320    2.546710


........................................................................
.............................. CYCLE   21 ..............................
........................................................................

 iter      E             dE          RMSdq      gap      omega  full diag
   1    -42.1840583 -0.421841E+02  0.760E-01    0.46       0.0  T
   2    -42.1325964  0.514619E-01  0.111E+00    0.46       1.0  T
   3    -42.1887435 -0.561471E-01  0.442E-01    0.49       1.0  T
   4    -42.1901446 -0.140113E-02  0.384E-01    0.44       1.0  T
   5    -42.1900810  0.636256E-04  0.332E-01    0.61       1.0  T
   6    -42.1943953 -0.431435E-02  0.951E-02    0.49       1.0  T
   7    -42.1946808 -0.285422E-03  0.377E-02    0.51       1.0  T
   8    -42.1947126 -0.318922E-04  0.169E-02    0.51       1.2  T
   9    -42.1947202 -0.757105E-05  0.569E-03    0.51       3.5  T
  10    -42.1947206 -0.409439E-06  0.304E-03    0.51       6.6  T
  11    -42.1947208 -0.217981E-06  0.100E-03    0.51      19.9  T
  12    -42.1947209 -0.228899E-07  0.429E-04    0.51      46.6  T
  13    -42.1947209 -0.310203E-08  0.162E-04    0.51     123.7  T
     SCC iter.                  ...        0 min,  0.018 sec
     gradient                   ...        0 min,  0.012 sec
 * total energy  :   -41.7321217 Eh     change       -0.4815989E-01 Eh
   gradient norm :     0.2901973 Eh/α   predicted     0.0000000E+00 (-100.00%)
   displ. norm   :     0.5646457 α      lambda       -0.1014158E+00
   maximum displ.:     0.1915872 α      in ANC's #21, #35, #25, ...

........................................................................
.............................. CYCLE   22 ..............................
........................................................................

 iter      E             dE          RMSdq      gap      omega  full diag
   1    -42.2609895 -0.422610E+02  0.673E-01    0.55       0.0  T
   2    -42.2388407  0.221488E-01  0.816E-01    0.44       1.0  T
   3    -42.2559745 -0.171339E-01  0.476E-01    0.50       1.0  T
   4    -42.2601097 -0.413515E-02  0.332E-01    0.60       1.0  T
   5    -42.2625732 -0.246355E-02  0.207E-01    0.51       1.0  T
   6    -42.2640932 -0.151994E-02  0.441E-02    0.57       1.0  T
   7    -42.2641382 -0.449993E-04  0.225E-02    0.57       1.0  T
   8    -42.2641483 -0.101259E-04  0.777E-03    0.57       2.6  T
   9    -42.2641484 -0.717751E-07  0.582E-03    0.57       3.4  T
  10    -42.2641493 -0.968493E-06  0.263E-03    0.57       7.6  T
  11    -42.2641495 -0.149454E-06  0.927E-04    0.57      21.6  T
  12    -42.2641495 -0.481185E-08  0.539E-04    0.57      37.1  T
     SCC iter.                  ...        0 min,  0.016 sec
     gradient                   ...        0 min,  0.012 sec
 * total energy  :   -41.8158165 Eh     change       -0.8369478E-01 Eh
   gradient norm :     0.1611682 Eh/α   predicted    -0.6705600E-01 ( -19.88%)
   displ. norm   :     0.7329781 α      lambda       -0.9380540E-01
   maximum displ.:     0.2327445 α      in ANC's #25, #21, #42, ...

........................................................................
.............................. CYCLE   23 ..............................
........................................................................

 iter      E             dE          RMSdq      gap      omega  full diag
   1    -42.3443281 -0.423443E+02  0.998E-01    0.17       0.0  T
   2    -42.1859228  0.158405E+00  0.202E+00    0.22       1.0  T
   3    -42.3567577 -0.170835E+00  0.544E-01    0.21       1.0  T
   4    -42.3439371  0.128206E-01  0.652E-01    0.37       1.0  T
   5    -42.3553664 -0.114293E-01  0.305E-01    0.23       1.0  T
   6    -42.3581218 -0.275548E-02  0.116E-01    0.25       1.0  T
   7    -42.3583651 -0.243263E-03  0.712E-02    0.25       1.0  T
   8    -42.3585100 -0.144873E-03  0.294E-02    0.24       1.0  T
   9    -42.3585288 -0.188576E-04  0.131E-02    0.24       1.5  T
  10    -42.3585336 -0.481484E-05  0.456E-03    0.24       4.4  T
  11    -42.3585343 -0.644000E-06  0.118E-03    0.24      16.9  T
  12    -42.3585343 -0.173308E-07  0.377E-04    0.24      53.1  T
  13    -42.3585343  0.493259E-09  0.207E-04    0.24      96.8  T
     SCC iter.                  ...        0 min,  0.018 sec
     gradient                   ...        0 min,  0.013 sec
 * total energy  :   -41.8844174 Eh     change       -0.6860094E-01 Eh
   gradient norm :     0.1366444 Eh/α   predicted    -0.7210164E-01 (   5.10%)
   displ. norm   :     0.5642647 α      lambda       -0.3919633E-01
   maximum displ.:     0.1925410 α      in ANC's #15, #21, #25, ...

........................................................................
.............................. CYCLE   24 ..............................
........................................................................

 iter      E             dE          RMSdq      gap      omega  full diag
   1    -42.3975081 -0.423975E+02  0.941E-01    0.43       0.0  T
   2    -42.1956886  0.201819E+00  0.237E+00    0.14       1.0  T
   3    -42.4145584 -0.218870E+00  0.517E-01    0.37       1.0  T
   4    -42.4104856  0.407285E-02  0.371E-01    0.33       1.0  T
   5    -42.4146431 -0.415754E-02  0.178E-01    0.36       1.0  T
   6    -42.4153407 -0.697580E-03  0.804E-02    0.37       1.0  T
   7    -42.4155644 -0.223728E-03  0.244E-02    0.37       1.0  T
   8    -42.4155661 -0.167173E-05  0.147E-02    0.37       1.4  T
   9    -42.4155714 -0.535099E-05  0.465E-03    0.37       4.3  T
  10    -42.4155720 -0.603872E-06  0.118E-03    0.37      17.0  T
  11    -42.4155721 -0.211173E-07  0.326E-04    0.37      61.3  T
  12    -42.4155721  0.385690E-09  0.220E-04    0.37      90.9  T
     SCC iter.                  ...        0 min,  0.016 sec
     gradient                   ...        0 min,  0.013 sec
 * total energy  :   -41.9080828 Eh     change       -0.2366545E-01 Eh
   gradient norm :     0.1193518 Eh/α   predicted    -0.2583814E-01 (   9.18%)
   displ. norm   :     0.5635379 α      lambda       -0.3332386E-01
   maximum displ.:     0.2291831 α      in ANC's #14, #19, #20, ...

........................................................................
.............................. CYCLE   25 ..............................
........................................................................

 iter      E             dE          RMSdq      gap      omega  full diag
   1    -42.4454527 -0.424455E+02  0.969E-01    0.79       0.0  T
   2    -42.4385732  0.687946E-02  0.740E-01    1.16       1.0  T
   3    -42.4143702  0.242030E-01  0.926E-01    0.50       1.0  T
   4    -42.4462373 -0.318670E-01  0.260E-01    0.95       1.0  T
   5    -42.4483621 -0.212486E-02  0.105E-01    0.95       1.0  T
   6    -42.4487200 -0.357843E-03  0.265E-02    0.91       1.0  T
   7    -42.4487314 -0.114873E-04  0.149E-02    0.91       1.3  T
   8    -42.4487346 -0.320232E-05  0.412E-03    0.91       4.8  T
   9    -42.4487349 -0.229590E-06  0.164E-03    0.91      12.2  T
  10    -42.4487349 -0.323314E-07  0.106E-03    0.91      18.9  T
  11    -42.4487349 -0.209770E-07  0.412E-04    0.91      48.6  T
  12    -42.4487349 -0.323553E-08  0.124E-04    0.91     161.5  T
     SCC iter.                  ...        0 min,  0.016 sec
     gradient                   ...        0 min,  0.013 sec
 * total energy  :   -41.9489732 Eh     change       -0.4089030E-01 Eh
   gradient norm :     0.1556434 Eh/α   predicted    -0.2195335E-01 ( -46.31%)
   displ. norm   :     0.6858802 α      lambda       -0.7267281E-01
   maximum displ.:     0.3679413 α      in ANC's #14, #23, #38, ...

........................................................................
.............................. CYCLE   26 ..............................
........................................................................

 iter      E             dE          RMSdq      gap      omega  full diag
   1    -42.5149612 -0.425150E+02  0.906E-01    0.97       0.0  T
   2    -42.5149498  0.113911E-04  0.541E-01    0.91       1.0  T
   3    -42.5119779  0.297182E-02  0.513E-01    1.15       1.0  T
   4    -42.5147089 -0.273100E-02  0.284E-01    0.78       1.0  T
   5    -42.5179475 -0.323856E-02  0.597E-02    1.00       1.0  T
   6    -42.5180523 -0.104781E-03  0.217E-02    0.97       1.0  T
   7    -42.5180595 -0.718672E-05  0.910E-03    0.98       2.2  T
   8    -42.5180603 -0.787899E-06  0.357E-03    0.97       5.6  T
   9    -42.5180606 -0.359695E-06  0.111E-03    0.97      18.1  T
  10    -42.5180606 -0.478321E-08  0.664E-04    0.97      30.1  T
  11    -42.5180606 -0.567398E-08  0.214E-04    0.97      93.5  T
     SCC iter.                  ...        0 min,  0.015 sec
     gradient                   ...        0 min,  0.013 sec
 * total energy  :   -42.0200426 Eh     change       -0.7106941E-01 Eh
   gradient norm :     0.1478420 Eh/α   predicted    -0.5343019E-01 ( -24.82%)
   displ. norm   :     0.7670814 α      lambda       -0.8110364E-01
   maximum displ.:     0.2770533 α      in ANC's #35, #23, #14, ...

........................................................................
.............................. CYCLE   27 ..............................
........................................................................

 iter      E             dE          RMSdq      gap      omega  full diag
   1    -42.5906738 -0.425907E+02  0.108E+00    0.89       0.0  T
   2    -42.5921472 -0.147334E-02  0.689E-01    0.87       1.0  T
   3    -42.5868012  0.534601E-02  0.465E-01    1.09       1.0  T
   4    -42.5882771 -0.147592E-02  0.392E-01    0.66       1.0  T
   5    -42.5935718 -0.529471E-02  0.547E-02    0.92       1.0  T
   6    -42.5936350 -0.631931E-04  0.288E-02    0.89       1.0  T
   7    -42.5936450 -0.100454E-04  0.113E-02    0.90       1.8  T
   8    -42.5936472 -0.220777E-05  0.350E-03    0.90       5.7  T
   9    -42.5936475 -0.283680E-06  0.197E-03    0.90      10.2  T
  10    -42.5936476 -0.513296E-07  0.106E-03    0.90      18.8  T
  11    -42.5936476 -0.244065E-07  0.275E-04    0.90      72.8  T
  12    -42.5936476 -0.129825E-08  0.909E-05    0.90     220.1  T
     SCC iter.                  ...        0 min,  0.016 sec
     gradient                   ...        0 min,  0.013 sec
 * total energy  :   -41.9882235 Eh     change        0.3181905E-01 Eh
   gradient norm :     0.4750078 Eh/α   predicted    -0.6441308E-01 (-302.44%)
   displ. norm   :     0.4192259 α      lambda       -0.1717891E+00
   maximum displ.:     0.1857566 α      in ANC's #14, #35, #40, ...

........................................................................
.............................. CYCLE   28 ..............................
........................................................................

 iter      E             dE          RMSdq      gap      omega  full diag
   1    -42.5882572 -0.425883E+02  0.734E-01    0.95       0.0  T
   2    -42.5902197 -0.196253E-02  0.499E-01    0.92       1.0  T
   3    -42.5909923 -0.772552E-03  0.263E-01    0.89       1.0  T
   4    -42.5905860  0.406227E-03  0.191E-01    1.02       1.0  T
   5    -42.5915621 -0.976093E-03  0.655E-02    0.87       1.0  T
   6    -42.5917069 -0.144810E-03  0.292E-02    0.93       1.0  T
   7    -42.5917254 -0.184345E-04  0.102E-02    0.92       2.0  T
   8    -42.5917267 -0.132819E-05  0.369E-03    0.92       5.4  T
   9    -42.5917269 -0.217145E-06  0.125E-03    0.92      16.0  T
  10    -42.5917270 -0.270087E-07  0.593E-04    0.92      33.7  T
  11    -42.5917270 -0.275073E-08  0.204E-04    0.92      97.8  T
     SCC iter.                  ...        0 min,  0.015 sec
     gradient                   ...        0 min,  0.013 sec
 * total energy  :   -42.0523456 Eh     change       -0.6412207E-01 Eh
   gradient norm :     0.0838760 Eh/α   predicted    -0.1009906E+00 (  57.50%)
   displ. norm   :     0.4768635 α      lambda       -0.1842790E-01
   maximum displ.:     0.1867314 α      in ANC's #10, #25, #9, ...

........................................................................
.............................. CYCLE   29 ..............................
........................................................................

 iter      E             dE          RMSdq      gap      omega  full diag
   1    -42.5669760 -0.425670E+02  0.584E-01    1.17       0.0  T
   2    -42.5622739  0.470211E-02  0.543E-01    0.72       1.0  T
   3    -42.5669015 -0.462766E-02  0.349E-01    1.19       1.0  T
   4    -42.5692884 -0.238683E-02  0.100E-01    0.98       1.0  T
   5    -42.5694910 -0.202634E-03  0.214E-02    1.00       1.0  T
   6    -42.5694972 -0.620385E-05  0.109E-02    1.00       1.8  T
   7    -42.5694978 -0.581502E-06  0.460E-03    1.00       4.4  T
   8    -42.5694983 -0.493655E-06  0.215E-03    1.00       9.3  T
   9    -42.5694984 -0.117776E-06  0.610E-04    1.00      32.8  T
  10    -42.5694984  0.171099E-09  0.248E-04    1.00      80.7  T
     SCC iter.                  ...        0 min,  0.014 sec
     gradient                   ...        0 min,  0.013 sec
 * total energy  :   -42.0523461 Eh     change       -0.4953210E-06 Eh
   gradient norm :     0.1116888 Eh/α   predicted    -0.1130920E-01 (*******%)
   displ. norm   :     0.3615365 α      lambda       -0.1991500E-01
   maximum displ.:     0.1782099 α      in ANC's #4, #16, #1, ...

........................................................................
.............................. CYCLE   30 ..............................
........................................................................

 iter      E             dE          RMSdq      gap      omega  full diag
   1    -42.5960290 -0.425960E+02  0.380E-01    0.92       0.0  T
   2    -42.5958859  0.143037E-03  0.264E-01    1.08       1.0  T
   3    -42.5940200  0.186596E-02  0.249E-01    0.80       1.0  T
   4    -42.5961897 -0.216973E-02  0.129E-01    1.04       1.0  T
   5    -42.5965737 -0.383972E-03  0.263E-02    0.99       1.0  T
   6    -42.5965888 -0.151127E-04  0.110E-02    0.99       1.8  T
   7    -42.5965903 -0.153017E-05  0.463E-03    0.98       4.3  T
   8    -42.5965907 -0.376862E-06  0.829E-04    0.98      24.1  T
   9    -42.5965907 -0.803153E-08  0.461E-04    0.98      43.3  T
     SCC iter.                  ...        0 min,  0.012 sec
     gradient                   ...        0 min,  0.013 sec
 * total energy  :   -42.0632340 Eh     change       -0.1088789E-01 Eh
   gradient norm :     0.0630548 Eh/α   predicted    -0.1125904E-01 (   3.41%)
   displ. norm   :     0.4591669 α      lambda       -0.1217305E-01
   maximum displ.:     0.2468412 α      in ANC's #6, #3, #2, ...

........................................................................
.............................. CYCLE   31 ..............................
........................................................................

 iter      E             dE          RMSdq      gap      omega  full diag
   1    -42.6039211 -0.426039E+02  0.545E-01    1.06       0.0  T
   2    -42.6037564  0.164735E-03  0.353E-01    0.87       1.0  T
   3    -42.6008917  0.286469E-02  0.357E-01    1.23       1.0  T
   4    -42.6046245 -0.373285E-02  0.119E-01    0.94       1.0  T
   5    -42.6049746 -0.350046E-03  0.283E-02    0.98       1.0  T
   6    -42.6049924 -0.177646E-04  0.117E-02    0.98       1.7  T
   7    -42.6049920  0.364044E-06  0.912E-03    0.98       2.2  T
   8    -42.6049939 -0.187573E-05  0.178E-03    0.98      11.2  T
   9    -42.6049939 -0.486995E-07  0.588E-04    0.98      34.0  T
  10    -42.6049939 -0.136051E-08  0.326E-04    0.98      61.3  T
     SCC iter.                  ...        0 min,  0.014 sec
     gradient                   ...        0 min,  0.013 sec
 * total energy  :   -42.0596266 Eh     change        0.3607351E-02 Eh
   gradient norm :     0.1145242 Eh/α   predicted    -0.7369766E-02 (-304.30%)
   displ. norm   :     0.2655136 α      lambda       -0.1527661E-01
   maximum displ.:     0.1262590 α      in ANC's #4, #6, #25, ...

........................................................................
.............................. CYCLE   32 ..............................
........................................................................

 iter      E             dE          RMSdq      gap      omega  full diag
   1    -42.6060645 -0.426061E+02  0.327E-01    0.97       0.0  T
   2    -42.6063115 -0.247038E-03  0.204E-01    1.04       1.0  T
   3    -42.6058653  0.446235E-03  0.148E-01    0.91       1.0  T
   4    -42.6060070 -0.141748E-03  0.127E-01    1.08       1.0  T
   5    -42.6064952 -0.488199E-03  0.163E-02    1.00       1.2  T
   6    -42.6065008 -0.558693E-05  0.871E-03    1.00       2.3  T
   7    -42.6065012 -0.424644E-06  0.510E-03    1.00       3.9  T
   8    -42.6065018 -0.620186E-06  0.122E-03    1.00      16.4  T
   9    -42.6065019 -0.346595E-07  0.468E-04    1.00      42.7  T
  10    -42.6065019 -0.268907E-08  0.218E-04    1.00      91.9  T
     SCC iter.                  ...        0 min,  0.014 sec
     gradient                   ...        0 min,  0.012 sec
 * total energy  :   -42.0682514 Eh     change       -0.8624778E-02 Eh
   gradient norm :     0.0273550 Eh/α   predicted    -0.8176812E-02 (  -5.19%)
   displ. norm   :     0.2771145 α      lambda       -0.2405575E-02
   maximum displ.:     0.1672485 α      in ANC's #2, #4, #13, ...

........................................................................
.............................. CYCLE   33 ..............................
........................................................................

 iter      E             dE          RMSdq      gap      omega  full diag
   1    -42.6098332 -0.426098E+02  0.187E-01    1.07       0.0  T
   2    -42.6095123  0.320955E-03  0.150E-01    0.94       1.0  T
   3    -42.6095814 -0.690851E-04  0.133E-01    1.10       1.0  T
   4    -42.6099756 -0.394259E-03  0.308E-02    1.02       1.0  T
   5    -42.6099982 -0.225307E-04  0.108E-02    1.02       1.8  T
   6    -42.6100016 -0.340195E-05  0.254E-03    1.02       7.9  T
   7    -42.6100016 -0.204415E-07  0.117E-03    1.02      17.2  T
   8    -42.6100016 -0.147523E-07  0.453E-04    1.02      44.2  T
   9    -42.6100016 -0.515842E-08  0.159E-04    1.02     126.1  T
     SCC iter.                  ...        0 min,  0.012 sec
     gradient                   ...        0 min,  0.012 sec
 * total energy  :   -42.0697125 Eh     change       -0.1461158E-02 Eh
   gradient norm :     0.0304095 Eh/α   predicted    -0.1295148E-02 ( -11.36%)
   displ. norm   :     0.4345448 α      lambda       -0.2974466E-02
   maximum displ.:     0.2241595 α      in ANC's #2, #4, #1, ...

........................................................................
.............................. CYCLE   34 ..............................
........................................................................

 iter      E             dE          RMSdq      gap      omega  full diag
   1    -42.6069178 -0.426069E+02  0.278E-01    1.08       0.0  T
   2    -42.6068916  0.262391E-04  0.160E-01    1.01       1.0  T
   3    -42.6060607  0.830857E-03  0.191E-01    1.17       1.0  T
   4    -42.6069830 -0.922323E-03  0.447E-02    1.03       1.0  T
   5    -42.6070451 -0.620647E-04  0.142E-02    1.05       1.4  T
   6    -42.6070488 -0.373162E-05  0.516E-03    1.06       3.9  T
   7    -42.6070492 -0.358465E-06  0.205E-03    1.05       9.7  T
   8    -42.6070493 -0.106528E-06  0.448E-04    1.05      44.7  T
   9    -42.6070493 -0.376544E-08  0.222E-04    1.05      90.2  T
     SCC iter.                  ...        0 min,  0.012 sec
     gradient                   ...        0 min,  0.012 sec
 * total energy  :   -42.0711461 Eh     change       -0.1433550E-02 Eh
   gradient norm :     0.0269345 Eh/α   predicted    -0.1768031E-02 (  23.33%)
   displ. norm   :     0.3380771 α      lambda       -0.2145556E-02
   maximum displ.:     0.1830655 α      in ANC's #2, #4, #6, ...

........................................................................
.............................. CYCLE   35 ..............................
........................................................................

 iter      E             dE          RMSdq      gap      omega  full diag
   1    -42.6115781 -0.426116E+02  0.227E-01    1.04       0.0  T
   2    -42.6115760  0.204163E-05  0.136E-01    1.07       1.0  T
   3    -42.6111247  0.451326E-03  0.135E-01    0.98       1.0  T
   4    -42.6115777 -0.452995E-03  0.301E-02    1.07       1.0  T
   5    -42.6116128 -0.350603E-04  0.598E-03    1.05       3.3  T
   6    -42.6116130 -0.265335E-06  0.377E-03    1.05       5.3  T
   7    -42.6116133 -0.281022E-06  0.138E-03    1.05      14.5  T
   8    -42.6116134 -0.460480E-07  0.439E-04    1.05      45.6  T
   9    -42.6116134 -0.307963E-08  0.161E-04    1.05     124.3  T
     SCC iter.                  ...        0 min,  0.012 sec
     gradient                   ...        0 min,  0.012 sec
 * total energy  :   -42.0723633 Eh     change       -0.1217236E-02 Eh
   gradient norm :     0.0187672 Eh/α   predicted    -0.1195394E-02 (  -1.79%)
   displ. norm   :     0.3142611 α      lambda       -0.1655595E-02
   maximum displ.:     0.1878070 α      in ANC's #2, #6, #4, ...

........................................................................
.............................. CYCLE   36 ..............................
........................................................................

 iter      E             dE          RMSdq      gap      omega  full diag
   1    -42.6130083 -0.426130E+02  0.203E-01    1.13       0.0  T
   2    -42.6127776  0.230693E-03  0.149E-01    1.01       1.0  T
   3    -42.6125483  0.229337E-03  0.149E-01    1.18       1.0  T
   4    -42.6131130 -0.564721E-03  0.360E-02    1.09       1.0  T
   5    -42.6131569 -0.438532E-04  0.102E-02    1.08       2.0  T
   6    -42.6131588 -0.188388E-05  0.376E-03    1.08       5.3  T
   7    -42.6131588 -0.788973E-07  0.164E-03    1.08      12.2  T
   8    -42.6131589 -0.304747E-07  0.556E-04    1.08      36.0  T
   9    -42.6131589 -0.655881E-08  0.233E-04    1.08      85.9  T
     SCC iter.                  ...        0 min,  0.012 sec
     gradient                   ...        0 min,  0.012 sec
 * total energy  :   -42.0732642 Eh     change       -0.9008240E-03 Eh
   gradient norm :     0.0145915 Eh/α   predicted    -0.9095522E-03 (   0.97%)
   displ. norm   :     0.2936546 α      lambda       -0.8106533E-03
   maximum displ.:     0.1634430 α      in ANC's #2, #4, #1, ...

........................................................................
.............................. CYCLE   37 ..............................
........................................................................

 iter      E             dE          RMSdq      gap      omega  full diag
   1    -42.6105998 -0.426106E+02  0.215E-01    1.08       0.0  T
   2    -42.6106052 -0.535904E-05  0.128E-01    1.09       1.0  T
   3    -42.6103357  0.269461E-03  0.950E-02    1.03       1.0  T
   4    -42.6106043 -0.268615E-03  0.270E-02    1.10       1.0  T
   5    -42.6106231 -0.188017E-04  0.605E-03    1.08       3.3  T
   6    -42.6106234 -0.286694E-06  0.374E-03    1.09       5.4  T
   7    -42.6106236 -0.226847E-06  0.137E-03    1.08      14.6  T
   8    -42.6106237 -0.650807E-07  0.307E-04    1.08      65.1  T
   9    -42.6106237 -0.420393E-09  0.155E-04    1.08     128.9  T
     SCC iter.                  ...        0 min,  0.012 sec
     gradient                   ...        0 min,  0.012 sec
 * total energy  :   -42.0737751 Eh     change       -0.5108966E-03 Eh
   gradient norm :     0.0191123 Eh/α   predicted    -0.4402794E-03 ( -13.82%)
   displ. norm   :     0.3921286 α      lambda       -0.1016452E-02
   maximum displ.:     0.2175710 α      in ANC's #2, #1, #4, ...

........................................................................
.............................. CYCLE   38 ..............................
........................................................................

 iter      E             dE          RMSdq      gap      omega  full diag
   1    -42.6121850 -0.426122E+02  0.276E-01    1.10       0.0  T
   2    -42.6121989 -0.138991E-04  0.160E-01    1.09       1.0  T
   3    -42.6118929  0.306037E-03  0.104E-01    1.16       1.0  T
   4    -42.6121937 -0.300763E-03  0.283E-02    1.08       1.0  T
   5    -42.6122194 -0.257197E-04  0.726E-03    1.10       2.8  T
   6    -42.6122196 -0.211038E-06  0.456E-03    1.10       4.4  T
   7    -42.6122199 -0.315811E-06  0.140E-03    1.10      14.3  T
   8    -42.6122200 -0.681246E-07  0.480E-04    1.10      41.7  T
   9    -42.6122200 -0.125400E-08  0.238E-04    1.10      83.9  T
     SCC iter.                  ...        0 min,  0.012 sec
     gradient                   ...        0 min,  0.012 sec
 * total energy  :   -42.0745064 Eh     change       -0.7313789E-03 Eh
   gradient norm :     0.0150379 Eh/α   predicted    -0.5863741E-03 ( -19.83%)
   displ. norm   :     0.5032760 α      lambda       -0.1228129E-02
   maximum displ.:     0.3135158 α      in ANC's #2, #5, #7, ...

........................................................................
.............................. CYCLE   39 ..............................
........................................................................

 iter      E             dE          RMSdq      gap      omega  full diag
   1    -42.6101399 -0.426101E+02  0.310E-01    1.06       0.0  T
   2    -42.6101211  0.187211E-04  0.192E-01    1.14       1.0  T
   3    -42.6086857  0.143546E-02  0.204E-01    0.94       1.0  T
   4    -42.6101687 -0.148297E-02  0.621E-02    1.12       1.0  T
   5    -42.6102798 -0.111141E-03  0.131E-02    1.09       1.5  T
   6    -42.6102833 -0.355461E-05  0.617E-03    1.09       3.2  T
   7    -42.6102838 -0.413594E-06  0.243E-03    1.09       8.2  T
   8    -42.6102838 -0.748468E-07  0.591E-04    1.09      33.8  T
   9    -42.6102838 -0.481014E-08  0.320E-04    1.09      62.6  T
     SCC iter.                  ...        0 min,  0.012 sec
     gradient                   ...        0 min,  0.012 sec
 * total energy  :   -42.0750724 Eh     change       -0.5659939E-03 Eh
   gradient norm :     0.0188819 Eh/α   predicted    -0.7696038E-03 (  35.97%)
   displ. norm   :     0.2999248 α      lambda       -0.1013557E-02
   maximum displ.:     0.1392100 α      in ANC's #2, #5, #7, ...

........................................................................
.............................. CYCLE   40 ..............................
........................................................................

 iter      E             dE          RMSdq      gap      omega  full diag
   1    -42.6143557 -0.426144E+02  0.199E-01    1.10       0.0  T
   2    -42.6143015  0.542505E-04  0.130E-01    1.05       1.0  T
   3    -42.6137862  0.515281E-03  0.148E-01    1.18       1.0  T
   4    -42.6143969 -0.610668E-03  0.238E-02    1.07       1.0  T
   5    -42.6144154 -0.185309E-04  0.602E-03    1.09       3.3  T
   6    -42.6144159 -0.522802E-06  0.345E-03    1.09       5.8  T
   7    -42.6144161 -0.139988E-06  0.160E-03    1.09      12.5  T
   8    -42.6144161 -0.551769E-07  0.410E-04    1.09      48.8  T
   9    -42.6144161 -0.320840E-08  0.168E-04    1.09     118.7  T
     SCC iter.                  ...        0 min,  0.012 sec
     gradient                   ...        0 min,  0.013 sec
 * total energy  :   -42.0756767 Eh     change       -0.6042801E-03 Eh
   gradient norm :     0.0126214 Eh/α   predicted    -0.5523681E-03 (  -8.59%)
   displ. norm   :     0.3099388 α      lambda       -0.6310485E-03
   maximum displ.:     0.2040938 α      in ANC's #2, #1, #3, ...

........................................................................
.............................. CYCLE   41 ..............................
........................................................................

 iter      E             dE          RMSdq      gap      omega  full diag
   1    -42.6120243 -0.426120E+02  0.174E-01    1.10       0.0  T
   2    -42.6119826  0.417283E-04  0.107E-01    1.06       1.0  T
   3    -42.6114464  0.536144E-03  0.143E-01    1.18       1.0  T
   4    -42.6120510 -0.604556E-03  0.896E-03    1.09       2.2  T
   5    -42.6120524 -0.138617E-05  0.472E-03    1.09       4.2  T
   6    -42.6120527 -0.288938E-06  0.263E-03    1.09       7.6  T
   7    -42.6120528 -0.118875E-06  0.864E-04    1.09      23.2  T
   8    -42.6120528 -0.187137E-07  0.245E-04    1.09      81.6  T
     SCC iter.                  ...        0 min,  0.011 sec
     gradient                   ...        0 min,  0.012 sec
 * total energy  :   -42.0760621 Eh     change       -0.3853713E-03 Eh
   gradient norm :     0.0137420 Eh/α   predicted    -0.3458379E-03 ( -10.26%)
   displ. norm   :     0.2561978 α      lambda       -0.6299784E-03
   maximum displ.:     0.1345520 α      in ANC's #2, #1, #6, ...

........................................................................
.............................. CYCLE   42 ..............................
........................................................................

 iter      E             dE          RMSdq      gap      omega  full diag
   1    -42.6189225 -0.426189E+02  0.117E-01    1.06       0.0  T
   2    -42.6188966  0.258357E-04  0.787E-02    1.11       1.0  T
   3    -42.6186804  0.216213E-03  0.876E-02    1.02       1.0  T
   4    -42.6189352 -0.254764E-03  0.249E-02    1.09       1.0  T
   5    -42.6189507 -0.154933E-04  0.530E-03    1.08       3.8  T
   6    -42.6189513 -0.659338E-06  0.182E-03    1.08      11.0  T
   7    -42.6189513 -0.771167E-08  0.595E-04    1.08      33.6  T
   8    -42.6189513 -0.558185E-08  0.163E-04    1.08     122.4  T
     SCC iter.                  ...        0 min,  0.011 sec
     gradient                   ...        0 min,  0.012 sec
 * total energy  :   -42.0763553 Eh     change       -0.2932093E-03 Eh
   gradient norm :     0.0106484 Eh/α   predicted    -0.3356686E-03 (  14.48%)
   displ. norm   :     0.4486867 α      lambda       -0.5409854E-03
   maximum displ.:     0.2861081 α      in ANC's #2, #1, #5, ...
 * RMSD in coord.:     1.0205800 α      energy gain  -0.3923935E+00 Eh

generating ANC from model Hessian ...
Using Lindh-Hessian (1995)
 Shifting diagonal of input Hessian by    9.9893374712825885E-003
 Lowest  eigenvalues of input Hessian
    0.000000    0.000000    0.000000    0.000000    0.000000    0.000000
    0.010000    0.010354    0.010521    0.010851    0.011198    0.013966
    0.015308    0.017755    0.020622    0.021711    0.023654    0.028499
 Highest eigenvalues
    2.031859    2.135028    2.174343    2.403472    2.455366    3.296219


........................................................................
.............................. CYCLE   43 ..............................
........................................................................

 iter      E             dE          RMSdq      gap      omega  full diag
   1    -42.6145325 -0.426145E+02  0.242E-01    1.09       0.0  T
   2    -42.6145341 -0.154913E-05  0.140E-01    1.07       1.0  T
   3    -42.6141030  0.431068E-03  0.115E-01    1.16       1.0  T
   4    -42.6145492 -0.446173E-03  0.220E-02    1.08       1.0  T
   5    -42.6145595 -0.102990E-04  0.665E-03    1.09       3.0  T
   6    -42.6145595 -0.539332E-08  0.422E-03    1.09       4.7  T
   7    -42.6145599 -0.402916E-06  0.117E-03    1.08      17.0  T
   8    -42.6145599 -0.473300E-07  0.310E-04    1.09      64.5  T
   9    -42.6145599 -0.211891E-09  0.175E-04    1.08     114.1  T
     SCC iter.                  ...        0 min,  0.013 sec
     gradient                   ...        0 min,  0.021 sec
 * total energy  :   -42.0765746 Eh     change       -0.2192823E-03 Eh
   gradient norm :     0.0129403 Eh/α   predicted     0.0000000E+00 (-100.00%)
   displ. norm   :     0.0979026 α      lambda       -0.3681990E-03
   maximum displ.:     0.0623303 α      in ANC's #4, #2, #5, ...

........................................................................
.............................. CYCLE   44 ..............................
........................................................................

 iter      E             dE          RMSdq      gap      omega  full diag
   1    -42.6157883 -0.426158E+02  0.674E-02    1.07       0.0  T
   2    -42.6157733  0.149895E-04  0.491E-02    1.10       1.0  T
   3    -42.6157181  0.551445E-04  0.503E-02    1.05       1.0  T
   4    -42.6157964 -0.782194E-04  0.131E-02    1.09       1.5  T
   5    -42.6158005 -0.412221E-05  0.324E-03    1.08       6.2  T
   6    -42.6158006 -0.149946E-06  0.155E-03    1.08      12.9  T
   7    -42.6158007 -0.218433E-07  0.400E-04    1.08      50.0  T
   8    -42.6158007 -0.270244E-08  0.135E-04    1.08     148.1  T
     SCC iter.                  ...        0 min,  0.011 sec
     gradient                   ...        0 min,  0.025 sec
 * total energy  :   -42.0768237 Eh     change       -0.2491198E-03 Eh
   gradient norm :     0.0042357 Eh/α   predicted    -0.1858662E-03 ( -25.39%)
   displ. norm   :     0.1608108 α      lambda       -0.2368620E-03
   maximum displ.:     0.1118122 α      in ANC's #4, #2, #5, ...

........................................................................
.............................. CYCLE   45 ..............................
........................................................................

 iter      E             dE          RMSdq      gap      omega  full diag
   1    -42.6161636 -0.426162E+02  0.103E-01    1.07       0.0  T
   2    -42.6161553  0.836364E-05  0.647E-02    1.10       1.0  T
   3    -42.6159152  0.240100E-03  0.829E-02    1.02       1.0  T
   4    -42.6161726 -0.257392E-03  0.113E-02    1.08       1.8  T
   5    -42.6161753 -0.272351E-05  0.394E-03    1.08       5.1  T
   6    -42.6161755 -0.234863E-06  0.207E-03    1.08       9.6  T
   7    -42.6161756 -0.498125E-07  0.422E-04    1.08      47.4  T
   8    -42.6161756 -0.440124E-08  0.152E-04    1.08     131.2  T
     SCC iter.                  ...        0 min,  0.024 sec
     gradient                   ...        0 min,  0.025 sec
 * total energy  :   -42.0769815 Eh     change       -0.1578513E-03 Eh
   gradient norm :     0.0061380 Eh/α   predicted    -0.1214944E-03 ( -23.03%)
   displ. norm   :     0.1887924 α      lambda       -0.1877646E-03
   maximum displ.:     0.1328025 α      in ANC's #4, #2, #5, ...

........................................................................
.............................. CYCLE   46 ..............................
........................................................................

 iter      E             dE          RMSdq      gap      omega  full diag
   1    -42.6156464 -0.426156E+02  0.126E-01    1.07       0.0  T
   2    -42.6156434  0.292755E-05  0.759E-02    1.09       1.0  T
   3    -42.6154174  0.226081E-03  0.782E-02    1.02       1.0  T
   4    -42.6156522 -0.234881E-03  0.883E-03    1.08       2.3  T
   5    -42.6156538 -0.157408E-05  0.330E-03    1.08       6.1  T
   6    -42.6156539 -0.101435E-06  0.204E-03    1.08       9.8  T
   7    -42.6156540 -0.695430E-07  0.388E-04    1.08      51.5  T
   8    -42.6156540 -0.301500E-08  0.161E-04    1.08     124.3  T
     SCC iter.                  ...        0 min,  0.025 sec
     gradient                   ...        0 min,  0.026 sec
 * total energy  :   -42.0770876 Eh     change       -0.1060211E-03 Eh
   gradient norm :     0.0079503 Eh/α   predicted    -0.9723076E-04 (  -8.29%)
   displ. norm   :     0.1442698 α      lambda       -0.1492333E-03
   maximum displ.:     0.1031667 α      in ANC's #4, #2, #8, ...

........................................................................
[...]
O            0.89847499949323        1.89874812396210        0.10491041595433
N           -1.09226280971377        0.75865238400186        0.03220291476897
C           -1.81841983588543        2.02247286381008        0.00390393290682
C           -1.90385461900894       -0.34767942007398       -0.00522612059345
O           -3.09965560673626       -0.28721941552872       -0.05646834809863
N           -1.27504527764924       -1.65501120975626        0.01964893023362
C           -2.11542035293282       -2.82861843543939       -0.03418700485143
H            3.35014393571269        2.03098939989586        1.26565951349479
H            3.99925186293908        1.54925239703764       -1.54637564506490
H            3.24191905924940        3.29740464649815       -0.06360156334633
H            3.03994308131876       -1.30953831938387        0.15910868977073
H           -1.09136566413859        2.82965027995393        0.04025298466597
H           -2.41294764063403        2.09030501752566       -0.90732756681165
H           -2.49279045426784        2.08300328095102        0.85808207997068
H           -1.92899613106356       -3.46580064642031        0.82910310011195
H           -1.91983152850262       -3.38980046856780       -0.94794623738398
H           -3.15379222618990       -2.49756034067080       -0.02790932694131
H            1.27755558022006       -3.47333886856563        0.14919843554979

 Bond Distances (Angstroems)
 ---------------------------
C1-N2=1.2408         C1-H15=1.0832        C1-H17=1.0938        N2-C1=1.2408         N2-H16=1.0145        C3-N4=1.4113         
C3-C6=1.4024         C3-H18=1.0682        N4-C3=1.4113         N4-C5=1.3798         N4-H25=1.0051        C5-N4=1.3798         
C5-C6=1.4403         C5-N13=1.3055        C6-C3=1.4024         C6-C5=1.4403         C6-C7=1.4234         C7-C6=1.4234         
C7-O8=1.2114         C7-N9=1.4195         O8-C7=1.2114         N9-C7=1.4195         N9-C10=1.4579        N9-C11=1.3726        
C10-N9=1.4579        C10-H19=1.0870       C10-H20=1.0901       C10-H21=1.0900       C11-N9=1.3726        C11-O12=1.1984       
C11-N13=1.4509       O12-C11=1.1984       N13-C5=1.3055        N13-C11=1.4509       N13-C14=1.4445       C14-N13=1.4445       
C14-H22=1.0890       C14-H23=1.0900       C14-H24=1.0899       H15-C1=1.0832        H16-N2=1.0145        H17-C1=1.0938        
H18-C3=1.0682        H19-C10=1.0870       H20-C10=1.0901       H21-C10=1.0900       H22-C14=1.0890       H23-C14=1.0900       
H24-C14=1.0899       H25-N4=1.0051        
 C  H  Rav=1.0868 sigma=0.0071  Rmin=1.0682  Rmax=1.0938     9
 C  C  Rav=1.4220 sigma=0.0155  Rmin=1.4024  Rmax=1.4403     3
 N  H  Rav=1.0098 sigma=0.0047  Rmin=1.0051  Rmax=1.0145     2
 N  C  Rav=1.3870 sigma=0.0686  Rmin=1.2408  Rmax=1.4579     9
 O  C  Rav=1.2049 sigma=0.0065  Rmin=1.1984  Rmax=1.2114     2

 selected bond angles (degree)
 --------------------
H15-C1-N2=118.91               H17-C1-N2=125.77               H17-C1-H15=115.30              H16-N2-C1=121.75               
C6-C3-N4= 91.59                H18-C3-N4=129.18               H18-C3-C6=139.21               C5-N4-C3= 89.57                
H25-N4-C3=134.24               H25-N4-C5=135.91               C6-C5-N4= 91.30                N13-C5-N4=142.23               
N13-C5-C6=126.45               C5-C6-C3= 87.53                C7-C6-C3=151.27                C7-C6-C5=121.19                
O8-C7-C6=128.89                N9-C7-C6=109.83                N9-C7-O8=121.28                C10-N9-C7=116.93               
C11-N9-C7=129.26               C11-N9-C10=113.81              H19-C10-N9=108.06              H20-C10-N9=109.99              
H20-C10-H19=110.28             H21-C10-N9=109.94              H21-C10-H19=110.27             H21-C10-H20=108.31             

 selected dihedral angles (degree)
 ---------------------------------
H16-N2-C1-H15=180.89          H16-N2-C1-H17=359.32          C5-N4-C3-C6=359.55            C5-N4-C3-H18=180.66           
H25-N4-C3-C6=185.17           H25-N4-C3-H18=  6.28          C6-C5-N4-C3=  0.43            C6-C5-N4-H25=174.65           
N13-C5-N4-C3=178.68           N13-C5-N4-H25=352.90          C5-C6-C3-N4=  0.43            C5-C6-C3-H18=179.11           
C7-C6-C3-N4=182.01            C7-C6-C3-H18=  0.70           C3-C6-C5-N4=359.56            C3-C6-C5-N13=180.90           
C7-C6-C5-N4=178.67            C7-C6-C5-N13=  0.00           O8-C7-C6-C3=358.32            O8-C7-C6-C5=180.17            
N9-C7-C6-C3=178.51            N9-C7-C6-C5=  0.36            C10-N9-C7-C6=179.83           C10-N9-C7-O8=  0.00           
C11-N9-C7-C6=359.37           C11-N9-C7-O8=179.55           H19-C10-N9-C7=359.43          H19-C10-N9-C11=179.82         
H20-C10-N9-C7=119.86          H20-C10-N9-C11=300.25         H21-C10-N9-C7=239.04          H21-C10-N9-C11= 59.43         
           -------------------------------------------------
          |                Final Singlepoint                |
           -------------------------------------------------

          ...................................................
          :                      SETUP                      :
          :.................................................:
          :  # basis functions                  67          :
          :  # atomic orbitals                  67          :
          :  # shells                           39          :
          :  # electrons                        74          :
          :  max. iterations                   250          :
          :  Hamiltonian                  GFN2-xTB          :
          :  restarted?                      false          :
          :  GBSA solvation                  false          :
          :  PC potential                    false          :
          :  electronic temp.         5000.0000000     K    :
          :  accuracy                    1.0000000          :
          :  -> integral cutoff          0.2500000E+02      :
          :  -> integral neglect         0.1000000E-07      :
          :  -> SCF convergence          0.1000000E-05 Eh   :
          :  -> wf. convergence          0.1000000E-03 e    :
          :  Broyden damping             0.4000000          :
          ...................................................

 iter      E             dE          RMSdq      gap      omega  full diag
   1    -42.6167871 -0.426168E+02  0.836E-05    1.07       0.0  T
   2    -42.6167871  0.643894E-10  0.791E-05    1.07     252.7  T
   3    -42.6167871 -0.140794E-09  0.416E-05    1.07     480.9  T

   *** convergence criteria satisfied after 3 iterations ***

         #    Occupation            Energy/Eh            Energy/eV
      -------------------------------------------------------------
         1        2.0000           -0.8858976             -24.1065
       ...           ...                  ...                  ...
        31        1.9968           -0.6081845             -16.5495
        32        1.9955           -0.6031160             -16.4116
        33        1.9885           -0.5881682             -16.0049
        34        1.9561           -0.5666519             -15.4194
        35        1.9492           -0.5642737             -15.3547
        36        1.8765           -0.5496033             -14.9555
        37        1.6588           -0.5315586             -14.4644 (HOMO)
        38        0.5793           -0.4923138             -13.3965 (LUMO)
        39        0.0022           -0.3990185             -10.8578
        40        0.0013           -0.3905262             -10.6268
        41        0.0004           -0.3719089             -10.1202
        42        0.0000           -0.2751977              -7.4885
       ...           ...                  ...                  ...
        67                          0.6610197              17.9873
      -------------------------------------------------------------
                  HL-Gap            0.0392448 Eh            1.0679 eV
             Fermi-level           -0.5065180 Eh          -13.7831 eV

 SCC (total)                   0 d,  0 h,  0 min,  0.023 sec
 SCC setup                      ...        0 min,  0.000 sec (  0.843%)
 Dispersion                     ...        0 min,  0.000 sec (  0.813%)
 classical contributions        ...        0 min,  0.000 sec (  0.309%)
 integral evaluation            ...        0 min,  0.005 sec ( 21.344%)
 iterations                     ...        0 min,  0.005 sec ( 20.144%)
 molecular gradient             ...        0 min,  0.013 sec ( 55.941%)
 printout                       ...        0 min,  0.000 sec (  0.543%)

         :::::::::::::::::::::::::::::::::::::::::::::::::::::
         ::                     SUMMARY                     ::
         :::::::::::::::::::::::::::::::::::::::::::::::::::::
         :: total energy             -42.077289466478 Eh    ::
         :: gradient norm              0.003122450711 Eh/a0 ::
         :: HOMO-LUMO gap              1.067904883756 eV    ::
         ::.................................................::
         :: SCC energy               -42.616787114910 Eh    ::
         :: -> isotropic ES            0.134194152854 Eh    ::
         :: -> anisotropic ES         -0.008441353379 Eh    ::
         :: -> anisotropic XC          0.020472374721 Eh    ::
         :: -> dispersion             -0.020613121976 Eh    ::
         :: repulsion energy           0.539388684510 Eh    ::
         :: add. restraining           0.000000000445 Eh    ::
         :: total charge               1.000000000078 e     ::
         :::::::::::::::::::::::::::::::::::::::::::::::::::::

           -------------------------------------------------
          |                Property Printout                |
           -------------------------------------------------

    * Orbital Energies and Occupations

         #    Occupation            Energy/Eh            Energy/eV
      -------------------------------------------------------------
         1        2.0000           -0.8858976             -24.1065
       ...           ...                  ...                  ...
        25        1.9999           -0.6596953             -17.9512
        26        1.9996           -0.6408650             -17.4388
        27        1.9993           -0.6333200             -17.2335
        28        1.9992           -0.6303552             -17.1528
        29        1.9988           -0.6236450             -16.9702
        30        1.9987           -0.6228506             -16.9486
        31        1.9968           -0.6081845             -16.5495
        32        1.9955           -0.6031160             -16.4116
        33        1.9885           -0.5881682             -16.0049
        34        1.9561           -0.5666519             -15.4194
        35        1.9492           -0.5642737             -15.3547
        36        1.8765           -0.5496033             -14.9555
        37        1.6588           -0.5315586             -14.4644 (HOMO)
        38        0.5793           -0.4923138             -13.3965 (LUMO)
        39        0.0022           -0.3990185             -10.8578
        40        0.0013           -0.3905262             -10.6268
        41        0.0004           -0.3719089             -10.1202
        42        0.0000           -0.2751977              -7.4885
        43                         -0.2235242              -6.0824
        44                         -0.1832037              -4.9852
        45                         -0.1667013              -4.5362
        46                         -0.1035673              -2.8182
        47                         -0.0710444              -1.9332
        48                         -0.0416121              -1.1323
       ...                                ...                  ...
        67                          0.6610197              17.9873
      -------------------------------------------------------------
                  HL-Gap            0.0392448 Eh            1.0679 eV
             Fermi-level           -0.5065180 Eh          -13.7831 eV

     #   Z          covCN         q      C6AA      α(0)
     1   6 C        2.760     0.065    26.524     8.434
     2   7 N        1.770    -0.178    25.637     7.497
     3   6 C        3.375     0.053    23.622     7.585
     4   7 N        2.998    -0.103    23.250     7.161
     5   6 C        3.411     0.144    21.199     7.080
     6   6 C        3.280    -0.068    28.163     8.540
     7   6 C        2.759     0.279    22.272     7.728
     8   8 O        0.857    -0.367    21.041     6.150
     9   7 N        2.748    -0.079    22.766     7.087
    10   6 C        3.713    -0.062    21.833     6.677
    11   6 C        2.743     0.317    21.608     7.611
    12   8 O        0.859    -0.334    20.396     6.055
    13   7 N        2.731    -0.012    21.481     6.884
    14   6 C        3.694    -0.076    22.132     6.731
    15   1 H        0.925     0.123     1.593     1.974
    16   1 H        0.860     0.204     1.085     1.632
    17   1 H        0.924     0.115     1.651     2.010
    18   1 H        0.927     0.123     1.592     1.973
    19   1 H        0.925     0.114     1.661     2.016
    20   1 H        0.925     0.101     1.780     2.086
    21   1 H        0.925     0.101     1.775     2.083
    22   1 H        0.925     0.100     1.784     2.089
    23   1 H        0.925     0.102     1.771     2.081
    24   1 H        0.925     0.131     1.527     1.933
    25   1 H        0.860     0.207     1.071     1.621

 Mol. C6AA /au·bohr⁶  :       6503.574196
 Mol. C8AA /au·bohr⁸  :     149397.776195
 Mol. α(0) /au        :        122.716325


Wiberg/Mayer (AO) data.
largest (>0.10) Wiberg bond orders for each atom

 ---------------------------------------------------------------------------
     #   Z sym  total        # sym  WBO       # sym  WBO       # sym  WBO
 ---------------------------------------------------------------------------
     1   6 C    3.875 --     2 N    2.033    15 H    0.927    17 H    0.894
     2   7 N    2.968 --     1 C    2.033    16 H    0.912
     3   6 C    3.558 --     6 C    1.360     4 N    1.108    18 H    0.957
     4   7 N    3.424 --     5 C    1.146     3 C    1.108    25 H    0.928
     5   6 C    3.745 --    13 N    1.390     4 N    1.146     6 C    1.082
     6   6 C    3.823 --     3 C    1.360     7 C    1.131     5 C    1.082
     7   6 C    3.938 --     8 O    1.665     6 C    1.131     9 N    1.047
     8   8 O    1.995 --     7 C    1.665     9 N    0.116
     9   7 N    3.524 --    11 C    1.170     7 C    1.047    10 C    0.971
                            12 O    0.143     8 O    0.116
    10   6 C    3.900 --     9 N    0.971    19 H    0.965    21 H    0.959
                            20 H    0.959
    11   6 C    3.932 --    12 O    1.719     9 N    1.170    13 N    0.954
    12   8 O    2.042 --    11 C    1.719     9 N    0.143
    13   7 N    3.558 --     5 C    1.390    14 C    0.975    11 C    0.954
    14   6 C    3.913 --    13 N    0.975    24 H    0.962    22 H    0.961
                            23 H    0.958
    15   1 H    0.948 --     1 C    0.927
    16   1 H    0.934 --     2 N    0.912
    17   1 H    0.904 --     1 C    0.894
    18   1 H    0.984 --     3 C    0.957
    19   1 H    0.984 --    10 C    0.965
    20   1 H    0.977 --    10 C    0.959
    21   1 H    0.977 --    10 C    0.959
    22   1 H    0.982 --    14 C    0.961
    23   1 H    0.981 --    14 C    0.958
    24   1 H    0.982 --    14 C    0.962
    25   1 H    0.955 --     4 N    0.928
 ---------------------------------------------------------------------------

Topologies differ in total number of bonds
Writing topology from bond orders to xtbtopo.mol

molecular dipole:
                 x           y           z       tot (Debye)
 q only:        1.609      -1.433      -0.034
   full:        1.731      -1.691      -0.092       6.155
molecular quadrupole (traceless):
                xx          xy          yy          xz          yz          zz
 q only:        5.561       9.710      15.314      -1.543      -0.967     -20.874
  q+dip:       -0.283       9.627      18.737      -2.820      -2.263     -18.453
   full:       -0.767      10.373      17.817      -2.656      -2.215     -17.050

           -------------------------------------------------
          |                Geometry Summary                 |
           -------------------------------------------------

      molecular mass/u    :      195.1988581
   center of mass at/Å    :        0.0686752      -0.1073950       0.0095000
  moments of inertia/u·Å² :        0.4648651E+03   0.9792121E+03   0.1418420E+04
rotational constants/cm⁻¹ :        0.3626349E-01   0.1721551E-01   0.1188479E-01

 * 23 selected distances

     #   Z          #   Z                                           value/Å
     1   6 C        2   7 N                                       1.2407712
     3   6 C        4   7 N                                       1.4113314
     4   7 N        5   6 C                                       1.3798443
     3   6 C        6   6 C                                       1.4024251
     5   6 C        6   6 C                                       1.4403048
     6   6 C        7   6 C                                       1.4234034
     7   6 C        8   8 O                                       1.2113816
     7   6 C        9   7 N                                       1.4194637
     9   7 N       10   6 C                                       1.4578571 (max)
     9   7 N       11   6 C                                       1.3726080
    11   6 C       12   8 O                                       1.1984246
     5   6 C       13   7 N                                       1.3055410
    13   7 N       14   6 C                                       1.4444663
     1   6 C       15   1 H                                       1.0831673
     1   6 C       17   1 H                                       1.0938364
     3   6 C       18   1 H                                       1.0681898
    10   6 C       19   1 H                                       1.0869520
    10   6 C       20   1 H                                       1.0901411
    10   6 C       21   1 H                                       1.0899817
    14   6 C       22   1 H                                       1.0890478
    14   6 C       23   1 H                                       1.0900167
    14   6 C       24   1 H                                       1.0898877
     4   7 N       25   1 H                                       1.0051175 (min)

 * 5 distinct bonds (by element types)

   Z      Z             #   av. dist./Å        max./Å        min./Å
   1 H    6 C           9     1.0868023     1.0938364     1.0681898
   6 C    6 C           3     1.4220444     1.4403048     1.4024251
   1 H    7 N           1     1.0051175     1.0051175     1.0051175
   6 C    7 N           8     1.3789854     1.4578571     1.2407712
   6 C    8 O           2     1.2049031     1.2113816     1.1984246


optimized geometry written to: xtbopt.xyz


           -------------------------------------------------
          | TOTAL ENERGY              -42.077289466478 Eh   |
          | GRADIENT NORM               0.003122450711 Eh/α |
          | HOMO-LUMO GAP               1.067904883756 eV   |
           -------------------------------------------------

------------------------------------------------------------------------
 * finished run on 2024/06/05 at 19:57:52.829     
------------------------------------------------------------------------
 total:
 * wall-time:     0 d,  0 h,  0 min,  1.912 sec
 *  cpu-time:     0 d,  0 h,  0 min,  1.749 sec
 * ratio c/w:     0.914 speedup
 SCF:
 * wall-time:     0 d,  0 h,  0 min,  0.042 sec
 *  cpu-time:     0 d,  0 h,  0 min,  0.042 sec
 * ratio c/w:     1.000 speedup
 ANC optimizer:
 * wall-time:     0 d,  0 h,  0 min,  1.842 sec
 *  cpu-time:     0 d,  0 h,  0 min,  1.692 sec
 * ratio c/w:     0.918 speedup

