25
 energy: 0.000000000000 xtb: 6.6.1 (8d0f1dd)
C            3.23720163006194        1.16630919979326        0.08434469647475
N            2.29877817382611        0.07527477071623        0.03981603040599
C            2.58028210190900       -1.21425402444508        0.03006176031096
N            1.43813958087363       -1.93419271955128        0.00098261760884
C            0.39035688448383       -1.05887472636071       -0.00790371836672
C            0.93510056364412        0.21347819449412        0.01709077491437
C            0.09450143893243        1.40504303904423       -0.00410947031874
O            0.49712751527797        2.54126714362870       -0.00342325688240
N           -1.25076640035757        1.06271879480407       -0.03085478223738
C           -2.21907211982101        2.15522099834493       -0.05001256985998
C           -1.81739487048744       -0.20012725993278       -0.04692818574614
O           -2.99983886758376       -0.37846417018721       -0.07008878229737
N           -0.92618586207120       -1.30210215599479       -0.03682761578324
C           -1.46982264913417       -2.64643102187190       -0.06029820460571
H            3.71247264356769        1.21471455160235        1.06488849150277
H            4.00791497605742        1.03430808813993       -0.67357694370751
H            2.69910007168542        2.09770118228144       -0.09130154882931
H            3.56654120610678       -1.63682992603973        0.04233140067262
H           -1.67107961066214        3.09322851271934       -0.02552706933167
H           -2.82428953597071        2.09428624779827       -0.95318082946668
H           -2.87644029173232        2.07745725625962        0.81450067533302
H           -1.17061996399332       -3.19584890659852        0.83242232437030
H           -1.14560257411436       -3.17511610292205       -0.95688275822323
H           -2.55549792440841       -2.55659984320617       -0.07459039797972
H            1.38130855184625       -2.94313852034425       -0.01389874181052
25
 energy: -5.163890342879 xtb: 6.6.1 (8d0f1dd)
C            3.23879159620662        1.18597776575774        0.07681957579233
N            2.31218282231163        0.09661731098765        0.03150957675181
C            2.61852410658509       -1.23101939884934        0.02787783895573
N            1.43753863160171       -1.94233277408941       -0.00040041748427
C            0.40055106284143       -1.06171416389236       -0.01012810984172
C            0.93255160290544        0.21693185061050        0.00995096236942
C            0.10160847927844        1.38942734500695       -0.00336518992811
O            0.50125165726008        2.55386803946872        0.00118620938089
N           -1.26161762494370        1.04873534959402       -0.02713249632898
C           -2.22129004883582        2.14715778266815       -0.04152232171990
C           -1.82450983083604       -0.20238499790360       -0.04596023913855
O           -3.02154709611929       -0.38367130121578       -0.06841553572630
N           -0.93384293161926       -1.30352710970599       -0.03776279297641
C           -1.48205208185806       -2.64186753970216       -0.06281078879118
H            3.66129704422123        1.27593363935765        1.08115840452397
H            4.06747394930784        0.99474724593552       -0.62860535543535
H            2.69812441028214        2.10575688306128       -0.15250912197255
H            3.60433128129902       -1.65188695420703        0.03566891092523
H           -1.66043980156088        3.07892912683447       -0.01487056172978
H           -2.82850799411318        2.09818571030690       -0.94512099619694
H           -2.87926874876175        2.07665604082213        0.82415634715167
H           -1.18406844054420       -3.19640540536608        0.82879171284598
H           -1.15830936524997       -3.17327189359410       -0.95965043260725
H           -2.56744821398411       -2.54498169988506       -0.07750438826834
H            1.36089020226179       -2.94683224982876       -0.01432689440405
25
 energy: 1.697687724784 xtb: 6.6.1 (8d0f1dd)
C            3.23930314724245        1.22308795498624        0.05772535828766
N            2.33642079575634        0.12964167607097        0.00700728459403
C            2.69389656757867       -1.25841993274789        0.02186552977900
N            1.44257625635555       -1.95310590408877       -0.00198053509051
C            0.42254820760859       -1.07119829763585       -0.01720177407483
C            0.92989050898888        0.21830135840271       -0.00975395885392
C            0.11621154730543        1.35181010943967       -0.00402627630937
O            0.49839419616991        2.55563809575392        0.00895145612636
N           -1.28301125114319        1.02173995672907       -0.01843083218098
C           -2.22402578384231        2.13254151890156       -0.01650899513664
C           -1.83186393924080       -0.20871966963992       -0.04426817744033
O           -3.04695015865180       -0.39778127806330       -0.06567387958860
N           -0.94378169796775       -1.30643794826975       -0.04110967105548
C           -1.51120532030522       -2.63103044102017       -0.07054798580248
H            3.51271024803352        1.44730179658887        1.12561947785518
H            4.22008596539745        0.89147128084768       -0.49329903513876
H            2.70955785675786        2.11687441352651       -0.33448539994898
H            3.68220945659634       -1.67211379585373        0.01731873458817
H           -1.63535139795116        3.04940131942011        0.02071769102967
H           -2.83673401403397        2.11331296404515       -0.92002345785832
H           -2.88371660454387        2.07072938426790        0.85035364926566
H           -1.21865791518674       -3.20157418702871        0.81535977629382
H           -1.20189134144928       -3.16802943697300       -0.97179797630762
H           -2.59630303445857       -2.51253620738376       -0.07905591002071
H            1.32190237291998       -2.95187612810348       -0.00972119686469
25
 energy: 30.744024851086 xtb: 6.6.1 (8d0f1dd)
C            3.23722836525860        1.26225464048298        0.03847843598524
N            2.36248746223139        0.16064946175679       -0.02024685154674
C            2.77974038105509       -1.28776875978757        0.01489786134517
N            1.45368968263221       -1.96663723021231        0.00199128985008
C            0.44846169458946       -1.08660267784672       -0.02490805791323
C            0.92957317515433        0.21474561117873       -0.03075789908865
C            0.13125213515826        1.31175597918482       -0.00875720520406
O            0.49273295437680        2.55017626835427        0.00726223765776
N           -1.30632850339242        0.99612361417762       -0.01300437736905
C           -2.22664697917818        2.11978600965756        0.01287382185324
C           -1.83665538198620       -0.21677679711132       -0.04717065995292
O           -3.06707451912051       -0.41552214147262       -0.07040170730448
N           -0.95073066418948       -1.31160067245343       -0.04650723682601
C           -1.54617394759009       -2.61996326786182       -0.08040682999136
H            3.34456684640044        1.64387046653289        1.15833995918622
H            4.37397523082645        0.78888597549123       -0.33476321611885
H            2.73446426612948        2.12399254985481       -0.52990507504220
H            3.77384194853937       -1.68980689679775       -0.00122753232652
H           -1.60907737297392        3.01986915104059        0.07200074861287
H           -2.84349978272086        2.13998562871600       -0.89146453200430
H           -2.88971311153682        2.05719445263517        0.87859368414748
H           -1.25276843007384       -3.21288229178750        0.79303114411173
H           -1.26984000063935       -3.15980504041494       -0.99373984100774
H           -2.63097620565790       -2.47277938266607       -0.06666796375100
H            1.27968542464408       -2.96011604847939        0.00949369884472
25
 energy: 64.698008987823 xtb: 6.6.1 (8d0f1dd)
C            3.22447093352673        1.30029509763419        0.02467034298117
N            2.38542276846748        0.18105604490011       -0.03910573863003
C            2.86761384696789       -1.31245538210907        0.00544034993330
N            1.47555866937024       -1.98483288881603        0.00941115919229
C            0.47486395172384       -1.11044241058788       -0.02763597017497
C            0.93518576477768        0.20028307818800       -0.04115109465791
C            0.13956079372466        1.28311340215031       -0.00757176055373
O            0.48560404736159        2.53321022915970        0.00388232702665
N           -1.32758503032315        0.98320406326874       -0.00898334014038
C           -2.23019195537324        2.11516225041903        0.03606460281231
C           -1.83723095473758       -0.22663001448999       -0.05300865069487
O           -3.07297752999453       -0.43437985289413       -0.08302889327896
N           -0.95056256201677       -1.32121443815210       -0.05025520522588
C           -1.58459586947753       -2.61279105591290       -0.08890514279179
H            3.20286504726599        1.81463511583896        1.13904925732438
H            4.48115908617932        0.72338782428434       -0.19127721557426
H            2.77706888275848        2.12668951664851       -0.66643092112547
H            3.87459249443858       -1.69646390580269       -0.02155188334821
H           -1.59142498136394        2.99990792138885        0.11817455896754
H           -2.84552936869267        2.16862332939820       -0.86977598495987
H           -2.89924162725072        2.04473964704702        0.89713743455905
H           -1.29955031432982       -3.22701526081989        0.77315696663179
H           -1.34889464614540       -3.15509998564316       -1.01436209382617
H           -2.66802172437472       -2.43015005661447       -0.05393488282833
H            1.24405494545407       -2.97380366631160        0.03702567452978
25
 energy: 90.124028960070 xtb: 6.6.1 (8d0f1dd)
C            3.19674246406897        1.33873259341266        0.01639355915166
N            2.40023565112680        0.19100036656099       -0.04737031822690
C            2.95308635764394       -1.32516697490154       -0.00601002324751
N            1.50671482912801       -2.00652164613972        0.01183686962106
C            0.49652194191790       -1.13975242239187       -0.02697823700817
C            0.94706025944168        0.17512332121828       -0.04147025494959
C            0.13815173465068        1.27376156631731        0.00160477423471
O            0.47876772490107        2.50108030899243        0.01005043069420
N           -1.34272712841905        0.98773501894364       -0.00258897969369
C           -2.23445110413241        2.12000227461112        0.05276183567056
C           -1.83563734527143       -0.23739557470728       -0.05754017004842
O           -3.06385406715267       -0.44753040224642       -0.09422686147463
N           -0.94351238421995       -1.33457950963790       -0.05143190379927
C           -1.62138295340080       -2.61199352687911       -0.09448816799677
H            3.06768910277516        1.95218569827556        1.06250795825101
H            4.55715380262302        0.67595555263237       -0.04964053930028
H            2.84016364583736        2.11805519336122       -0.75782352650424
H            3.97938686868006       -1.68635439541124       -0.04433167439306
H           -1.58744203154744        2.99283909681790        0.14865945693011
H           -2.84407828024783        2.19018660796291       -0.85268003068422
H           -2.90953987781661        2.03966932944238        0.90792632141300
H           -1.36149842347062       -3.23885973975510        0.76301035532017
H           -1.41935995963783       -3.15534602359499       -1.02496977604725
H           -2.70106955660218       -2.39424969518433       -0.05370793269514
H            1.21509339706069       -2.98954841552725        0.05754073093008
25
 energy: 95.161239241458 xtb: 6.6.1 (8d0f1dd)
C            3.15519275976634        1.37121265956779        0.02814205741285
N            2.39454494655571        0.18220992067216       -0.03262627123213
C            3.00036512263499       -1.30121903645813       -0.01155319959652
N            1.53784435055645       -2.02419773567662        0.00192901414200
C            0.49562562490853       -1.15995352714520       -0.02539778750499
C            0.96723165879596        0.14426073675882       -0.03206887699921
C            0.12381341328290        1.29414399517088        0.01105992074755
O            0.47978188849742        2.44738175265360        0.03092441628254
N           -1.32929793272556        1.00804461042211        0.00482885101255
C           -2.23252087823542        2.12972565937600        0.06105423870206
C           -1.83489462463251       -0.24806170874505       -0.05545220639579
O           -3.03876549344190       -0.43833640259557       -0.09404592390357
N           -0.92905786057365       -1.34783425259574       -0.05022324136828
C           -1.64181425267170       -2.62104377584357       -0.09622342210733
H            2.93606783859465        2.02009901883370        0.92941625279414
H            4.59125628769791        0.64756934385677        0.07806727664850
H            2.92068463808569        2.07378634577465       -0.81626775584770
H            4.04670015484473       -1.64929379543771       -0.06114262236141
H           -1.60185869681355        3.00328665590617        0.15543313962314
H           -2.83933973880280        2.19448318356241       -0.83989560235705
H           -2.91076529512958        2.04344094874285        0.91264028779145
H           -1.42071971987329       -3.24197673501317        0.76779677257134
H           -1.45066428340028       -3.15897127346384       -1.02053513621136
H           -2.71457660914759       -2.38250844306439       -0.07275299582790
H            1.20738136916313       -2.99721954308689        0.05392671013257
25
 energy: 116.234042531579 xtb: 6.6.1 (8d0f1dd)
C            3.12359195195155        1.39392898854612        0.02834327941545
N            2.39046650462183        0.17424478575721       -0.01926914097916
C            3.03149612642635       -1.26646706429368       -0.01057134778632
N            1.56388567241197       -2.04103506478547       -0.00906050118326
C            0.49423735014777       -1.17437250458348       -0.02438849810662
C            0.98191010400936        0.11800099260020       -0.02596219301922
C            0.12036992076812        1.28944257174430        0.01918419174383
O            0.50256715833499        2.42295302269461        0.06689894039405
N           -1.29757721864684        1.00160425228412        0.01382737278787
C           -2.22086849773064        2.12481610533258        0.07671747517259
C           -1.82872561772494       -0.26011246900626       -0.05002261802467
O           -3.02930737585493       -0.42548352252033       -0.09313225921492
N           -0.91794344201420       -1.36205012919176       -0.04859380401935
C           -1.66733519786488       -2.62584989172917       -0.10069545430756
H            2.74408395360943        2.13941310651080        0.86263721978878
H            4.67940990647019        0.59160237102655        0.20588733413788
H            2.98675620744440        2.01994878475927       -0.96027667026727
H            4.09330061269188       -1.60187243030416       -0.08302591980506
H           -1.61488268126684        3.01543628252681        0.17747543432785
H           -2.83228686134024        2.19806490555318       -0.82333036231697
H           -2.90553735498665        2.03844859011231        0.92491485178814
H           -1.48685502569698       -3.25053142258359        0.77048476326480
H           -1.48813372467437       -3.16703606504907       -1.02281064293156
H           -2.73434391288945       -2.35951331350321       -0.09360751891943
H            1.22393610973971       -3.00455227972585        0.04540996420764
25
 energy: 115.867220143353 xtb: 6.6.1 (8d0f1dd)
C            3.08293573441227        1.40216663921982        0.01085623281561
N            2.37179213004227        0.14990718567050       -0.00925407619415
C            3.00660354330203       -1.18125354006924       -0.01801413105604
N            1.58239160575956       -2.03431688804870       -0.01859212596439
C            0.47569974844566       -1.17308378228075       -0.01766193631529
C            0.99410231713053        0.09850872651648       -0.00555124931804
C            0.10272121186279        1.28619990675243        0.02836400079433
O            0.52262259282664        2.40772513277172        0.10223731861879
N           -1.24728407140100        0.99446792941673        0.01846516605253
C           -2.20498571621016        2.11669301001334        0.07914249696868
C           -1.81633631071427       -0.26975210535560       -0.04023766841258
O           -3.01030296772094       -0.40376935190442       -0.09016693680913
N           -0.90418272571484       -1.37032441184259       -0.04198618080846
C           -1.67607577450899       -2.63047339060069       -0.10125084620029
H            2.58043749924758        2.17173222087964        0.74136499487017
H            4.76796549232123        0.53614248905251        0.30376002139329
H            3.05219802853210        1.94879105656923       -0.98503411244508
H            4.07530231622515       -1.52462757520774       -0.10791712211077
H           -1.62972673145923        3.03469608858250        0.18410530545898
H           -2.82225430936075        2.18305244075436       -0.82135934970912
H           -2.89166356145301        2.02614351304451        0.92625966888338
H           -1.52914315898769       -3.25153578446805        0.77930237457691
H           -1.49608718613772       -3.17873097483298       -1.01957496872657
H           -2.73933505533565       -2.35021694027418       -0.11213280812017
H            1.26482001683310       -2.99911299218679        0.04190982790494
25
 energy: 127.149092356347 xtb: 6.6.1 (8d0f1dd)
C            3.03062832294656        1.42797428416240       -0.02214481432718
N            2.36338389732467        0.14639376896336       -0.02229942266371
C            2.99793239813095       -1.09248175022272       -0.04724270408873
N            1.60311536595051       -2.01823928334391       -0.02793197261548
C            0.47002644629637       -1.17459961233676       -0.01098809082021
C            0.99427053606092        0.09242231449232        0.01466216404781
C            0.08651044034505        1.27059941742218        0.04894105700097
O            0.53025069479964        2.40361805145900        0.13266236104263
N           -1.22700496615117        0.98620973126132        0.02812744335909
C           -2.20049029433925        2.11090851997020        0.08754463282872
C           -1.80589406695261       -0.27587877983928       -0.03403894389938
O           -3.00492133292246       -0.39301013654037       -0.09020017986417
N           -0.90120986089176       -1.37840379515086       -0.03518479023658
C           -1.69016858156630       -2.63097130144472       -0.10277251266310
H            2.41224983710092        2.21289271721290        0.62135071076372
H            4.93620354773721        0.39428079298558        0.45352210771083
H            3.11122127523609        1.90675189676273       -1.03836641176974
H            4.06825126470383       -1.44515747093039       -0.12931516962465
H           -1.63954746112026        3.04339042982279        0.19924384890194
H           -2.81389417212104        2.16958569716726       -0.81663090658456
H           -2.88572861187964        2.00730979093845        0.93322505350057
H           -1.56325296887961       -3.25562934901364        0.77912027280578
H           -1.51149656768630       -3.18750777849526       -1.01996909079492
H           -2.75068117564149       -2.33831418950137       -0.12281822319651
H            1.30246070145591       -2.99311536362916        0.04853747733442
25
 energy: 130.499575398337 xtb: 6.6.1 (8d0f1dd)
C            2.96590281274869        1.46350737485956       -0.06305266426447
N            2.36347744216040        0.15146319696825       -0.04279871329049
C            2.97792791364203       -1.00451017242186       -0.08356769248674
N            1.61444073870736       -1.98928651664092       -0.03798529267289
C            0.47263436942990       -1.17337975935698       -0.00515386478400
C            0.98243293025824        0.10459582949036        0.03922262406187
C            0.07574269254424        1.24845475276976        0.07149222617318
O            0.51219828684341        2.41478849851524        0.13918614342532
N           -1.23484344028240        0.97883362732649        0.03729526812118
C           -2.20536507206502        2.11119276911290        0.09433815213953
C           -1.79628999768964       -0.27439034677130       -0.02940330088687
O           -3.00571777974405       -0.39190447960664       -0.08706889624776
N           -0.90760030315998       -1.38107136736556       -0.03047885109533
C           -1.69417508310363       -2.62804137410032       -0.10427948454709
H            2.32996282768523        2.21420000234876        0.51080271042885
H            5.13009073373174        0.20043709497288        0.57931418548143
H            3.11642076372428        1.89425437907333       -1.04284466396985
H            4.04382047079435       -1.37841247893794       -0.12404474773913
H           -1.64221445642819        3.04580263083339        0.20724142462718
H           -2.81180376364771        2.15900565253074       -0.81382817303342
H           -2.88274356685053        1.99540050583811        0.94112108816927
H           -1.56712106855031       -3.25692181727544        0.77457800324315
H           -1.50805344116846       -3.19200182591384       -1.02133424210117
H           -2.75464334050720       -2.33795144128724       -0.12764660651824
H            1.33773399886399       -2.98503613278970        0.04592926391407
25
 energy: 138.032541577983 xtb: 6.6.1 (8d0f1dd)
C            2.88962672526771        1.51093968875561       -0.10100744352584
N            2.36871778926239        0.18326266054822       -0.05638141132602
C            2.99792324023237       -0.97470131736181       -0.10846570814057
N            1.61496485387080       -1.97105300611938       -0.04270012704587
C            0.49366507234136       -1.18348815704223        0.00132258430009
C            0.95262812803941        0.12611867489200        0.06415133974610
C            0.08448248228417        1.22218737382653        0.09433444662677
O            0.47977180161516        2.42717215548503        0.13723372725326
N           -1.27777188763885        0.97944572404215        0.04657911315686
C           -2.21704739421313        2.11923513074585        0.10182016198700
C           -1.78986123696779       -0.26159804717514       -0.02833004184728
O           -3.01126272095553       -0.39968775610769       -0.08208258526426
N           -0.92327269991492       -1.38052281035247       -0.03013178364967
C           -1.69656997796632       -2.62258811259865       -0.10656459655048
H            2.28940083003810        2.23538631854604        0.46153265728039
H            5.32030045495602       -0.01233837818458        0.66865411708734
H            3.09065927874289        1.93115760360454       -1.06500120428610
H            4.06374386795313       -1.35447114137349       -0.12015046151953
H           -1.63889510734812        3.04101669816281        0.21143183452771
H           -2.81421247683671        2.15705647380243       -0.80800568101698
H           -2.88525221538048        1.99314939374635        0.94982551180713
H           -1.55959538170264       -3.25739429738052        0.76812260011168
H           -1.49962833101740       -3.19111682774580       -1.02250296414314
H           -2.75911717631433       -2.34215538314943       -0.13070177850445
H            1.33881674958950       -2.98598405939435        0.02405158908343
25
 energy: 146.586198748481 xtb: 6.6.1 (8d0f1dd)
C            2.81661243103203        1.54278309833635       -0.13339037139993
N            2.37163681949022        0.22268195832279       -0.05987212574740
C            3.02082462717442       -0.96633611006688       -0.11839592784093
N            1.59460300813386       -1.95744958945059       -0.05200354352322
C            0.50485181457495       -1.18649623957595        0.00511452435185
C            0.92377374747958        0.14808708386371        0.07754398429374
C            0.08695314063255        1.22981571786611        0.10656995538252
O            0.43740613579982        2.44352507287776        0.13777863110654
N           -1.32047376520349        0.99664796895354        0.05709992232053
C           -2.23260820001711        2.12961578006183        0.10645644600218
C           -1.79960451297968       -0.24399967023183       -0.02163049618961
O           -3.02399009106732       -0.40637595117655       -0.06541674674702
N           -0.94035413601012       -1.37277630703158       -0.03136090038114
C           -1.67939560260357       -2.62229555644682       -0.10702833420298
H            2.25829075938963        2.24677246714593        0.47385899923098
H            5.52656077569853       -0.24691665533166        0.68543607034076
H            3.04983347366667        1.97042537823706       -1.06657093833319
H            4.08723485949371       -1.35299409599430       -0.11272439640413
H           -1.64573975088444        3.03897116012454        0.19894357469968
H           -2.82927095866877        2.15180446934136       -0.80032217407022
H           -2.89232066181521        2.00715475611617        0.95938188116539
H           -1.52150213293955       -3.24927200821811        0.76858413060160
H           -1.45502321888717       -3.18350873334905       -1.01784314400215
H           -2.74603448463881       -2.37038069718074       -0.13684751048291
H            1.31995059108605       -2.98045469502110       -0.02632761402337
25
 energy: 163.473125123332 xtb: 6.6.1 (8d0f1dd)
C            2.71688494440747        1.58468702600451       -0.13891890647074
N            2.37368231105144        0.26892224985505       -0.05016124055848
C            3.07852255057149       -0.98264099869267       -0.13115435160574
N            1.56592558846682       -1.95955724923886       -0.05600187114707
C            0.50714941420856       -1.19109062346630        0.01010898673229
C            0.90050031541111        0.15223200637096        0.08478449954049
C            0.09051402919822        1.26415680748180        0.11159811914549
O            0.40380369852944        2.44196235860421        0.13868690302076
N           -1.35810397069131        1.01938300749896        0.06429599182112
C           -2.24679257118768        2.13722810411886        0.10861865743393
C           -1.82640823296448       -0.23146558415639       -0.01474714385873
O           -3.04009984295666       -0.41737914756690       -0.05347645399601
N           -0.95642973744332       -1.36189701223922       -0.03255117692640
C           -1.66441089696021       -2.62589350035163       -0.10982034247573
H            2.26433807414216        2.25793632965765        0.54442940792766
H            5.73190290683326       -0.46928672191214        0.61783406316204
H            2.99232864540221        2.04649295749319       -1.06340043444674
H            4.14632496507659       -1.36951698937330       -0.10712092157192
H           -1.65595443019554        3.03757578199572        0.18786915849688
H           -2.84999366960759        2.15418363829395       -0.79485039178817
H           -2.90480336564067        2.02661858263000        0.96675533107255
H           -1.48543338531473       -3.24377655650963        0.76918815097401
H           -1.41786021857551       -3.17468424615942       -1.01735094838082
H           -2.73840665338037       -2.39768884354792       -0.14187832637807
H            1.28503419955615       -2.97747277461846       -0.06570286357500
25
 energy: 196.974499580750 xtb: 6.6.1 (8d0f1dd)
C            2.61367938133642        1.62906028149528       -0.13785059858415
N            2.37894269480220        0.30267333856051       -0.03958521071083
C            3.17333498233873       -1.01192432889960       -0.15087052223428
N            1.53489059052027       -1.98275576620039       -0.05591181347302
C            0.49404332091601       -1.19362713763112        0.01516641895881
C            0.89337909323979        0.13439637898908        0.08759590435808
C            0.09529560587448        1.30158682189585        0.10594560936691
O            0.38711030702991        2.42247188303187        0.13083972605633
N           -1.37566801342837        1.02987280650441        0.06494016740470
C           -2.25445439290128        2.14142586596229        0.10903693780952
C           -1.86480008484097       -0.22889553573242       -0.01002082263271
O           -3.05806549008215       -0.42159669637336       -0.04689994868264
N           -0.96891920766510       -1.34928233826327       -0.03366524899797
C           -1.66047567538850       -2.62977687172918       -0.11266449446725
H            2.27711080388554        2.29686203735150        0.66568271286000
H            5.93634359874336       -0.62808229908206        0.45575474239369
H            2.89581947851814        2.12363913052731       -1.00545460286457
H            4.24219827821368       -1.39776833505335       -0.09870971031322
H           -1.66465530558977        3.04172723593058        0.18104426858855
H           -2.86945493506812        2.16760421188924       -0.79132370155726
H           -2.91829225647655        2.05049936709468        0.97095825066696
H           -1.46291976105421       -3.23898729426024        0.76864208802116
H           -1.40305888704569       -3.16491463373797       -1.01951221281965
H           -2.74122436872841       -2.42080798861565       -0.14046544969235
H            1.23205491078744       -2.98437153148196       -0.08563859330723
25