72
 energy: 51.830627835714 xtb: 6.6.1 (8d0f1dd)
N           -1.66107196570892        3.21319491425117        2.21247224160521
C           -1.58994910184161        2.40120446602512        1.26161912179818
C           -2.72211141100491        2.20206899321468        0.28523344768544
C           -3.23930152737701        0.75198764056798        0.34712340846439
C           -4.12414355718466        0.20184232473133       -0.57886773373304
C           -4.63989201256263       -1.11941665909022       -0.49864456183320
O           -5.49498779573003       -1.55196602201401       -1.46707657878640
C           -5.92414035893827       -0.67616347576760       -2.48003980858586
C           -4.31534599821433       -2.01339118627935        0.58561150387426
O           -4.82183113600056       -5.94161682952757        0.78706962617168
C           -4.99159559641191       -5.74192655335877        1.99886388559803
C           -3.37649968818505       -1.42978295382604        1.42542561710957
C           -2.87208814789722       -0.12583381849939        1.35386125493879
C           -2.12016368964115        2.53139926912932       -1.09494788893639
C           -1.20807765048394        1.47255117191933       -1.74383286236552
C            0.10009615102169        1.31450164379208       -1.07401797455217
N            0.61060057937197        0.12818247987560       -0.63722810179382
C            1.97296547630693        0.06377183372750       -0.20233339257200
C            2.90701869566291       -0.39360499689097       -1.33993350043092
C            4.33293906627680       -0.37142292568481       -0.87832991304826
C            5.09879912894647        0.77198153360273       -1.00345370129163
C            6.41128615488567        0.80538678138142       -0.55352710538321
C            6.97729917765223       -0.31029913681665        0.03283191542487
O            8.25130506849166       -0.39788619282497        0.50253514445153
C            9.08979222429341        0.72263908371638        0.39348914736977
C            6.20274318802140       -1.48500030609702        0.17203491726593
O            6.84893013041752       -2.53202152732853        0.75284570282945
C            6.16803536424699       -3.75135596530162        0.90538341435385
C            4.89592002427691       -1.49823571501477       -0.27959418747366
C           -0.12135954454813       -1.08952822473819       -0.81532972824850
C           -3.90812208494167        3.18298833304461        0.53742444261307
C           -4.59939794888446        2.91004268397593        1.87409277098580
C           -3.53535302327993        4.65966634237815        0.44975890970994
H           -4.41838709953206        0.86496833366677       -1.38306256023099
H           -6.43044655628018        0.21044980373338       -2.07439309743995
H           -6.62491090162568       -1.26169356497024       -3.07215520715100
H           -5.10673529502746       -0.35195097754290       -3.13554612534229
H           -4.60656543570431       -3.17477415311424        0.99496061089709
H           -5.99430097063795       -5.73515382439593        2.44820025145571
H           -4.21507847643524       -6.14042836229884        2.63483476351975
H           -3.03455314446358       -2.02777250887934        2.25515139832469
H           -2.20460806699035        0.22575475679968        2.12823266223083
H           -2.94432970021526        2.71412449785480       -1.79261548066853
H           -1.53605213551713        3.45263601554798       -0.97819346370881
H           -1.74160196323455        0.53570219119725       -1.83717885435403
H           -1.02965826735399        1.86038376136484       -2.76070969630036
H           -0.69581515972216        1.80590883898057        1.02689907057920
H            0.70097460880717        2.19278138603882       -0.89321704460752
H            2.06516489981333       -0.63981006287298        0.63278931272587
H            2.29806676039758        1.04915586439766        0.13895174109190
H            2.77475334530973        0.27833954245458       -2.18882621010510
H            2.61833340428910       -1.39788569522377       -1.65104168791821
H            4.67976879756802        1.65279988913561       -1.46554983983165
H            6.98428270006093        1.71117564077161       -0.67378328476763
H            8.69420878948030        1.58105058485863        0.94603016320001
H            9.25490867599888        1.00581137405405       -0.65075132065505
H           10.03807887953371        0.42035598080186        0.83434185690690
H            6.88409603611696       -4.42720923340670        1.37108994479317
H            5.29460697717747       -3.64934211177620        1.55852510419971
H            5.85524587303783       -4.16623135044305       -0.05903012359633
H            4.29719708211778       -2.39156592900801       -0.18803088612988
H           -0.25863804398844       -1.29817805710234       -1.87809402684728
H           -1.10604325734800       -1.02817482419852       -0.34408574389030
H            0.42783097037713       -1.90759455675828       -0.35871917853161
H           -4.63503708876312        3.00414481578279       -0.25993700217096
H           -3.93415715471128        3.17614866917140        2.68585979489492
H           -4.87680044537766        1.86497211086502        1.97446548461099
H           -5.50024420607558        3.51461816255175        1.94129149891616
H           -2.78274439719338        4.88534314513816        1.19067420787986
H           -3.17117028694480        4.94380626740177       -0.53425210852298
H           -4.41661351911311        5.26066171514039        0.66286308894387
H           -0.82447421742053        3.31592477745420        2.78044535526247
