25
 energy: 0.000000000000 xtb: 6.6.1 (8d0f1dd)
C            3.23720132972391        1.16630909158653        0.08434468864950
N            2.29877796055224        0.07527476373246        0.03981602671198
C            2.58028186251803       -1.21425391179017        0.03006175752192
N            1.43813944744728       -1.93419254010258        0.00098261751768
C            0.39035684826767       -1.05887462812143       -0.00790371763344
C            0.93510047688824        0.21347817468824        0.01709077332874
C            0.09450143016486        1.40504290868848       -0.00410946993748
O            0.49712746915594        2.54126690785742       -0.00342325656480
N           -1.25076628431515        1.06271869620815       -0.03085477937476
C           -2.21907191394203        2.15522079838987       -0.05001256521996
C           -1.81739470187490       -0.20012724136556       -0.04692818139228
O           -2.99983858926755       -0.37846413507442       -0.07008877579474
N           -0.92618577614240       -1.30210203518959       -0.03682761236648
C           -1.46982251276835       -2.64643077634382       -0.06029819901142
H            3.71247229913541        1.21471443890471        1.06488839270555
H            4.00791460421487        1.03430799217987       -0.67357688121503
H            2.69909982127087        2.09770098766290       -0.09130154035862
H            3.56654087521359       -1.63682977417947        0.04233139674524
H           -1.67107945562430        3.09322822573871       -0.02552706696334
H           -2.82428927394145        2.09428605349656       -0.95318074103337
H           -2.87644002486466        2.07745706351925        0.81450059976605
H           -1.17061985538665       -3.19584861009707        0.83242224714061
H           -1.14560246782873       -3.17511580834413       -0.95688266944647
H           -2.55549768731684       -2.55659960601237       -0.07459039105944
H            1.38130842369251       -2.94313824728853       -0.01389874052104
25
 energy: -6.348459409808 xtb: 6.6.1 (8d0f1dd)
C            3.26165006356099        1.17716893807627        0.07034755066308
N            2.31851815307285        0.10502523180172        0.02067557565421
C            2.60240816176837       -1.24441917981650        0.04510137610605
N            1.41698654835716       -1.93904480905647        0.01736715383297
C            0.39858845339539       -1.05776104572283        0.00481959767930
C            0.92545556231501        0.22875457305397        0.02241539493940
C            0.11341073792881        1.38535187054850        0.00312167309191
O            0.48513215121732        2.56266052624381        0.00753893407120
N           -1.27265097457910        1.04665817934407       -0.02938651915256
C           -2.22595662847600        2.14489259615473       -0.05140405561410
C           -1.82175067709643       -0.19875023550620       -0.04962584555660
O           -3.02071900446817       -0.38691973938695       -0.08058296836814
N           -0.94092051576837       -1.29989300447940       -0.03424618229412
C           -1.47621466252100       -2.64172742545177       -0.06333554511570
H            3.76803692071208        1.19106217129375        1.03760827948865
H            4.03520857145320        1.11016710352767       -0.70539254855358
H            2.70125189493624        2.10286650488151       -0.04532611213746
H            3.57526605293995       -1.66465720196968        0.06427943054945
H           -1.66643526360874        3.07858175140016       -0.02687822009964
H           -2.83243942678610        2.09037088606567       -0.95577508163746
H           -2.88516371387627        2.07593757190106        0.81368514604631
H           -1.17685197365999       -3.19690496447225        0.82884110900940
H           -1.14916831120041       -3.17367366248264       -0.96065796403257
H           -2.56211722087790       -2.55252664920526       -0.08184088623821
H            1.36003374300352       -2.94344328673084       -0.00030307538787
25
 energy: -5.729403693822 xtb: 6.6.1 (8d0f1dd)
C            3.28260280295631        1.18220832218964        0.05457582143101
N            2.33299104063467        0.10815547957632        0.00188660579514
C            2.60291278735758       -1.24951433345020        0.05958880376412
N            1.41191417961927       -1.93830537620820        0.03411998197781
C            0.39724563174829       -1.05349352021982        0.01490260159453
C            0.93099581715317        0.23282827864513        0.02488858530958
C            0.11067636071666        1.38301102045828        0.00987547209411
O            0.47457847658440        2.56228206394891        0.02194147863472
N           -1.27844993899353        1.04180578706562       -0.02738138911454
C           -2.23274810436428        2.13954860231746       -0.05314326667227
C           -1.82882475311811       -0.20206722645137       -0.05246967502184
O           -3.02793275685017       -0.39043450903108       -0.09080741272263
N           -0.94422832267149       -1.29913784397137       -0.03212681533490
C           -1.48047460636507       -2.64159203132134       -0.06637090990805
H            3.81910191987495        1.16070953690918        1.00487172788955
H            4.05290030934149        1.18419344038670       -0.73736129924658
H            2.70753420792008        2.10557007301382        0.00281729680983
H            3.57204067346208       -1.68016452624083        0.08656549690406
H           -1.67003513247915        3.07170025946513       -0.02965013270912
H           -2.83943115836586        2.08417305568424       -0.95788586605275
H           -2.89432506407126        2.07486984546257        0.81094412740251
H           -1.18480471730481       -3.19953712451042        0.82546329492484
H           -1.15323461278436       -3.17238548756036       -0.96492040519165
H           -2.56700922533468       -2.55210081480348       -0.08945993649894
H            1.34668838543958       -2.94296897601017        0.01663097345478
25
 energy: -4.509987731955 xtb: 6.6.1 (8d0f1dd)
C            3.30232236639589        1.18840026164938        0.03789396628671
N            2.34488131344452        0.11308675925964       -0.01704125397279
C            2.60246649598478       -1.25158525950126        0.07768264893348
N            1.40690489371390       -1.93609300978919        0.05249338632619
C            0.39554678331844       -1.04861228344474        0.02424907211498
C            0.93531358579345        0.23779906657810        0.02053950333329
C            0.10695939940380        1.38044394937237        0.01491133529726
O            0.46170194076059        2.56185597818481        0.03554637834168
N           -1.28486604680257        1.03666812641458       -0.02624186409376
C           -2.23942782036305        2.13427416767578       -0.05513076083499
C           -1.83549717247401       -0.20572528420929       -0.05702812876104
O           -3.03433611623775       -0.39521434898272       -0.10450051924067
N           -0.94749084046227       -1.29839714913574       -0.02968046850768
C           -1.48461327786411       -2.64128952362359       -0.06993460722766
H            3.86828017889592        1.12942767942648        0.96987333569390
H            4.06566771126530        1.25917260806153       -0.76955182919565
H            2.71453919720063        2.10695208736125        0.05068401539039
H            3.56792300860591       -1.69230756091326        0.10942420171325
H           -1.67352134894994        3.06491509120782       -0.03228646559433
H           -2.84639499608306        2.07817722557971       -0.95996031660847
H           -2.90244034428322        2.07302236270088        0.80834792836110
H           -1.19284365338933       -3.20149706129837        0.82198703511043
H           -1.15663907511894       -3.17059193165321       -0.97000531173704
H           -2.57164242637271       -2.55054950323295       -0.09757335842117
H            1.33478476377081       -2.94100435273850        0.03370991923538
25
 energy: -2.730681029925 xtb: 6.6.1 (8d0f1dd)
C            3.31898225373365        1.19363553250038        0.02276281702864
N            2.34631766694754        0.11739573230757       -0.00636307269354
C            2.59849459892260       -1.25169392623454        0.10136827095462
N            1.40043650195109       -1.93415280315070        0.07200065457067
C            0.39147496392281       -1.04493523795524        0.03241712029648
C            0.93482814753216        0.24109893509635        0.01430305450426
C            0.10160906919802        1.37857258842084        0.01998965121018
O            0.44925735738577        2.56165326451770        0.04829482039057
N           -1.29237601248884        1.03224673564932       -0.02524633121209
C           -2.24683178648164        2.12962001268992       -0.05572442933502
C           -1.84238170127213       -0.20904295045614       -0.06252382596143
O           -3.04067348236396       -0.40049324684905       -0.11989587993993
N           -0.95204369476250       -1.29820155500014       -0.02798468566195
C           -1.48918338565325       -2.64129930467942       -0.07444029301715
H            3.91730714769798        1.09962158176030        0.93239934276945
H            4.07147693844648        1.33013699346736       -0.80244503822052
H            2.72409770655435        2.10692809700374        0.09697810738294
H            3.56119034747565       -1.70159566626730        0.13473086061170
H           -1.67745314156710        3.05844396320651       -0.03459910376464
H           -2.85425099336029        2.07257534872620       -0.96018954962084
H           -2.91035358898245        2.07123411129529        0.80760218217852
H           -1.20134118450818       -3.20368166442992        0.81777652077087
H           -1.15888709643155       -3.16813634031596       -0.97612103468327
H           -2.57652409110046       -2.54933907281500       -0.10687271227138
H            1.32304434139830       -2.93925245682214        0.05230964588407
25
 energy: -0.349927510307 xtb: 6.6.1 (8d0f1dd)
C            3.33876827709406        1.19978553874952        0.00740204636876
N            2.34942495842863        0.12501791639164        0.01253905711735
C            2.59332055153159       -1.24695142892822        0.11646982801120
N            1.39418036550113       -1.92955899602119        0.09070111779048
C            0.38636399730693       -1.03959995292283        0.03562890780992
C            0.93363713700690        0.24554831575769        0.00719370055083
C            0.09421673683953        1.37814464475943        0.02730249543224
O            0.43564629596401        2.56242286487026        0.06302884500624
N           -1.30111277269323        1.02869339402320       -0.02317383926283
C           -2.25544895187246        2.12554861570763       -0.05642426365454
C           -1.84941389766539       -0.21213100915305       -0.06785306937846
O           -3.04692448489746       -0.40627602398210       -0.13409631165197
N           -0.95704085076750       -1.29763130856729       -0.02671991713434
C           -1.49316414737361       -2.64121308218760       -0.07884385760702
H            3.96637526318015        1.06854124283757        0.89338276600663
H            4.07526670996166        1.40008406657833       -0.83839610001186
H            2.74496333124687        2.10727325610979        0.14541371176062
H            3.55282495843650       -1.70760119407644        0.15921130529266
H           -1.68293146206622        3.05289077277043       -0.03674073447864
H           -2.86163446209219        2.06651130855859       -0.96149285572875
H           -2.92011461626556        2.06908712284460        0.80611015554101
H           -1.20913372161024       -3.20485096743657        0.81433221066340
H           -1.15942888808965       -3.16574110415253       -0.98173810388587
H           -2.58077730326983       -2.54851562099778       -0.11625759128618
H            1.31325038901639       -2.93550091543425        0.07140101492515
25
 energy: 2.473515915730 xtb: 6.6.1 (8d0f1dd)
C            3.36101407558336        1.20535302162266       -0.01009575930533
N            2.35173211893868        0.13573395559473        0.02949065365984
C            2.59098524178734       -1.23835713873447        0.09841705701135
N            1.39133984666173       -1.92348410436036        0.10832469848922
C            0.38346821672593       -1.03569115462464        0.03867615702136
C            0.93049834798162        0.25069134249210        0.00017155568023
C            0.08587844159678        1.38012819643423        0.03234939928841
O            0.42207054241219        2.56453154697826        0.07635071708797
N           -1.31020583599376        1.02628830274584       -0.01994979456438
C           -2.26499668795348        2.12167956965617       -0.05646655860210
C           -1.85535932330387       -0.21531530455272       -0.07284281255655
O           -3.05187527961420       -0.41285700085148       -0.14789940294503
N           -0.96069049449680       -1.29744560269763       -0.02416649621754
C           -1.49660821489648       -2.64125485163412       -0.08128838989721
H            4.01352979471482        1.03747104226684        0.85265311936101
H            4.08089665101049        1.46682722340709       -0.87507169085289
H            2.77595947533360        2.10827565315084        0.18730632213416
H            3.54486350036948       -1.70977982588318        0.18426384414170
H           -1.69052018195645        3.04816521450223       -0.03704434152320
H           -2.86903228948456        2.06072167309394       -0.96278588723166
H           -2.93090789975888        2.06533426836881        0.80485243460941
H           -1.21738473372644       -3.20594715246333        0.81273472054777
H           -1.15479379759942       -3.16761354732089       -0.97934257849319
H           -2.58433157955557       -2.54804446907853       -0.12628528958913
H            1.30655200916846       -2.93042086848367        0.09317642972290
25
 energy: 5.747657532740 xtb: 6.6.1 (8d0f1dd)
C            3.37669634304994        1.20674571141527       -0.01596895275790
N            2.35514634239323        0.14028908361176        0.05315730141234
C            2.59294008202310       -1.23906070604463        0.08186557541106
N            1.39048187235000       -1.92129965390370        0.12114332327574
C            0.38340437048507       -1.03615720732692        0.03836188909619
C            0.93072427578430        0.25209015694138        0.00810409279888
C            0.08139770385961        1.38165687802310        0.03382664484110
O            0.41087051738130        2.56575835475581        0.08815610932931
N           -1.31401804631732        1.02434915436573       -0.02274636095696
C           -2.27142694583265        2.11838569357875       -0.05513587174376
C           -1.85834522253503       -0.21870626169338       -0.07889661415043
O           -3.05379423014066       -0.41902854161836       -0.16402089083025
N           -0.96117318925286       -1.29885458461498       -0.02207843483709
C           -1.49995826784608       -2.64222638975493       -0.08345923411148
H            4.06467773396888        1.00898600254300        0.81135324398165
H            4.08839327959419        1.53441999441513       -0.90033038201071
H            2.80910995827303        2.10673386657710        0.22238199995058
H            3.53923005464288       -1.71533113853140        0.22028029458453
H           -1.69545639559276        3.04405593443899       -0.03877775404145
H           -2.87728282897848        2.05676142944314       -0.95998481842482
H           -2.93584738208185        2.06286201530562        0.80758459090709
H           -1.22656874622527       -3.20803416901455        0.81159111167323
H           -1.15148030548710       -3.17158258652072       -0.97580162952876
H           -2.58766675879364       -2.54820936323718       -0.13629105470947
H            1.30069346280032       -2.92820091750488        0.10589068383771
25
 energy: 7.446728400751 xtb: 6.6.1 (8d0f1dd)
C            3.37729686016425        1.20265827366672       -0.01253040712905
N            2.35252648806580        0.14232530452401        0.07633302379320
C            2.59365805866174       -1.23877324678440        0.08425176043232
N            1.39137432037601       -1.91965657005060        0.12391375661087
C            0.38258532519068       -1.03905707261692        0.03290003308939
C            0.92636111194617        0.25102524463488        0.00907038813618
C            0.07665987220239        1.38161390342576        0.03395771601486
O            0.40226949666352        2.56596242884514        0.09374949884547
N           -1.31850857203037        1.02356734256167       -0.02660848568288
C           -2.27792934875064        2.11576927846161       -0.05607314852380
C           -1.85958728810657       -0.22084875332655       -0.08405562561930
O           -3.05423088679731       -0.42042468673381       -0.17550721556174
N           -0.96217000051128       -1.30137171909904       -0.02855267070965
C           -1.50412210532657       -2.64296541609754       -0.08850804303631
H            4.10315766160205        0.97512584759233        0.77312172895676
H            4.06731494861158        1.57826755178256       -0.92136017744166
H            2.83297382655098        2.10113903928486        0.26184582608321
H            3.53404705716846       -1.71750513393694        0.25542226598969
H           -1.70218678319357        3.04133899693178       -0.04000995265172
H           -2.88700893000481        2.05180202579095       -0.95750623787475
H           -2.94059315542020        2.06035349804785        0.80960072896047
H           -1.23504947837429       -3.20931133558968        0.80796807307946
H           -1.15545243784740       -3.17300088793641       -0.97927346961998
H           -2.59125516039442       -2.54632504253994       -0.14645129847555
H            1.29754892709745       -2.92628618470770        0.12502675061327
25
 energy: 12.854613897771 xtb: 6.6.1 (8d0f1dd)
C            3.38148856151373        1.20035812335695       -0.00995842905488
N            2.35061317953496        0.14498610060969        0.10485144285413
C            2.59117965923136       -1.23795137601875        0.11317037586930
N            1.38927367008011       -1.92209615795974        0.13934813737930
C            0.38095938943604       -1.04394046855503        0.03014089673468
C            0.92187925376979        0.24734220460659        0.01189538583186
C            0.07216005077836        1.37800501801157        0.02937850477223
O            0.39981457471799        2.56111853447119        0.08521901594179
N           -1.32382675212773        1.02271751672447       -0.03178885723168
C           -2.28155590961928        2.11515633886280       -0.06015208637533
C           -1.86319751091714       -0.22225183152758       -0.08171929413031
O           -3.05767927593998       -0.42445222898240       -0.16558973018778
N           -0.96414152008710       -1.30384129364997       -0.03504803175569
C           -1.50841473393757       -2.64417789205235       -0.09426753640694
H            4.13904662760757        0.94361114843689        0.73153303186200
H            4.10785834123255        1.62510942601766       -0.94265217612482
H            2.85589417769391        2.09521432230431        0.30327822593472
H            3.52936373497100       -1.71816430865045        0.28797711988033
H           -1.70808602930400        3.04069147585569       -0.04150895803305
H           -2.89315206131683        2.04630256796699       -0.95953239563652
H           -2.94305799880539        2.06057363944554        0.80526818270266
H           -1.24296838707454       -3.21089444876754        0.80349827381642
H           -1.16013238671918       -3.17573302809001       -0.98344682785662
H           -2.59495363614882       -2.54549143314547       -0.15692753716897
H            1.29477438962881       -2.92734391971195        0.14643788404461
25
 energy: 20.597164952499 xtb: 6.6.1 (8d0f1dd)
C            3.37654542875434        1.19335739235061        0.00350781834044
N            2.34667190786767        0.14604171267992        0.13062994629341
C            2.58793918348209       -1.23719011757903        0.14090060604658
N            1.38725716101589       -1.92523850074676        0.15681819976443
C            0.37909494627258       -1.05036894294894        0.02861933440018
C            0.91664993545721        0.24208329541087        0.01674967559276
C            0.06637239605745        1.37300909095667        0.02555913403461
O            0.39456673589690        2.55514847385715        0.07014300092580
N           -1.33046681842072        1.02189028409076       -0.03652717931076
C           -2.28697676897422        2.11634682132277       -0.06455546498378
C           -1.86776127472432       -0.22393536651232       -0.07761521200126
O           -3.06187459562011       -0.43067875545308       -0.14997931799128
N           -0.96615261811643       -1.30679600005056       -0.04072784512457
C           -1.51294220803981       -2.64573856255933       -0.09967014184459
H            4.17028752100352        0.90900373781688        0.68900790456051
H            4.15585399887717        1.68561746578228       -0.97498969774213
H            2.87644246846446        2.08690836999383        0.35379552199222
H            3.52473297279522       -1.71892051092552        0.31477044288136
H           -1.71357239285410        3.04093971436083       -0.04184041675225
H           -2.89178837213759        2.04772247933206       -0.96759336214202
H           -2.94838003080501        2.06106653175688        0.80046173735070
H           -1.25029879814715       -3.21197248880519        0.79970898758994
H           -1.16563848286405       -3.17902922079735       -0.98718912565114
H           -2.59878307258148       -2.54428081021772       -0.16644106708710
H            1.29468768551019       -2.92882418612074        0.16663386761485
25
 energy: 32.036492247899 xtb: 6.6.1 (8d0f1dd)
C            3.35321311387800        1.17261458276310        0.02990891152297
N            2.34003734428087        0.14191247072063        0.13514538041853
C            2.58265174732822       -1.23565511797243        0.16719398572288
N            1.38490389275600       -1.92868603756684        0.17266360940649
C            0.37629691157850       -1.05724864307075        0.02882330683803
C            0.91054048456449        0.23531741554606        0.02207405683759
C            0.06061805287509        1.36963884104742        0.02470010210380
O            0.38944570210588        2.54869421776889        0.05546258084786
N           -1.33683027484927        1.02185919606989       -0.04065896721179
C           -2.29302295114293        2.11841281616286       -0.06918431407275
C           -1.87218015975034       -0.22580618005058       -0.07300069800141
O           -3.06537388307038       -0.43687617347758       -0.13480413993973
N           -0.96796994644462       -1.31045149635989       -0.04456826890969
C           -1.51516272883883       -2.64880427742575       -0.10116766711776
H            4.19013911584066        0.86721126036078        0.64518160536655
H            4.24112070344452        1.76693592767984       -1.03154672734811
H            2.88417585351461        2.08005437022853        0.37461140645670
H            3.51941051367676       -1.71618983542308        0.33776816064028
H           -1.71967583682267        3.04232644181362       -0.04475107481313
H           -2.89492296829467        2.05160623320237       -0.97354986113073
H           -2.95580925578128        2.06391879128761        0.79449857719351
H           -1.25638155741834       -3.21447185357422        0.79853299880257
H           -1.17071489834006       -3.18262751906589       -0.98900139281937
H           -2.59986878655487       -2.54501961120662       -0.17246028932435
H            1.30121172777957       -2.93013464777328        0.16411027430662
25
 energy: 44.805687061183 xtb: 6.6.1 (8d0f1dd)
C            3.30707553494282        1.13532532070056        0.08151872660492
N            2.32693738102754        0.12730996058123        0.13224244863322
C            2.57292143582596       -1.23515308365286        0.19414393738577
N            1.37966969689609       -1.93780123195294        0.18862805569159
C            0.37243237298776       -1.06558557952778        0.03527407165481
C            0.90511737185235        0.22534687144971        0.03080710742007
C            0.05509949860039        1.36772440526354        0.02661255693113
O            0.38526810509506        2.54041297503596        0.04073532153691
N           -1.34162973926985        1.02313158286350       -0.04511013167480
C           -2.29881640158931        2.12139508898672       -0.07426731046330
C           -1.87599625797723       -0.22706633385208       -0.06793450107783
O           -3.06753520962988       -0.44234224554323       -0.11976697476393
N           -0.96971388160615       -1.31329242159580       -0.04316903301306
C           -1.51628945431461       -2.65140750835233       -0.09844386168009
H            4.20209879473084        0.81417137544170        0.58919906677297
H            4.37337163388743        1.88002504578826       -1.11276569619415
H            2.88989591307639        2.07153906631261        0.40074642324346
H            3.51572003703616       -1.70248349060917        0.35499182701579
H           -1.72475967369404        3.04450291532771       -0.05071764652254
H           -2.89977060272224        2.05705738065756       -0.97940889062116
H           -2.96208785490905        2.06691874970061        0.78892373159649
H           -1.25997825149987       -3.21816198704708        0.79911521833454
H           -1.17710082826577       -3.18426620308752       -0.98921360525868
H           -2.60041206207545       -2.54898463370739       -0.16346294937137
H            1.29683492368418       -2.93810791816973        0.14650368490328
25
 energy: 51.462016287399 xtb: 6.6.1 (8d0f1dd)
C            3.27233733414971        1.11009933169175        0.12962215000987
N            2.31856390645111        0.11420257426975        0.12420479290240
C            2.56993645922711       -1.23988277344571        0.19187995862688
N            1.37627125304078       -1.94749237878557        0.20364394368941
C            0.37164270530844       -1.07375417739891        0.04633370477354
C            0.90148592770045        0.21699817056106        0.04216856754501
C            0.05142970004332        1.36556241048017        0.02916317886221
O            0.38312371717668        2.53413523092568        0.02370897930529
N           -1.34668126152307        1.02537555099655       -0.04969151110459
C           -2.30626671078876        2.12422395523315       -0.07955980302381
C           -1.87736793678663       -0.22679865115059       -0.06473212334021
O           -3.06792917581684       -0.44770274095024       -0.10450873737438
N           -0.96978641177184       -1.31522165758701       -0.03743547511394
C           -1.52148227120940       -2.65116325725830       -0.09794909737521
H            4.20555638347707        0.78992874123389        0.55670492053352
H            4.48511283171454        1.97498136808560       -1.17641590332826
H            2.89870540165018        2.06459678672259        0.44005166466731
H            3.51770577385595       -1.69234324468804        0.35828650893847
H           -1.73141285291590        3.04712000717234       -0.05609016481777
H           -2.90488298364509        2.06104541323056       -0.98613443229236
H           -2.97117909048106        2.06707147782709        0.78222862913656
H           -1.26565652388274       -3.21983259061277        0.79759505071699
H           -1.18647753436164       -3.18363321126121       -0.99102545394491
H           -2.60576919316676       -2.54488294945673       -0.15685270663820
H            1.28766896172198       -2.94554556479311        0.13375736326342
25
 energy: 55.773553954589 xtb: 6.6.1 (8d0f1dd)
C            3.25355204322149        1.08539708143131        0.16409961056237
N            2.31647299803235        0.10015249579209        0.10634875401140
C            2.56944458143069       -1.25212421467033        0.17199332268376
N            1.37153710939611       -1.95891036078289        0.21687338706618
C            0.37136259050315       -1.08150636220744        0.05764598481368
C            0.90040460380246        0.20897733956146        0.05329198109457
C            0.05004627249395        1.36192834800102        0.03492173000296
O            0.38196883503637        2.52707358544618        0.00252731872584
N           -1.35015208249597        1.02712990179407       -0.05033811549838
C           -2.30952790750450        2.12812050711847       -0.08251724290204
C           -1.87775982652433       -0.22631880747836       -0.06018412107754
O           -3.06798104693379       -0.45312914877485       -0.08624646430820
N           -0.96983251555340       -1.31717618428427       -0.03037959299768
C           -1.52756554863874       -2.65150882595010       -0.09926469376657
H            4.22129719720654        0.76619915063826        0.51433651860337
H            4.57014519111681        2.07530758301761       -1.23764959180467
H            2.91277485559068        2.05312055990632        0.47230759013559
H            3.51342792539068       -1.69313284562706        0.37864497083926
H           -1.73063765029180        3.04833723516741       -0.05580276880930
H           -2.90591231688579        2.06847898089684       -0.99143153152148
H           -2.97828824412434        2.07029275878962        0.77634474402084
H           -1.27276448169509       -3.22318471005736        0.79371306049963
H           -1.19664649150714       -3.18389018661256       -0.99440409016726
H           -2.61213372494784       -2.54273133665912       -0.15231786589592
H            1.27581783041788       -2.95429385574617        0.12287314481899
25