      -----------------------------------------------------------      
     |                   =====================                   |     
     |                           x T B                           |     
     |                   =====================                   |     
     |                         S. Grimme                         |     
     |          Mulliken Center for Theoretical Chemistry        |     
     |                    University of Bonn                     |     
      -----------------------------------------------------------      

   * xtb version 6.6.1 (8d0f1dd) compiled by 'conda@1efc2f54142f' on 2023-08-01

   xtb is free software: you can redistribute it and/or modify it under
   the terms of the GNU Lesser General Public License as published by
   the Free Software Foundation, either version 3 of the License, or
   (at your option) any later version.
   
   xtb is distributed in the hope that it will be useful,
   but WITHOUT ANY WARRANTY; without even the implied warranty of
   MERCHANTABILITY or FITNESS FOR A PARTICULAR PURPOSE.  See the
   GNU Lesser General Public License for more details.
   
   Cite this work as:
   * C. Bannwarth, E. Caldeweyher, S. Ehlert, A. Hansen, P. Pracht,
     J. Seibert, S. Spicher, S. Grimme, WIREs Comput. Mol. Sci., 2020, 11,
     e01493. DOI: 10.1002/wcms.1493
   
   for GFN2-xTB:
   * C. Bannwarth, S. Ehlert and S. Grimme., J. Chem. Theory Comput., 2019,
     15, 1652-1671. DOI: 10.1021/acs.jctc.8b01176
   for GFN1-xTB:
   * S. Grimme, C. Bannwarth, P. Shushkov, J. Chem. Theory Comput., 2017,
     13, 1989-2009. DOI: 10.1021/acs.jctc.7b00118
   for GFN0-xTB:
   * P. Pracht, E. Caldeweyher, S. Ehlert, S. Grimme, ChemRxiv, 2019, preprint.
     DOI: 10.26434/chemrxiv.8326202.v1
   for GFN-FF:
   * S. Spicher and S. Grimme, Angew. Chem. Int. Ed., 2020, 59, 15665-15673.
     DOI: 10.1002/anie.202004239
   
   for ALPB and GBSA implicit solvation:
   * S. Ehlert, M. Stahn, S. Spicher, S. Grimme, J. Chem. Theory Comput.,
     2021, 17, 4250-4261. DOI: 10.1021/acs.jctc.1c00471
   
   for DFT-D4:
   * E. Caldeweyher, C. Bannwarth and S. Grimme, J. Chem. Phys., 2017,
     147, 034112. DOI: 10.1063/1.4993215
   * E. Caldeweyher, S. Ehlert, A. Hansen, H. Neugebauer, S. Spicher,
     C. Bannwarth and S. Grimme, J. Chem. Phys., 2019, 150, 154122.
     DOI: 10.1063/1.5090222
   * E. Caldeweyher, J.-M. Mewes, S. Ehlert and S. Grimme, Phys. Chem. Chem. Phys.
     2020, 22, 8499-8512. DOI: 10.1039/D0CP00502A
   
   for sTDA-xTB:
   * S. Grimme and C. Bannwarth, J. Chem. Phys., 2016, 145, 054103.
     DOI: 10.1063/1.4959605
   
   in the mass-spec context:
   * V. Asgeirsson, C. Bauer and S. Grimme, Chem. Sci., 2017, 8, 4879.
     DOI: 10.1039/c7sc00601b
   * J. Koopman and S. Grimme, ACS Omega 2019, 4, 12, 15120-15133.
     DOI: 10.1021/acsomega.9b02011
   
   for metadynamics refer to:
   * S. Grimme, J. Chem. Theory Comput., 2019, 155, 2847-2862
     DOI: 10.1021/acs.jctc.9b00143
   
   for SPH calculations refer to:
   * S. Spicher and S. Grimme, J. Chem. Theory Comput., 2021, 17, 1701-1714
     DOI: 10.1021/acs.jctc.0c01306
   
   with help from (in alphabetical order)
   P. Atkinson, C. Bannwarth, F. Bohle, G. Brandenburg, E. Caldeweyher
   M. Checinski, S. Dohm, S. Ehlert, S. Ehrlich, I. Gerasimov, C. Hölzer
   A. Katbashev, J. Koopman, C. Lavigne, S. Lehtola, F. März, M. Müller,
   F. Musil, H. Neugebauer, J. Pisarek, C. Plett, P. Pracht, F. Pultar,
   J. Seibert, P. Shushkov, S. Spicher, M. Stahn, M. Steiner, T. Strunk,
   J. Stückrath, T. Rose, and J. Unsleber
   
 * started run on 2024/06/05 at 20:00:05.124     

           -------------------------------------------------
          |                Calculation Setup                |
           -------------------------------------------------

          program call               : xtb struc.xyz --opt loose --input .xc1 --gfn2
          hostname                   : n-62-11-66
          coordinate file            : struc.xyz
          omp threads                :                     1

   ID    Z sym.   atoms
    1    6 C      1, 3, 5-7, 10, 11, 14
    2    7 N      2, 4, 9, 13
    3    8 O      8, 12
    4    1 H      15-25
constraining bond 1 5 to    6.0000000 Å, actual value:    3.6144824 Å

           -------------------------------------------------
          |                 G F N 2 - x T B                 |
           -------------------------------------------------

        Reference                      10.1021/acs.jctc.8b01176
      * Hamiltonian:
        H0-scaling (s, p, d)           1.850000    2.230000    2.230000
        zeta-weighting                 0.500000
      * Dispersion:
        s8                             2.700000
        a1                             0.520000
        a2                             5.000000
        s9                             5.000000
      * Repulsion:
        kExp                           1.500000    1.000000
        rExp                           1.000000
      * Coulomb:
        alpha                          2.000000
        third order                    shell-resolved
        anisotropic                    true
        a3                             3.000000
        a5                             4.000000
        cn-shift                       1.200000
        cn-exp                         4.000000
        max-rad                        5.000000


          ...................................................
          :                      SETUP                      :
          :.................................................:
          :  # basis functions                  67          :
          :  # atomic orbitals                  67          :
          :  # shells                           39          :
          :  # electrons                        74          :
          :  max. iterations                   250          :
          :  Hamiltonian                  GFN2-xTB          :
          :  restarted?                      false          :
          :  GBSA solvation                  false          :
          :  PC potential                    false          :
          :  electronic temp.         5000.0000000     K    :
          :  accuracy                    1.0000000          :
          :  -> integral cutoff          0.2500000E+02      :
          :  -> integral neglect         0.1000000E-07      :
          :  -> SCF convergence          0.1000000E-05 Eh   :
          :  -> wf. convergence          0.1000000E-03 e    :
          :  Broyden damping             0.4000000          :
          ...................................................

 iter      E             dE          RMSdq      gap      omega  full diag
   1    -42.5894031 -0.425894E+02  0.445E+00    3.52       0.0  T
   2    -42.7683054 -0.178902E+00  0.251E+00    3.36       1.0  T
   3    -42.7759211 -0.761567E-02  0.147E+00    3.35       1.0  T
   4    -42.7728404  0.308066E-02  0.553E-01    3.33       1.0  T
   5    -42.7789548 -0.611444E-02  0.112E-01    3.35       1.0  T
   6    -42.7790473 -0.924914E-04  0.614E-02    3.33       1.0  T
   7    -42.7790721 -0.247928E-04  0.258E-02    3.34       1.0  T
   8    -42.7790772 -0.508996E-05  0.938E-03    3.34       2.1  T
   9    -42.7790779 -0.669422E-06  0.448E-03    3.34       4.5  T
  10    -42.7790780 -0.821510E-07  0.115E-03    3.34      17.4  T
  11    -42.7790780 -0.322663E-08  0.553E-04    3.34      36.2  T
  12    -42.7790780 -0.287051E-08  0.180E-04    3.34     111.1  T

   *** convergence criteria satisfied after 12 iterations ***

         #    Occupation            Energy/Eh            Energy/eV
      -------------------------------------------------------------
         1        2.0000           -0.9185990             -24.9964
       ...           ...                  ...                  ...
        31        1.9996           -0.6230278             -16.9534
        32        1.9995           -0.6194601             -16.8564
        33        1.9979           -0.5974976             -16.2587
        34        1.9932           -0.5789629             -15.7544
        35        1.9817           -0.5631863             -15.3251
        36        1.9779           -0.5602245             -15.2445
        37        1.9748           -0.5581234             -15.1873 (HOMO)
        38        0.0652           -0.4353579             -11.8467 (LUMO)
        39        0.0099           -0.4050467             -11.0219
        40        0.0013           -0.3732218             -10.1559
        41        0.0000           -0.2886859              -7.8555
        42                         -0.2065804              -5.6213
       ...                                ...                  ...
        67                          0.5625656              15.3082
      -------------------------------------------------------------
                  HL-Gap            0.1227656 Eh            3.3406 eV
             Fermi-level           -0.4890455 Eh          -13.3076 eV

 SCC (total)                   0 d,  0 h,  0 min,  0.034 sec
 SCC setup                      ...        0 min,  0.000 sec (  0.872%)
 Dispersion                     ...        0 min,  0.000 sec (  0.895%)
 classical contributions        ...        0 min,  0.000 sec (  0.264%)
 integral evaluation            ...        0 min,  0.006 sec ( 16.957%)
 iterations                     ...        0 min,  0.016 sec ( 46.612%)
 molecular gradient             ...        0 min,  0.012 sec ( 33.959%)
 printout                       ...        0 min,  0.000 sec (  0.420%)

         :::::::::::::::::::::::::::::::::::::::::::::::::::::
         ::                     SUMMARY                     ::
         :::::::::::::::::::::::::::::::::::::::::::::::::::::
         :: total energy              -1.604190664997 Eh    ::
         :: gradient norm             25.499933303280 Eh/a0 ::
         :: HOMO-LUMO gap              3.340621582928 eV    ::
         ::.................................................::
         :: SCC energy               -42.779077977399 Eh    ::
         :: -> isotropic ES            0.141123876439 Eh    ::
         :: -> anisotropic ES         -0.005230418907 Eh    ::
         :: -> anisotropic XC          0.011966818540 Eh    ::
         :: -> dispersion             -0.022657731803 Eh    ::
         :: repulsion energy           0.531105277918 Eh    ::
         :: add. restraining          40.643667875474 Eh    ::
         :: total charge               1.000000000002 e     ::
         :::::::::::::::::::::::::::::::::::::::::::::::::::::

      ----------------------------------------------------------- 
     |                   =====================                   |
     |                        A N C O P T                        |
     |                   =====================                   |
     |               Approximate Normal Coordinate               |
     |                Rational Function Optimizer                |
      ----------------------------------------------------------- 

          ...................................................
          :                      SETUP                      :
          :.................................................:
          :   optimization level             loose          :
          :   max. optcycles                   200          :
          :   ANC micro-cycles                  20          :
          :   degrees of freedom                69          :
          :.................................................:
          :   RF solver                   davidson          :
          :   write xtbopt.log                true          :
          :   linear?                        false          :
          :   energy convergence         0.5000000E-04 Eh   :
          :   grad. convergence          0.4000000E-02 Eh/α :
          :   maxmium RF displ.          1.0000000          :
          :   Hlow (freq-cutoff)         0.1000000E-01      :
          :   Hmax (freq-cutoff)         5.0000000          :
          :   S6 in model hess.         20.0000000          :
          ...................................................

generating ANC from model Hessian ...
Using Lindh-Hessian (1995)
 Shifting diagonal of input Hessian by    4.5025398422834453     
 Lowest  eigenvalues of input Hessian
    0.010000    0.383361    0.000000    0.000000    0.000000    0.000000
    0.000000    0.000000    4.505961    4.508113    4.512016    4.513858
    4.514193    4.515514    4.517684    4.522476    4.526873    4.532244
 Highest eigenvalues
    6.544972    6.659823    6.747470    6.895039    7.008298   13.733759


........................................................................
.............................. CYCLE    1 ..............................
........................................................................

 iter      E             dE          RMSdq      gap      omega  full diag
   1    -42.7790780 -0.427791E+02  0.626E-05    3.34       0.0  T
   2    -42.7790780 -0.124416E-10  0.329E-05    3.34     607.4  T
   3    -42.7790780  0.127898E-12  0.193E-05    3.34    1034.2  T
     SCC iter.                  ...        0 min,  0.004 sec
     gradient                   ...        0 min,  0.011 sec
 * total energy  :    -1.6041907 Eh     change       -0.6650680E-10 Eh
   gradient norm :    25.4999334 Eh/α   predicted     0.0000000E+00 (-100.00%)
   displ. norm   :     0.9067597 α      lambda       -0.2312230E+02
   maximum displ.:     0.9021640 α      in ANC's #46, #61, #62, ...

........................................................................
.............................. CYCLE    2 ..............................
........................................................................

 iter      E             dE          RMSdq      gap      omega  full diag
   1    -42.6050179 -0.426050E+02  0.193E+00    2.80       0.0  T
   2    -42.6271461 -0.221282E-01  0.150E+00    2.72       1.0  T
   3    -42.6676277 -0.404817E-01  0.713E-01    3.06       1.0  T
   4    -42.6699401 -0.231242E-02  0.319E-01    2.96       1.0  T
   5    -42.6702249 -0.284754E-03  0.133E-01    3.05       1.0  T
   6    -42.6706868 -0.461932E-03  0.299E-02    3.01       1.0  T
   7    -42.6706939 -0.706873E-05  0.152E-02    3.01       1.3  T
   8    -42.6706945 -0.566063E-06  0.318E-03    3.01       6.3  T
   9    -42.6706946 -0.105954E-06  0.133E-03    3.01      15.0  T
  10    -42.6706946 -0.698029E-08  0.602E-04    3.01      33.2  T
  11    -42.6706946 -0.242781E-08  0.156E-04    3.01     128.3  T
     SCC iter.                  ...        0 min,  0.014 sec
     gradient                   ...        0 min,  0.011 sec
 * total energy  :   -21.1790474 Eh     change       -0.1957486E+02 Eh
   gradient norm :    17.6644628 Eh/α   predicted    -0.2106689E+02 (   7.62%)
   displ. norm   :     0.7893394 α      lambda       -0.1389843E+02
   maximum displ.:     0.7750860 α      in ANC's #46, #61, #62, ...

........................................................................
.............................. CYCLE    3 ..............................
........................................................................

 iter      E             dE          RMSdq      gap      omega  full diag
   1    -42.3621629 -0.423622E+02  0.154E+00    0.93       0.0  T
   2    -42.2728138  0.893492E-01  0.254E+00    1.66       1.0  T
   3    -42.4599971 -0.187183E+00  0.826E-01    1.62       1.0  T
   4    -42.4564539  0.354323E-02  0.718E-01    1.22       1.0  T
   5    -42.4645349 -0.808102E-02  0.403E-01    1.54       1.0  T
   6    -42.4673956 -0.286064E-02  0.119E-01    1.33       1.0  T
   7    -42.4677649 -0.369322E-03  0.430E-02    1.39       1.0  T
   8    -42.4677958 -0.308941E-04  0.201E-02    1.38       1.0  T
   9    -42.4677991 -0.333211E-05  0.102E-02    1.38       2.0  T
  10    -42.4678002 -0.112432E-05  0.379E-03    1.38       5.3  T
  11    -42.4678006 -0.333377E-06  0.127E-03    1.38      15.8  T
  12    -42.4678006 -0.251659E-07  0.359E-04    1.38      55.7  T
  13    -42.4678006 -0.178657E-08  0.121E-04    1.38     165.0  T
     SCC iter.                  ...        0 min,  0.016 sec
     gradient                   ...        0 min,  0.011 sec
 * total energy  :   -32.4790566 Eh     change       -0.1130001E+02 Eh
   gradient norm :    11.0902803 Eh/α   predicted    -0.1129458E+02 (  -0.05%)
   displ. norm   :     0.7648774 α      lambda       -0.8228014E+01
   maximum displ.:     0.6591853 α      in ANC's #46, #2, #63, ...

........................................................................
.............................. CYCLE    4 ..............................
........................................................................

 iter      E             dE          RMSdq      gap      omega  full diag
   1    -42.2081829 -0.422082E+02  0.151E+00    0.54       0.0  T
   2    -41.7913073  0.416876E+00  0.302E+00    1.25       1.0  T
   3    -42.2546621 -0.463355E+00  0.641E-01    0.79       1.0  T
   4    -42.2503189  0.434322E-02  0.662E-01    0.99       1.0  T
   5    -42.2571470 -0.682803E-02  0.411E-01    0.99       1.0  T
   6    -42.2610213 -0.387434E-02  0.260E-01    0.94       1.0  T
   7    -42.2633273 -0.230597E-02  0.502E-02    0.89       1.0  T
   8    -42.2633741 -0.467890E-04  0.294E-02    0.89       1.0  T
   9    -42.2633917 -0.176717E-04  0.154E-02    0.89       1.3  T
  10    -42.2633963 -0.457082E-05  0.542E-03    0.89       3.7  T
  11    -42.2633964 -0.120009E-06  0.408E-03    0.89       4.9  T
  12    -42.2633969 -0.427975E-06  0.612E-04    0.89      32.7  T
  13    -42.2633968  0.507775E-08  0.502E-04    0.89      39.8  T
     SCC iter.                  ...        0 min,  0.016 sec
     gradient                   ...        0 min,  0.011 sec
 * total energy  :   -38.8783607 Eh     change       -0.6399304E+01 Eh
   gradient norm :     6.0867583 Eh/α   predicted    -0.6520871E+01 (   1.90%)
   displ. norm   :     0.6073532 α      lambda       -0.3605943E+01
   maximum displ.:     0.5344796 α      in ANC's #46, #2, #63, ...

........................................................................
.............................. CYCLE    5 ..............................
........................................................................

 iter      E             dE          RMSdq      gap      omega  full diag
   1    -42.0363754 -0.420364E+02  0.184E+00    0.46       0.0  T
   2    -41.6544752  0.381900E+00  0.312E+00    0.48       1.0  T
   3    -42.0823382 -0.427863E+00  0.975E-01    0.63       1.0  T
   4    -41.9508698  0.131468E+00  0.188E+00    0.28       1.0  T
   5    -42.1284095 -0.177540E+00  0.277E-01    0.48       1.0  T
   6    -42.1299044 -0.149487E-02  0.130E-01    0.49       1.0  T
   7    -42.1297873  0.117090E-03  0.987E-02    0.51       1.0  T
   8    -42.1302122 -0.424881E-03  0.425E-02    0.50       1.0  T
   9    -42.1302581 -0.459657E-04  0.132E-02    0.50       1.5  T
  10    -42.1302583 -0.190199E-06  0.743E-03    0.50       2.7  T
  11    -42.1302595 -0.122820E-05  0.380E-03    0.50       5.3  T
  12    -42.1302602 -0.627645E-06  0.759E-04    0.50      26.4  T
  13    -42.1302602 -0.973060E-08  0.328E-04    0.50      60.9  T
     SCC iter.                  ...        0 min,  0.016 sec
     gradient                   ...        0 min,  0.011 sec
 * total energy  :   -41.2593110 Eh     change       -0.2380950E+01 Eh
   gradient norm :     1.8573042 Eh/α   predicted    -0.2468083E+01 (   3.66%)
   displ. norm   :     0.3643754 α      lambda       -0.5273057E+00
   maximum displ.:     0.2802639 α      in ANC's #2, #46, #65, ...

........................................................................
.............................. CYCLE    6 ..............................
........................................................................

 iter      E             dE          RMSdq      gap      omega  full diag
   1    -41.9771847 -0.419772E+02  0.141E+00    0.32       0.0  T
   2    -41.3666458  0.610539E+00  0.345E+00    0.40       1.0  T
   3    -42.0138701 -0.647224E+00  0.106E+00    0.55       1.0  T
   4    -41.9690631  0.448070E-01  0.128E+00    0.43       1.0  T
   5    -42.0652241 -0.961610E-01  0.225E-01    0.45       1.0  T
   6    -42.0653599 -0.135775E-03  0.157E-01    0.42       1.0  T
   7    -42.0659785 -0.618601E-03  0.462E-02    0.44       1.0  T
   8    -42.0660063 -0.278474E-04  0.265E-02    0.43       1.0  T
   9    -42.0660278 -0.214970E-04  0.130E-02    0.44       1.5  T
  10    -42.0660280 -0.147084E-06  0.988E-03    0.43       2.0  T
  11    -42.0660280 -0.701036E-08  0.696E-03    0.44       2.9  T
  12    -42.0660306 -0.257271E-05  0.271E-03    0.44       7.4  T
  13    -42.0660309 -0.307260E-06  0.807E-04    0.44      24.8  T
  14    -42.0660309 -0.255601E-07  0.389E-04    0.44      51.4  T
     SCC iter.                  ...        0 min,  0.017 sec
     gradient                   ...        0 min,  0.011 sec
 * total energy  :   -41.5432643 Eh     change       -0.2839533E+00 Eh
   gradient norm :     0.2869971 Eh/α   predicted    -0.2986620E+00 (   5.18%)
   displ. norm   :     0.2076629 α      lambda       -0.3289768E-01
   maximum displ.:     0.1861386 α      in ANC's #2, #1, #53, ...

........................................................................
.............................. CYCLE    7 ..............................
........................................................................

 iter      E             dE          RMSdq      gap      omega  full diag
   1    -42.0466887 -0.420467E+02  0.598E-01    0.36       0.0  T
   2    -41.9128396  0.133849E+00  0.165E+00    0.70       1.0  T
   3    -42.0459638 -0.133124E+00  0.481E-01    0.41       1.0  T
   4    -42.0378935  0.807029E-02  0.595E-01    0.54       1.0  T
   5    -42.0596360 -0.217425E-01  0.114E-01    0.46       1.0  T
   6    -42.0596332  0.277704E-05  0.782E-02    0.44       1.0  T
   7    -42.0597881 -0.154909E-03  0.225E-02    0.44       1.0  T
   8    -42.0598112 -0.230327E-04  0.648E-03    0.45       3.1  T
   9    -42.0598107  0.494735E-06  0.489E-03    0.45       4.1  T
  10    -42.0598123 -0.160095E-05  0.137E-03    0.45      14.6  T
  11    -42.0598122  0.688118E-07  0.129E-03    0.45      15.5  T
  12    -42.0598123 -0.103220E-06  0.223E-04    0.45      89.5  T
  13    -42.0598123 -0.326835E-09  0.119E-04    0.45     168.1  T
     SCC iter.                  ...        0 min,  0.016 sec
     gradient                   ...        0 min,  0.011 sec
 * total energy  :   -41.5699612 Eh     change       -0.2669688E-01 Eh
   gradient norm :     0.2578990 Eh/α   predicted    -0.1715822E-01 ( -35.73%)
   displ. norm   :     0.3649059 α      lambda       -0.5000112E-01
   maximum displ.:     0.2844157 α      in ANC's #2, #1, #52, ...

........................................................................
.............................. CYCLE    8 ..............................
........................................................................

 iter      E             dE          RMSdq      gap      omega  full diag
   1    -42.0296035 -0.420296E+02  0.938E-01    0.24       0.0  T
   2    -41.7355304  0.294073E+00  0.256E+00    0.76       1.0  T
   3    -42.0493402 -0.313810E+00  0.600E-01    0.38       1.0  T
   4    -42.0120133  0.373269E-01  0.925E-01    0.71       1.0  T
   5    -42.0651874 -0.531741E-01  0.188E-01    0.44       1.0  T
   6    -42.0653264 -0.139010E-03  0.911E-02    0.42       1.0  T
   7    -42.0655046 -0.178223E-03  0.404E-02    0.42       1.0  T
   8    -42.0655787 -0.740685E-04  0.111E-02    0.43       1.8  T
   9    -42.0655766  0.207093E-05  0.861E-03    0.43       2.3  T
  10    -42.0655805 -0.386212E-05  0.387E-03    0.43       5.2  T
  11    -42.0655810 -0.446396E-06  0.199E-03    0.43      10.0  T
  12    -42.0655811 -0.148517E-06  0.976E-04    0.43      20.5  T
  13    -42.0655811 -0.461190E-07  0.285E-04    0.43      70.1  T
     SCC iter.                  ...        0 min,  0.016 sec
     gradient                   ...        0 min,  0.011 sec
 * total energy  :   -41.6070681 Eh     change       -0.3710686E-01 Eh
   gradient norm :     0.2545163 Eh/α   predicted    -0.2832958E-01 ( -23.65%)
   displ. norm   :     0.2975656 α      lambda       -0.3818035E-01
   maximum displ.:     0.2102465 α      in ANC's #2, #52, #18, ...

........................................................................
.............................. CYCLE    9 ..............................
........................................................................

 iter      E             dE          RMSdq      gap      omega  full diag
   1    -42.0666971 -0.420667E+02  0.773E-01    0.17       0.0  T
   2    -41.8989096  0.167787E+00  0.208E+00    0.63       1.0  T
   3    -42.0859391 -0.187029E+00  0.388E-01    0.28       1.0  T
   4    -42.0519917  0.339474E-01  0.786E-01    0.61       1.0  T
   5    -42.0889996 -0.370079E-01  0.226E-01    0.33       1.0  T
   6    -42.0901116 -0.111201E-02  0.599E-02    0.34       1.0  T
   7    -42.0902626 -0.150990E-03  0.226E-02    0.32       1.0  T
   8    -42.0902641 -0.146434E-05  0.160E-02    0.32       1.2  T
   9    -42.0902698 -0.573694E-05  0.702E-03    0.33       2.8  T
  10    -42.0902702 -0.408053E-06  0.521E-03    0.32       3.8  T
  11    -42.0902710 -0.703440E-06  0.198E-03    0.32      10.1  T
  12    -42.0902710 -0.952954E-07  0.109E-03    0.33      18.4  T
  13    -42.0902711 -0.553052E-07  0.358E-04    0.33      55.9  T
  14    -42.0902711 -0.461995E-08  0.116E-04    0.33     172.2  T
     SCC iter.                  ...        0 min,  0.017 sec
     gradient                   ...        0 min,  0.011 sec
 * total energy  :   -41.6359112 Eh     change       -0.2884312E-01 Eh
   gradient norm :     0.2165510 Eh/α   predicted    -0.2078058E-01 ( -27.95%)
   displ. norm   :     0.2992694 α      lambda       -0.3748875E-01
   maximum displ.:     0.1169745 α      in ANC's #2, #18, #52, ...

........................................................................
.............................. CYCLE   10 ..............................
........................................................................

 iter      E             dE          RMSdq      gap      omega  full diag
   1    -42.1222902 -0.421223E+02  0.735E-01    0.09       0.0  T
   2    -42.0385811  0.837091E-01  0.160E+00    0.38       1.0  T
   3    -42.1298960 -0.913148E-01  0.443E-01    0.26       1.0  T
   4    -42.0934880  0.364080E-01  0.816E-01    0.25       1.0  T
   5    -42.1336882 -0.402002E-01  0.300E-01    0.25       1.0  T
   6    -42.1369096 -0.322140E-02  0.801E-02    0.18       1.0  T
   7    -42.1370849 -0.175374E-03  0.345E-02    0.17       1.0  T
   8    -42.1370765  0.842735E-05  0.283E-02    0.16       1.0  T
   9    -42.1371045 -0.280097E-04  0.134E-02    0.16       1.5  T
  10    -42.1371125 -0.798234E-05  0.491E-03    0.16       4.1  T
  11    -42.1371130 -0.530599E-06  0.178E-03    0.16      11.2  T
  12    -42.1371130  0.405792E-08  0.117E-03    0.16      17.1  T
  13    -42.1371131 -0.622524E-07  0.449E-04    0.16      44.6  T
  14    -42.1371131 -0.842179E-08  0.827E-05    0.16     241.9  T
     SCC iter.                  ...        0 min,  0.017 sec
     gradient                   ...        0 min,  0.011 sec
 * total energy  :   -41.6646145 Eh     change       -0.2870337E-01 Eh
   gradient norm :     0.2113535 Eh/α   predicted    -0.2042318E-01 ( -28.85%)
   displ. norm   :     0.3736381 α      lambda       -0.4630865E-01
   maximum displ.:     0.1299497 α      in ANC's #18, #33, #19, ...

........................................................................
.............................. CYCLE   11 ..............................
........................................................................

 iter      E             dE          RMSdq      gap      omega  full diag
   1    -42.1977418 -0.421977E+02  0.665E-01    0.04       0.0  T
   2    -42.1147807  0.829610E-01  0.141E+00    0.44       1.0  T
   3    -42.1885755 -0.737947E-01  0.600E-01    0.24       1.0  T
   4    -42.1839313  0.464417E-02  0.675E-01    0.33       1.0  T
   5    -42.2055440 -0.216127E-01  0.211E-01    0.10       1.0  T
   6    -42.2063876 -0.843632E-03  0.698E-02    0.09       1.0  T
   7    -42.2065352 -0.147559E-03  0.285E-02    0.09       1.0  T
   8    -42.2065493 -0.140879E-04  0.139E-02    0.09       1.4  T
   9    -42.2065528 -0.356832E-05  0.592E-03    0.08       3.4  T
  10    -42.2065536 -0.750034E-06  0.230E-03    0.09       8.7  T
  11    -42.2065535  0.112084E-06  0.177E-03    0.09      11.3  T
  12    -42.2065536 -0.153585E-06  0.376E-04    0.09      53.1  T
  13    -42.2065536 -0.230435E-08  0.200E-04    0.09      99.8  T
     SCC iter.                  ...        0 min,  0.016 sec
     gradient                   ...        0 min,  0.011 sec
 * total energy  :   -41.7016213 Eh     change       -0.3700673E-01 Eh
   gradient norm :     0.2651291 Eh/α   predicted    -0.2638884E-01 ( -28.69%)
   displ. norm   :     0.5164488 α      lambda       -0.6226464E-01
   maximum displ.:     0.2087539 α      in ANC's #2, #18, #33, ...

........................................................................
.............................. CYCLE   12 ..............................
........................................................................

 iter      E             dE          RMSdq      gap      omega  full diag
   1    -42.2799058 -0.422799E+02  0.881E-01    0.16       0.0  T
   2    -41.9963063  0.283600E+00  0.236E+00    1.40       1.0  T
   3    -42.2957914 -0.299485E+00  0.423E-01    0.06       1.0  T
   4    -42.2962191 -0.427690E-03  0.347E-01    0.19       1.0  T
   5    -42.2979491 -0.173002E-02  0.200E-01    0.18       1.0  T
   6    -42.2991466 -0.119753E-02  0.800E-02    0.17       1.0  T
   7    -42.2993762 -0.229560E-03  0.291E-02    0.15       1.0  T
   8    -42.2993967 -0.205070E-04  0.131E-02    0.14       1.5  T
   9    -42.2993998 -0.311311E-05  0.811E-03    0.14       2.5  T
  10    -42.2994023 -0.249185E-05  0.171E-03    0.14      11.7  T
  11    -42.2994024 -0.453180E-07  0.916E-04    0.14      21.8  T
  12    -42.2994024 -0.166127E-07  0.342E-04    0.14      58.5  T
     SCC iter.                  ...        0 min,  0.015 sec
     gradient                   ...        0 min,  0.011 sec
 * total energy  :   -41.7470080 Eh     change       -0.4538670E-01 Eh
   gradient norm :     0.3031897 Eh/α   predicted    -0.3943595E-01 ( -13.11%)
   displ. norm   :     0.3291559 α      lambda       -0.3093334E-01
   maximum displ.:     0.1368376 α      in ANC's #2, #18, #33, ...

........................................................................
.............................. CYCLE   13 ..............................
........................................................................

 iter      E             dE          RMSdq      gap      omega  full diag
   1    -42.3338479 -0.423338E+02  0.574E-01    0.07       0.0  T
   2    -42.2267908  0.107057E+00  0.152E+00    0.97       1.0  T
   3    -42.3365380 -0.109747E+00  0.413E-01    0.04       1.0  T
   4    -42.3406599 -0.412193E-02  0.247E-01    0.16       1.0  T
   5    -42.3419583 -0.129843E-02  0.108E-01    0.13       1.0  T
   6    -42.3422561 -0.297782E-03  0.347E-02    0.15       1.0  T
   7    -42.3422890 -0.328939E-04  0.112E-02    0.15       1.8  T
   8    -42.3422905 -0.147880E-05  0.513E-03    0.15       3.9  T
   9    -42.3422909 -0.376012E-06  0.159E-03    0.15      12.6  T
  10    -42.3422909 -0.307433E-07  0.723E-04    0.15      27.7  T
  11    -42.3422909 -0.297922E-08  0.286E-04    0.15      70.0  T
     SCC iter.                  ...        0 min,  0.013 sec
     gradient                   ...        0 min,  0.011 sec
 * total energy  :   -41.7646737 Eh     change       -0.1766574E-01 Eh
   gradient norm :     0.2213956 Eh/α   predicted    -0.1714256E-01 (  -2.96%)
   displ. norm   :     0.2544239 α      lambda       -0.1683436E-01
   maximum displ.:     0.2282254 α      in ANC's #1, #18, #33, ...

........................................................................
.............................. CYCLE   14 ..............................
........................................................................

 iter      E             dE          RMSdq      gap      omega  full diag
   1    -42.3412241 -0.423412E+02  0.366E-01    0.29       0.0  T
   2    -42.2871720  0.540521E-01  0.111E+00    0.39       1.0  T
   3    -42.3434558 -0.562838E-01  0.200E-01    0.22       1.0  T
   4    -42.3429966  0.459143E-03  0.200E-01    0.17       1.0  T
   5    -42.3442646 -0.126797E-02  0.445E-02    0.17       1.0  T
   6    -42.3443185 -0.539438E-04  0.151E-02    0.16       1.3  T
   7    -42.3443238 -0.527230E-05  0.576E-03    0.16       3.5  T
   8    -42.3443244 -0.570278E-06  0.287E-03    0.16       7.0  T
   9    -42.3443245 -0.150729E-06  0.625E-04    0.17      32.0  T
  10    -42.3443245 -0.431196E-08  0.230E-04    0.17      86.8  T
     SCC iter.                  ...        0 min,  0.012 sec
     gradient                   ...        0 min,  0.011 sec
 * total energy  :   -41.7739756 Eh     change       -0.9301852E-02 Eh
   gradient norm :     0.2584539 Eh/α   predicted    -0.8963780E-02 (  -3.63%)
   displ. norm   :     0.6708654 α      lambda       -0.9251909E-01
   maximum displ.:     0.3751492 α      in ANC's #1, #2, #18, ...

........................................................................
.............................. CYCLE   15 ..............................
........................................................................

 iter      E             dE          RMSdq      gap      omega  full diag
   1    -42.3371150 -0.423371E+02  0.107E+00    0.68       0.0  T
   2    -41.9460449  0.391070E+00  0.313E+00    1.23       1.0  T
   3    -42.3651243 -0.419079E+00  0.461E-01    0.38       1.0  T
   4    -42.3646605  0.463815E-03  0.337E-01    0.32       1.0  T
   5    -42.3643704  0.290016E-03  0.307E-01    0.27       1.0  T
   6    -42.3678951 -0.352469E-02  0.526E-02    0.28       1.0  T
   7    -42.3679558 -0.606791E-04  0.161E-02    0.27       1.2  T
   8    -42.3679576 -0.176425E-05  0.107E-02    0.27       1.9  T
   9    -42.3679596 -0.198239E-05  0.352E-03    0.27       5.7  T
  10    -42.3679598 -0.204683E-06  0.121E-03    0.27      16.5  T
  11    -42.3679598 -0.350369E-10  0.593E-04    0.27      33.7  T
  12    -42.3679598 -0.734152E-08  0.269E-04    0.27      74.5  T
     SCC iter.                  ...        0 min,  0.015 sec
     gradient                   ...        0 min,  0.011 sec
 * total energy  :   -41.7977910 Eh     change       -0.2381542E-01 Eh
   gradient norm :     0.6468699 Eh/α   predicted    -0.6709054E-01 ( 181.71%)
   displ. norm   :     0.2133549 α      lambda       -0.5014835E-01
   maximum displ.:     0.1760532 α      in ANC's #1, #2, #46, ...

........................................................................
.............................. CYCLE   16 ..............................
........................................................................

 iter      E             dE          RMSdq      gap      omega  full diag
   1    -42.3815239 -0.423815E+02  0.308E-01    0.23       0.0  T
   2    -42.3714832  0.100406E-01  0.526E-01    0.51       1.0  T
   3    -42.3792711 -0.778791E-02  0.322E-01    0.14       1.0  T
   4    -42.3816355 -0.236434E-02  0.213E-01    0.33       1.0  T
   5    -42.3827882 -0.115272E-02  0.978E-02    0.27       1.0  T
   6    -42.3830479 -0.259744E-03  0.160E-02    0.28       1.3  T
   7    -42.3830561 -0.818307E-05  0.488E-03    0.28       4.1  T
   8    -42.3830564 -0.314996E-06  0.218E-03    0.27       9.2  T
   9    -42.3830565 -0.319929E-07  0.673E-04    0.27      29.7  T
  10    -42.3830565 -0.636159E-08  0.251E-04    0.27      79.7  T
     SCC iter.                  ...        0 min,  0.012 sec
     gradient                   ...        0 min,  0.011 sec
 * total energy  :   -41.8301454 Eh     change       -0.3235441E-01 Eh
   gradient norm :     0.2454531 Eh/α   predicted    -0.2621571E-01 ( -18.97%)
   displ. norm   :     0.2351522 α      lambda       -0.1892130E-01
   maximum displ.:     0.0905735 α      in ANC's #18, #33, #19, ...

........................................................................
.............................. CYCLE   17 ..............................
........................................................................

 iter      E             dE          RMSdq      gap      omega  full diag
   1    -42.4049467 -0.424049E+02  0.308E-01    0.41       0.0  T
   2    -42.3738324  0.311143E-01  0.878E-01    0.10       1.0  T
   3    -42.4052451 -0.314127E-01  0.224E-01    0.39       1.0  T
   4    -42.4052948 -0.496453E-04  0.202E-01    0.31       1.0  T
   5    -42.4066689 -0.137414E-02  0.320E-02    0.31       1.0  T
   6    -42.4066927 -0.237901E-04  0.105E-02    0.31       1.9  T
   7    -42.4066943 -0.166281E-05  0.576E-03    0.31       3.5  T
   8    -42.4066951 -0.805864E-06  0.127E-03    0.31      15.7  T
   9    -42.4066952 -0.261199E-07  0.585E-04    0.31      34.2  T
  10    -42.4066952 -0.216867E-08  0.351E-04    0.31      57.0  T
     SCC iter.                  ...        0 min,  0.012 sec
     gradient                   ...        0 min,  0.011 sec
 * total energy  :   -41.8436527 Eh     change       -0.1350727E-01 Eh
   gradient norm :     0.1600462 Eh/α   predicted    -0.9984688E-02 ( -26.08%)
   displ. norm   :     0.2425602 α      lambda       -0.1495179E-01
   maximum displ.:     0.0913123 α      in ANC's #18, #33, #19, ...

........................................................................
.............................. CYCLE   18 ..............................
........................................................................

 iter      E             dE          RMSdq      gap      omega  full diag
   1    -42.4167852 -0.424168E+02  0.383E-01    0.47       0.0  T
   2    -42.3595285  0.572567E-01  0.119E+00    0.20       1.0  T
   3    -42.4169441 -0.574157E-01  0.309E-01    0.47       1.0  T
   4    -42.4187839 -0.183977E-02  0.203E-01    0.37       1.0  T
   5    -42.4200401 -0.125626E-02  0.410E-02    0.35       1.0  T
   6    -42.4200697 -0.295575E-04  0.127E-02    0.35       1.6  T
   7    -42.4200737 -0.403840E-05  0.414E-03    0.35       4.8  T
   8    -42.4200738 -0.553420E-07  0.200E-03    0.35      10.0  T
   9    -42.4200738 -0.305181E-07  0.994E-04    0.35      20.1  T
  10    -42.4200738 -0.249190E-07  0.396E-04    0.35      50.4  T
     SCC iter.                  ...        0 min,  0.012 sec
     gradient                   ...        0 min,  0.011 sec
 * total energy  :   -41.8555425 Eh     change       -0.1188980E-01 Eh
   gradient norm :     0.2167409 Eh/α   predicted    -0.7915819E-02 ( -33.42%)
   displ. norm   :     0.3638534 α      lambda       -0.2313539E-01
   maximum displ.:     0.1335416 α      in ANC's #18, #33, #45, ...

........................................................................
.............................. CYCLE   19 ..............................
........................................................................

 iter      E             dE          RMSdq      gap      omega  full diag
   1    -42.4247131 -0.424247E+02  0.561E-01    0.56       0.0  T
   2    -42.3247817  0.999314E-01  0.159E+00    0.31       1.0  T
   3    -42.4199775 -0.951958E-01  0.575E-01    0.64       1.0  T
   4    -42.4286426 -0.866517E-02  0.291E-01    0.45       1.0  T
   5    -42.4309766 -0.233394E-02  0.953E-02    0.42       1.0  T
   6    -42.4311647 -0.188118E-03  0.324E-02    0.41       1.0  T
   7    -42.4311937 -0.290409E-04  0.893E-03    0.40       2.2  T
   8    -42.4311945 -0.803476E-06  0.506E-03    0.40       4.0  T
   9    -42.4311950 -0.464495E-06  0.173E-03    0.40      11.6  T
  10    -42.4311951 -0.811349E-07  0.570E-04    0.40      35.1  T
  11    -42.4311951 -0.470529E-08  0.213E-04    0.40      93.7  T
     SCC iter.                  ...        0 min,  0.014 sec
     gradient                   ...        0 min,  0.011 sec
 * total energy  :   -41.8733222 Eh     change       -0.1777974E-01 Eh
   gradient norm :     0.2573607 Eh/α   predicted    -0.1309934E-01 ( -26.32%)
   displ. norm   :     0.3664833 α      lambda       -0.2156562E-01
   maximum displ.:     0.1310897 α      in ANC's #18, #45, #42, ...

........................................................................
.............................. CYCLE   20 ..............................
........................................................................

 iter      E             dE          RMSdq      gap      omega  full diag
   1    -42.4286123 -0.424286E+02  0.516E-01    0.57       0.0  T
   2    -42.3502988  0.783135E-01  0.142E+00    0.18       1.0  T
   3    -42.4218930 -0.715942E-01  0.599E-01    0.69       1.0  T
   4    -42.4316877 -0.979462E-02  0.274E-01    0.51       1.0  T
   5    -42.4334933 -0.180567E-02  0.123E-01    0.48       1.0  T
   6    -42.4338530 -0.359692E-03  0.429E-02    0.45       1.0  T
   7    -42.4339006 -0.475522E-04  0.136E-02    0.45       1.5  T
   8    -42.4339033 -0.271034E-05  0.925E-03    0.44       2.2  T
   9    -42.4339052 -0.188759E-05  0.297E-03    0.44       6.7  T
  10    -42.4339054 -0.243550E-06  0.411E-04    0.44      48.6  T
  11    -42.4339054 -0.443045E-09  0.221E-04    0.44      90.6  T
     SCC iter.                  ...        0 min,  0.014 sec
     gradient                   ...        0 min,  0.011 sec
 * total energy  :   -41.8887478 Eh     change       -0.1542555E-01 Eh
   gradient norm :     0.1991315 Eh/α   predicted    -0.1223127E-01 ( -20.71%)
   displ. norm   :     0.2489609 α      lambda       -0.1259155E-01
   maximum displ.:     0.0901329 α      in ANC's #45, #18, #42, ...
 * RMSD in coord.:     0.9734003 α      energy gain  -0.4028456E+02 Eh

generating ANC from model Hessian ...
Using Lindh-Hessian (1995)
 Shifting diagonal of input Hessian by    1.0645563820817159E-002
 Lowest  eigenvalues of input Hessian
    0.010000    0.010133    0.000000    0.000000    0.000000    0.000000
    0.000000    0.000000    0.011535    0.011783    0.012294    0.012676
    0.013258    0.013736    0.018741    0.021241    0.022064    0.023373
 Highest eigenvalues
    2.011515    2.143102    2.307050    2.340695    2.689491    8.493492


........................................................................
.............................. CYCLE   21 ..............................
........................................................................

 iter      E             dE          RMSdq      gap      omega  full diag
   1    -42.4336385 -0.424336E+02  0.267E-01    0.53       0.0  T
   2    -42.4183647  0.152738E-01  0.630E-01    0.18       1.0  T
   3    -42.4306662 -0.123015E-01  0.351E-01    0.61       1.0  T
   4    -42.4340636 -0.339733E-02  0.142E-01    0.51       1.0  T
   5    -42.4343853 -0.321723E-03  0.907E-02    0.48       1.0  T
   6    -42.4346101 -0.224866E-03  0.308E-02    0.48       1.0  T
   7    -42.4346360 -0.258986E-04  0.121E-02    0.47       1.6  T
   8    -42.4346391 -0.303682E-05  0.683E-03    0.47       2.9  T
   9    -42.4346402 -0.113513E-05  0.160E-03    0.47      12.5  T
  10    -42.4346403 -0.633855E-07  0.289E-04    0.47      69.2  T
  11    -42.4346403 -0.422766E-09  0.165E-04    0.47     121.1  T
     SCC iter.                  ...        0 min,  0.014 sec
     gradient                   ...        0 min,  0.011 sec
 * total energy  :   -41.8977890 Eh     change       -0.9041267E-02 Eh
   gradient norm :     0.1375603 Eh/α   predicted     0.0000000E+00 (-100.00%)
   displ. norm   :     0.5368351 α      lambda       -0.3570623E-01
   maximum displ.:     0.3386180 α      in ANC's #15, #10, #14, ...

........................................................................
.............................. CYCLE   22 ..............................
........................................................................

 iter      E             dE          RMSdq      gap      omega  full diag
   1    -42.4602363 -0.424602E+02  0.555E-01    0.63       0.0  T
   2    -42.3981063  0.621300E-01  0.132E+00    0.04       1.0  T
   3    -42.4475108 -0.494046E-01  0.716E-01    0.83       1.0  T
   4    -42.4619232 -0.144124E-01  0.336E-01    0.57       1.0  T
   5    -42.4643129 -0.238969E-02  0.136E-01    0.56       1.0  T
   6    -42.4647987 -0.485787E-03  0.356E-02    0.52       1.0  T
   7    -42.4648224 -0.237655E-04  0.181E-02    0.52       1.1  T
   8    -42.4648302 -0.772212E-05  0.491E-03    0.52       4.1  T
   9    -42.4648305 -0.302708E-06  0.890E-04    0.51      22.5  T
  10    -42.4648305 -0.431356E-08  0.451E-04    0.51      44.3  T
     SCC iter.                  ...        0 min,  0.012 sec
     gradient                   ...        0 min,  0.011 sec
 * total energy  :   -41.9250562 Eh     change       -0.2726718E-01 Eh
   gradient norm :     0.0665950 Eh/α   predicted    -0.2318265E-01 ( -14.98%)
   displ. norm   :     0.5842590 α      lambda       -0.2062087E-01
   maximum displ.:     0.3962069 α      in ANC's #15, #10, #14, ...

........................................................................
.............................. CYCLE   23 ..............................
........................................................................

 iter      E             dE          RMSdq      gap      omega  full diag
   1    -42.4879459 -0.424879E+02  0.464E-01    0.65       0.0  T
   2    -42.4529109  0.350350E-01  0.101E+00    0.17       1.0  T
   3    -42.4800592 -0.271483E-01  0.579E-01    0.82       1.0  T
   4    -42.4894959 -0.943664E-02  0.259E-01    0.57       1.0  T
   5    -42.4908651 -0.136927E-02  0.104E-01    0.60       1.0  T
   6    -42.4911417 -0.276547E-03  0.291E-02    0.57       1.0  T
   7    -42.4911605 -0.188175E-04  0.116E-02    0.57       1.7  T
   8    -42.4911629 -0.244810E-05  0.371E-03    0.56       5.4  T
   9    -42.4911631 -0.146413E-06  0.940E-04    0.56      21.3  T
  10    -42.4911631 -0.111884E-07  0.412E-04    0.56      48.6  T
     SCC iter.                  ...        0 min,  0.012 sec
     gradient                   ...        0 min,  0.011 sec
 * total energy  :   -41.9396627 Eh     change       -0.1460650E-01 Eh
   gradient norm :     0.0443840 Eh/α   predicted    -0.1383000E-01 (  -5.32%)
   displ. norm   :     0.5196678 α      lambda       -0.9884287E-02
   maximum displ.:     0.3521635 α      in ANC's #15, #10, #17, ...

........................................................................
.............................. CYCLE   24 ..............................
........................................................................

 iter      E             dE          RMSdq      gap      omega  full diag
   1    -42.5021230 -0.425021E+02  0.322E-01    0.65       0.0  T
   2    -42.4921659  0.995706E-02  0.567E-01    0.41       1.0  T
   3    -42.4990249 -0.685894E-02  0.366E-01    0.77       1.0  T
   4    -42.5019213 -0.289638E-02  0.222E-01    0.56       1.0  T
   5    -42.5033424 -0.142116E-02  0.454E-02    0.62       1.0  T
   6    -42.5033856 -0.431337E-04  0.155E-02    0.61       1.3  T
   7    -42.5033914 -0.583407E-05  0.583E-03    0.61       3.4  T
   8    -42.5033916 -0.192736E-06  0.239E-03    0.61       8.4  T
   9    -42.5033917 -0.997169E-07  0.730E-04    0.61      27.4  T
  10    -42.5033917 -0.552627E-08  0.330E-04    0.61      60.7  T
     SCC iter.                  ...        0 min,  0.012 sec
     gradient                   ...        0 min,  0.011 sec
 * total energy  :   -41.9474461 Eh     change       -0.7783353E-02 Eh
   gradient norm :     0.0615578 Eh/α   predicted    -0.6276873E-02 ( -19.36%)
   displ. norm   :     0.6273561 α      lambda       -0.1035553E-01
   maximum displ.:     0.4252266 α      in ANC's #15, #13, #10, ...

........................................................................
.............................. CYCLE   25 ..............................
........................................................................

 iter      E             dE          RMSdq      gap      omega  full diag
   1    -42.5120636 -0.425121E+02  0.482E-01    0.78       0.0  T
   2    -42.4907301  0.213335E-01  0.840E-01    0.43       1.0  T
   3    -42.5064337 -0.157036E-01  0.519E-01    0.94       1.0  T
   4    -42.5121792 -0.574551E-02  0.311E-01    0.63       1.0  T
   5    -42.5148892 -0.270999E-02  0.721E-02    0.73       1.0  T
   6    -42.5150023 -0.113028E-03  0.136E-02    0.71       1.5  T
   7    -42.5150052 -0.289485E-05  0.790E-03    0.71       2.5  T
   8    -42.5150055 -0.388270E-06  0.424E-03    0.71       4.7  T
   9    -42.5150059 -0.385879E-06  0.136E-03    0.71      14.7  T
  10    -42.5150060 -0.285110E-07  0.424E-04    0.71      47.2  T
  11    -42.5150060 -0.954707E-09  0.170E-04    0.71     117.6  T
     SCC iter.                  ...        0 min,  0.014 sec
     gradient                   ...        0 min,  0.011 sec
 * total energy  :   -41.9574526 Eh     change       -0.1000657E-01 Eh
   gradient norm :     0.0665047 Eh/α   predicted    -0.7215608E-02 ( -27.89%)
   displ. norm   :     0.9013048 α      lambda       -0.1838557E-01
   maximum displ.:     0.5935450 α      in ANC's #15, #13, #17, ...

........................................................................
.............................. CYCLE   26 ..............................
........................................................................

 iter      E             dE          RMSdq      gap      omega  full diag
   1    -42.5175632 -0.425176E+02  0.930E-01    1.11       0.0  T
   2    -42.3950372  0.122526E+00  0.197E+00    0.02       1.0  T
   3    -42.5124429 -0.117406E+00  0.737E-01    1.19       1.0  T
   4    -42.5221751 -0.973221E-02  0.458E-01    0.91       1.0  T
   5    -42.5271872 -0.501209E-02  0.161E-01    0.90       1.0  T
   6    -42.5277971 -0.609871E-03  0.232E-02    0.88       1.0  T
   7    -42.5278086 -0.114911E-04  0.131E-02    0.88       1.5  T
   8    -42.5278096 -0.964866E-06  0.577E-03    0.89       3.5  T
   9    -42.5278102 -0.673149E-06  0.253E-03    0.89       7.9  T
  10    -42.5278104 -0.157051E-06  0.810E-04    0.89      24.7  T
  11    -42.5278104 -0.955188E-08  0.253E-04    0.88      78.9  T
     SCC iter.                  ...        0 min,  0.013 sec
     gradient                   ...        0 min,  0.011 sec
 * total energy  :   -41.9780423 Eh     change       -0.2058968E-01 Eh
   gradient norm :     0.1389540 Eh/α   predicted    -0.1666058E-01 ( -19.08%)
   displ. norm   :     0.8970327 α      lambda       -0.2471362E-01
   maximum displ.:     0.6381910 α      in ANC's #15, #13, #10, ...

........................................................................
.............................. CYCLE   27 ..............................
........................................................................

 iter      E             dE          RMSdq      gap      omega  full diag
   1    -42.5277166 -0.425277E+02  0.853E-01    1.05       0.0  T
   2    -42.4577493  0.699673E-01  0.151E+00    0.17       1.0  T
   3    -42.5186549 -0.609056E-01  0.737E-01    1.22       1.0  T
   4    -42.5346370 -0.159821E-01  0.250E-01    0.89       1.0  T
   5    -42.5350694 -0.432401E-03  0.145E-01    0.87       1.0  T
   6    -42.5356542 -0.584751E-03  0.184E-02    0.85       1.1  T
   7    -42.5356601 -0.598414E-05  0.791E-03    0.86       2.5  T
   8    -42.5356597  0.425952E-06  0.492E-03    0.86       4.1  T
   9    -42.5356605 -0.768738E-06  0.127E-03    0.86      15.7  T
  10    -42.5356605 -0.296896E-07  0.549E-04    0.86      36.4  T
  11    -42.5356605  0.604011E-09  0.421E-04    0.86      47.5  T
     SCC iter.                  ...        0 min,  0.013 sec
     gradient                   ...        0 min,  0.011 sec
 * total energy  :   -42.0042997 Eh     change       -0.2625743E-01 Eh
   gradient norm :     0.2094468 Eh/α   predicted    -0.2229999E-01 ( -15.07%)
   displ. norm   :     0.7868142 α      lambda       -0.2730500E-01
   maximum displ.:     0.5953718 α      in ANC's #15, #13, #10, ...

........................................................................
.............................. CYCLE   28 ..............................
........................................................................

 iter      E             dE          RMSdq      gap      omega  full diag
   1    -42.5410918 -0.425411E+02  0.656E-01    1.08       0.0  T
   2    -42.5266807  0.144111E-01  0.743E-01    0.64       1.0  T
   3    -42.5238049  0.287580E-02  0.793E-01    1.40       1.0  T
   4    -42.5445003 -0.206954E-01  0.182E-01    1.02       1.0  T
   5    -42.5445229 -0.225764E-04  0.106E-01    1.00       1.0  T
   6    -42.5449141 -0.391202E-03  0.154E-02    0.98       1.3  T
   7    -42.5449170 -0.290240E-05  0.734E-03    0.98       2.7  T
   8    -42.5449168  0.168805E-06  0.490E-03    0.99       4.1  T
   9    -42.5449175 -0.643918E-06  0.185E-03    0.98      10.8  T
  10    -42.5449176 -0.111276E-06  0.458E-04    0.98      43.7  T
  11    -42.5449176  0.633165E-09  0.282E-04    0.98      70.8  T
     SCC iter.                  ...        0 min,  0.014 sec
     gradient                   ...        0 min,  0.011 sec
 * total energy  :   -42.0287548 Eh     change       -0.2445505E-01 Eh
   gradient norm :     0.2494983 Eh/α   predicted    -0.2210445E-01 (  -9.61%)
   displ. norm   :     0.8273267 α      lambda       -0.8000427E-01
   maximum displ.:     0.2968394 α      in ANC's #15, #38, #16, ...

........................................................................
.............................. CYCLE   29 ..............................
........................................................................

 iter      E             dE          RMSdq      gap      omega  full diag
   1    -42.6028918 -0.426029E+02  0.135E+00    1.29       0.0  T
   2    -42.5784476  0.244442E-01  0.113E+00    0.70       1.0  T
   3    -42.5318262  0.466214E-01  0.155E+00    2.16       1.0  T
   4    -42.6089056 -0.770794E-01  0.376E-01    1.22       1.0  T
   5    -42.6102581 -0.135252E-02  0.199E-01    1.23       1.0  T
   6    -42.6118991 -0.164103E-02  0.309E-02    1.17       1.0  T
   7    -42.6119086 -0.948851E-05  0.117E-02    1.16       1.7  T
   8    -42.6119099 -0.128028E-05  0.403E-03    1.16       5.0  T
   9    -42.6119101 -0.230064E-06  0.160E-03    1.16      12.5  T
  10    -42.6119102 -0.219436E-07  0.849E-04    1.16      23.6  T
  11    -42.6119102 -0.129599E-07  0.435E-04    1.16      46.0  T
     SCC iter.                  ...        0 min,  0.014 sec
     gradient                   ...        0 min,  0.011 sec
 * total energy  :   -42.0414243 Eh     change       -0.1266947E-01 Eh
   gradient norm :     0.4360637 Eh/α   predicted    -0.6738257E-01 ( 431.85%)
   displ. norm   :     0.4805265 α      lambda       -0.8224258E-01
   maximum displ.:     0.2281308 α      in ANC's #15, #16, #38, ...

........................................................................
.............................. CYCLE   30 ..............................
........................................................................

 iter      E             dE          RMSdq      gap      omega  full diag
   1    -42.5816440 -0.425816E+02  0.721E-01    0.96       0.0  T
   2    -42.5829093 -0.126531E-02  0.418E-01    0.90       1.0  T
   3    -42.5683446  0.145647E-01  0.678E-01    1.32       1.0  T
   4    -42.5811110 -0.127664E-01  0.329E-01    0.81       1.0  T
   5    -42.5844515 -0.334049E-02  0.711E-02    1.01       1.0  T
   6    -42.5845892 -0.137753E-03  0.261E-02    0.98       1.0  T
   7    -42.5846059 -0.166797E-04  0.851E-03    0.98       2.3  T
   8    -42.5846061 -0.183279E-06  0.341E-03    0.98       5.9  T
   9    -42.5846064 -0.268768E-06  0.122E-03    0.98      16.4  T
  10    -42.5846064 -0.347858E-07  0.541E-04    0.98      37.0  T
  11    -42.5846064  0.171546E-08  0.382E-04    0.98      52.4  T
     SCC iter.                  ...        0 min,  0.014 sec
     gradient                   ...        0 min,  0.011 sec
 * total energy  :   -42.0739674 Eh     change       -0.3254311E-01 Eh
   gradient norm :     0.1614494 Eh/α   predicted    -0.5061646E-01 (  55.54%)
   displ. norm   :     0.5007086 α      lambda       -0.4066864E-01
   maximum displ.:     0.2570872 α      in ANC's #15, #13, #46, ...

........................................................................
.............................. CYCLE   31 ..............................
........................................................................

 iter      E             dE          RMSdq      gap      omega  full diag
   1    -42.5928674 -0.425929E+02  0.686E-01    1.10       0.0  T
   2    -42.5928193  0.480685E-04  0.481E-01    1.01       1.0  T
   3    -42.5879782  0.484104E-02  0.488E-01    1.29       1.0  T
   4    -42.5789157  0.906257E-02  0.682E-01    0.75       1.0  T
   5    -42.5956573 -0.167416E-01  0.469E-02    1.09       1.0  T
   6    -42.5957136 -0.562826E-04  0.210E-02    1.08       1.0  T
   7    -42.5957238 -0.102072E-04  0.917E-03    1.07       2.2  T
   8    -42.5957243 -0.472544E-06  0.578E-03    1.07       3.5  T
   9    -42.5957255 -0.127312E-05  0.928E-04    1.07      21.5  T
  10    -42.5957256 -0.109140E-07  0.525E-04    1.07      38.1  T
  11    -42.5957256 -0.359073E-08  0.244E-04    1.07      82.0  T
     SCC iter.                  ...        0 min,  0.014 sec
     gradient                   ...        0 min,  0.011 sec
 * total energy  :   -42.0847583 Eh     change       -0.1079093E-01 Eh
   gradient norm :     0.1934732 Eh/α   predicted    -0.2543233E-01 ( 135.68%)
   displ. norm   :     0.5128661 α      lambda       -0.3144404E-01
   maximum displ.:     0.3167665 α      in ANC's #15, #10, #2, ...

........................................................................
.............................. CYCLE   32 ..............................
........................................................................

 iter      E             dE          RMSdq      gap      omega  full diag
   1    -42.6221027 -0.426221E+02  0.453E-01    1.14       0.0  T
   2    -42.6092085  0.128942E-01  0.657E-01    0.76       1.0  T
   3    -42.6176779 -0.846942E-02  0.452E-01    1.28       1.0  T
   4    -42.6232361 -0.555821E-02  0.127E-01    1.04       1.0  T
   5    -42.6236505 -0.414344E-03  0.317E-02    1.07       1.0  T
   6    -42.6236826 -0.321443E-04  0.106E-02    1.06       1.9  T
   7    -42.6236833 -0.714355E-06  0.420E-03    1.06       4.8  T
   8    -42.6236833 -0.373326E-09  0.193E-03    1.06      10.4  T
   9    -42.6236835 -0.126803E-06  0.630E-04    1.06      31.8  T
  10    -42.6236835 -0.745062E-08  0.186E-04    1.06     107.8  T
     SCC iter.                  ...        0 min,  0.012 sec
     gradient                   ...        0 min,  0.011 sec
 * total energy  :   -42.1054801 Eh     change       -0.2072183E-01 Eh
   gradient norm :     0.1216437 Eh/α   predicted    -0.1985743E-01 (  -4.17%)
   displ. norm   :     0.5756972 α      lambda       -0.2657898E-01
   maximum displ.:     0.2432268 α      in ANC's #14, #16, #10, ...

........................................................................
.............................. CYCLE   33 ..............................
........................................................................

 iter      E             dE          RMSdq      gap      omega  full diag
   1    -42.6387430 -0.426387E+02  0.486E-01    1.06       0.0  T
   2    -42.6370447  0.169831E-02  0.390E-01    0.92       1.0  T
   3    -42.6309564  0.608831E-02  0.563E-01    1.32       1.0  T
   4    -42.6394825 -0.852606E-02  0.169E-01    0.97       1.0  T
   5    -42.6403454 -0.862951E-03  0.549E-02    1.07       1.0  T
   6    -42.6404284 -0.829199E-04  0.195E-02    1.05       1.0  T
   7    -42.6404369 -0.850177E-05  0.600E-03    1.04       3.3  T
   8    -42.6404374 -0.556208E-06  0.160E-03    1.04      12.5  T
   9    -42.6404375 -0.274811E-07  0.758E-04    1.04      26.4  T
  10    -42.6404375 -0.760978E-08  0.244E-04    1.04      82.0  T
     SCC iter.                  ...        0 min,  0.012 sec
     gradient                   ...        0 min,  0.011 sec
 * total energy  :   -42.1152600 Eh     change       -0.9779907E-02 Eh
   gradient norm :     0.1411378 Eh/α   predicted    -0.1769399E-01 (  80.92%)
   displ. norm   :     0.4147203 α      lambda       -0.1402104E-01
   maximum displ.:     0.2382149 α      in ANC's #10, #15, #13, ...

........................................................................
.............................. CYCLE   34 ..............................
........................................................................

 iter      E             dE          RMSdq      gap      omega  full diag
   1    -42.6518225 -0.426518E+02  0.340E-01    1.06       0.0  T
   2    -42.6517759  0.465765E-04  0.215E-01    1.02       1.0  T
   3    -42.6458185  0.595742E-02  0.402E-01    1.28       1.0  T
   4    -42.6515863 -0.576781E-02  0.104E-01    1.00       1.0  T
   5    -42.6519681 -0.381836E-03  0.131E-02    1.05       1.5  T
   6    -42.6519728 -0.462190E-05  0.617E-03    1.05       3.2  T
   7    -42.6519731 -0.341616E-06  0.343E-03    1.05       5.8  T
   8    -42.6519733 -0.199514E-06  0.597E-04    1.05      33.5  T
   9    -42.6519733 -0.409283E-08  0.301E-04    1.05      66.5  T
     SCC iter.                  ...        0 min,  0.011 sec
     gradient                   ...        0 min,  0.011 sec
 * total energy  :   -42.1234964 Eh     change       -0.8236342E-02 Eh
   gradient norm :     0.0620777 Eh/α   predicted    -0.8216284E-02 (  -0.24%)
   displ. norm   :     0.4537430 α      lambda       -0.9215700E-02
   maximum displ.:     0.3068732 α      in ANC's #10, #14, #15, ...

........................................................................
.............................. CYCLE   35 ..............................
........................................................................

 iter      E             dE          RMSdq      gap      omega  full diag
   1    -42.6511701 -0.426512E+02  0.349E-01    0.99       0.0  T
   2    -42.6489077  0.226243E-02  0.327E-01    1.18       1.0  T
   3    -42.6443619  0.454572E-02  0.465E-01    0.81       1.0  T
   4    -42.6514139 -0.705199E-02  0.880E-02    1.06       1.0  T
   5    -42.6515888 -0.174836E-03  0.118E-02    1.03       1.7  T
   6    -42.6515923 -0.348191E-05  0.561E-03    1.03       3.6  T
   7    -42.6515923 -0.594800E-08  0.383E-03    1.03       5.2  T
   8    -42.6515926 -0.331734E-06  0.903E-04    1.03      22.2  T
   9    -42.6515926 -0.186436E-07  0.379E-04    1.03      52.7  T
     SCC iter.                  ...        0 min,  0.011 sec
     gradient                   ...        0 min,  0.011 sec
 * total energy  :   -42.1275675 Eh     change       -0.4071142E-02 Eh
   gradient norm :     0.0450399 Eh/α   predicted    -0.5556526E-02 (  36.49%)
   displ. norm   :     0.3245901 α      lambda       -0.4340886E-02
   maximum displ.:     0.2187196 α      in ANC's #10, #13, #14, ...

........................................................................
.............................. CYCLE   36 ..............................
........................................................................

 iter      E             dE          RMSdq      gap      omega  full diag
   1    -42.6476711 -0.426477E+02  0.214E-01    1.10       0.0  T
   2    -42.6442539  0.341718E-02  0.315E-01    0.89       1.0  T
   3    -42.6463346 -0.208070E-02  0.237E-01    1.16       1.0  T
   4    -42.6479529 -0.161826E-02  0.484E-02    1.07       1.0  T
   5    -42.6479981 -0.451742E-04  0.140E-02    1.05       1.4  T
   6    -42.6480037 -0.562169E-05  0.404E-03    1.05       5.0  T
   7    -42.6480038 -0.126889E-06  0.189E-03    1.05      10.6  T
   8    -42.6480039 -0.899039E-07  0.451E-04    1.05      44.4  T
   9    -42.6480039 -0.116314E-08  0.267E-04    1.05      74.9  T
     SCC iter.                  ...        0 min,  0.011 sec
     gradient                   ...        0 min,  0.011 sec
 * total energy  :   -42.1303163 Eh     change       -0.2748757E-02 Eh
   gradient norm :     0.0297433 Eh/α   predicted    -0.2399125E-02 ( -12.72%)
   displ. norm   :     0.3696398 α      lambda       -0.3038225E-02
   maximum displ.:     0.2332657 α      in ANC's #10, #14, #6, ...

........................................................................
.............................. CYCLE   37 ..............................
........................................................................

 iter      E             dE          RMSdq      gap      omega  full diag
   1    -42.6564631 -0.426565E+02  0.277E-01    1.02       0.0  T
   2    -42.6559513  0.511778E-03  0.205E-01    1.12       1.0  T
   3    -42.6494079  0.654343E-02  0.444E-01    0.82       1.0  T
   4    -42.6564292 -0.702140E-02  0.695E-02    1.06       1.0  T
   5    -42.6565875 -0.158292E-03  0.989E-03    1.05       2.0  T
   6    -42.6565900 -0.249053E-05  0.338E-03    1.04       5.9  T
   7    -42.6565900  0.191310E-07  0.187E-03    1.04      10.7  T
   8    -42.6565901 -0.597007E-07  0.738E-04    1.04      27.1  T
   9    -42.6565901 -0.143845E-07  0.176E-04    1.04     113.8  T
     SCC iter.                  ...        0 min,  0.011 sec
     gradient                   ...        0 min,  0.011 sec
 * total energy  :   -42.1314927 Eh     change       -0.1176456E-02 Eh
   gradient norm :     0.0383566 Eh/α   predicted    -0.1726678E-02 (  46.77%)
   displ. norm   :     0.1978735 α      lambda       -0.1444575E-02
   maximum displ.:     0.0976124 α      in ANC's #5, #10, #6, ...

........................................................................
.............................. CYCLE   38 ..............................
........................................................................

 iter      E             dE          RMSdq      gap      omega  full diag
   1    -42.6575722 -0.426576E+02  0.216E-01    1.07       0.0  T
   2    -42.6571803  0.391910E-03  0.156E-01    0.99       1.0  T
   3    -42.6534876  0.369269E-02  0.341E-01    1.24       1.0  T
   4    -42.6575999 -0.411229E-02  0.318E-02    1.06       1.0  T
   5    -42.6576287 -0.288280E-04  0.661E-03    1.05       3.0  T
   6    -42.6576298 -0.114183E-05  0.245E-03    1.05       8.2  T
   7    -42.6576299 -0.105647E-06  0.899E-04    1.05      22.2  T
   8    -42.6576299 -0.781723E-08  0.208E-04    1.05      96.1  T
     SCC iter.                  ...        0 min,  0.010 sec
     gradient                   ...        0 min,  0.011 sec
 * total energy  :   -42.1322658 Eh     change       -0.7730590E-03 Eh
   gradient norm :     0.0195089 Eh/α   predicted    -0.7505779E-03 (  -2.91%)
   displ. norm   :     0.1602340 α      lambda       -0.6636695E-03
   maximum displ.:     0.0912890 α      in ANC's #5, #14, #6, ...

........................................................................
.............................. CYCLE   39 ..............................
........................................................................

 iter      E             dE          RMSdq      gap      omega  full diag
   1    -42.6559489 -0.426559E+02  0.202E-01    1.06       0.0  T
   2    -42.6557857  0.163244E-03  0.130E-01    1.02       1.0  T
   3    -42.6519672  0.381849E-02  0.331E-01    1.24       1.0  T
   4    -42.6559582 -0.399101E-02  0.214E-02    1.06       1.0  T
   5    -42.6559726 -0.143898E-04  0.443E-03    1.05       4.5  T
   6    -42.6559731 -0.520674E-06  0.155E-03    1.05      12.9  T
   7    -42.6559731 -0.291570E-07  0.526E-04    1.05      38.0  T
   8    -42.6559731 -0.977323E-09  0.145E-04    1.05     138.3  T
     SCC iter.                  ...        0 min,  0.010 sec
     gradient                   ...        0 min,  0.011 sec
 * total energy  :   -42.1324359 Eh     change       -0.1701106E-03 Eh
   gradient norm :     0.0221618 Eh/α   predicted    -0.3403573E-03 ( 100.08%)
   displ. norm   :     0.0837756 α      lambda       -0.4162353E-03
   maximum displ.:     0.0514716 α      in ANC's #5, #6, #13, ...

........................................................................
.............................. CYCLE   40 ..............................
........................................................................

 iter      E             dE          RMSdq      gap      omega  full diag
   1    -42.6573958 -0.426574E+02  0.106E-01    1.05       0.0  T
   2    -42.6573218  0.740133E-04  0.736E-02    1.08       1.0  T
   3    -42.6561988  0.112301E-02  0.184E-01    0.96       1.0  T
   4    -42.6574041 -0.120536E-02  0.900E-03    1.05       2.2  T
   5    -42.6574061 -0.197878E-05  0.272E-03    1.05       7.4  T
   6    -42.6574063 -0.183083E-06  0.930E-04    1.05      21.5  T
   7    -42.6574063 -0.243042E-08  0.545E-04    1.05      36.7  T
     SCC iter.                  ...        0 min,  0.009 sec
     gradient                   ...        0 min,  0.011 sec
 * total energy  :   -42.1326810 Eh     change       -0.2451029E-03 Eh
   gradient norm :     0.0073911 Eh/α   predicted    -0.2095804E-03 ( -14.49%)
   displ. norm   :     0.0639602 α      lambda       -0.1158775E-03
   maximum displ.:     0.0359088 α      in ANC's #2, #13, #1, ...

........................................................................
.............................. CYCLE   41 ..............................
........................................................................

 iter      E             dE          RMSdq      gap      omega  full diag
   1    -42.6586663 -0.426587E+02  0.313E-02    1.05       0.0  T
   2    -42.6586665 -0.200497E-06  0.204E-02    1.05       1.0  T
   3    -42.6586349  0.316337E-04  0.322E-02    1.07       1.0  T
   4    -42.6586562 -0.212761E-04  0.181E-02    1.04       1.1  T
   5    -42.6586689 -0.127499E-04  0.201E-03    1.06      10.0  T
   6    -42.6586691 -0.112935E-06  0.534E-04    1.05      37.4  T
   7    -42.6586691 -0.105874E-08  0.260E-04    1.05      76.8  T
     SCC iter.                  ...        0 min,  0.009 sec
     gradient                   ...        0 min,  0.011 sec
 * total energy  :   -42.1327568 Eh     change       -0.7581910E-04 Eh
   gradient norm :     0.0048511 Eh/α   predicted    -0.5817711E-04 ( -23.27%)
   displ. norm   :     0.1025611 α      lambda       -0.9909216E-04
   maximum displ.:     0.0683100 α      in ANC's #2, #13, #1, ...

........................................................................
.............................. CYCLE   42 ..............................
........................................................................

 iter      E             dE          RMSdq      gap      omega  full diag
   1    -42.6592731 -0.426593E+02  0.387E-02    1.06       0.0  T
   2    -42.6592260  0.470328E-04  0.422E-02    1.04       1.0  T
   3    -42.6592137  0.123743E-04  0.452E-02    1.08       1.0  T
   4    -42.6592773 -0.636119E-04  0.628E-03    1.06       3.2  T
   5    -42.6592782 -0.941793E-06  0.126E-03    1.06      15.9  T
   6    -42.6592783 -0.245370E-07  0.604E-04    1.06      33.1  T
   7    -42.6592783 -0.379553E-08  0.233E-04    1.06      85.8  T
     SCC iter.                  ...        0 min,  0.009 sec
     gradient                   ...        0 min,  0.011 sec
 * total energy  :   -42.1328123 Eh     change       -0.5544999E-04 Eh
   gradient norm :     0.0048017 Eh/α   predicted    -0.5006832E-04 (  -9.71%)
   displ. norm   :     0.1286387 α      lambda       -0.9158688E-04
   maximum displ.:     0.1036378 α      in ANC's #2, #1, #6, ...
 * RMSD in coord.:     0.9219032 α      energy gain  -0.2440645E+00 Eh

generating ANC from model Hessian ...
Using Lindh-Hessian (1995)
 Shifting diagonal of input Hessian by    9.9698584737457924E-003
 Lowest  eigenvalues of input Hessian
    0.000000    0.000000    0.000000    0.000000    0.000000    0.000000
    0.010000    0.010039    0.010075    0.010400    0.010481    0.010531
    0.013922    0.015566    0.019722    0.020945    0.022033    0.025340
 Highest eigenvalues
    2.029207    2.148597    2.229736    2.414230    2.494461    8.821898


........................................................................
.............................. CYCLE   43 ..............................
........................................................................

 iter      E             dE          RMSdq      gap      omega  full diag
   1    -42.6587270 -0.426587E+02  0.917E-02    1.06       0.0  T
   2    -42.6586749  0.521372E-04  0.619E-02    1.04       1.0  T
   3    -42.6579297  0.745177E-03  0.151E-01    1.14       1.0  T
   4    -42.6587297 -0.800026E-03  0.107E-02    1.06       1.9  T
   5    -42.6587333 -0.356367E-05  0.180E-03    1.06      11.1  T
   6    -42.6587334 -0.816871E-07  0.666E-04    1.06      30.0  T
   7    -42.6587334 -0.587765E-08  0.247E-04    1.06      81.1  T
     SCC iter.                  ...        0 min,  0.009 sec
     gradient                   ...        0 min,  0.011 sec
 * total energy  :   -42.1328709 Eh     change       -0.5862101E-04 Eh
   gradient norm :     0.0055540 Eh/α   predicted     0.0000000E+00 (-100.00%)
   displ. norm   :     0.0705738 α      lambda       -0.5340343E-04
   maximum displ.:     0.0453789 α      in ANC's #1, #6, #13, ...

........................................................................
.............................. CYCLE   44 ..............................
........................................................................

 iter      E             dE          RMSdq      gap      omega  full diag
   1    -42.6589508 -0.426590E+02  0.883E-02    1.06       0.0  T
   2    -42.6589461  0.470771E-05  0.512E-02    1.05       1.0  T
   3    -42.6585628  0.383241E-03  0.103E-01    1.11       1.0  T
   4    -42.6589501 -0.387220E-03  0.830E-03    1.06       2.4  T
   5    -42.6589526 -0.258716E-05  0.116E-03    1.06      17.2  T
   6    -42.6589527 -0.406730E-07  0.474E-04    1.06      42.2  T
   7    -42.6589527 -0.681020E-09  0.201E-04    1.06      99.5  T
     SCC iter.                  ...        0 min,  0.009 sec
     gradient                   ...        0 min,  0.011 sec
 * total energy  :   -42.1329489 Eh     change       -0.7801619E-04 Eh
   gradient norm :     0.0027745 Eh/α   predicted    -0.4730706E-04 ( -39.36%)
   displ. norm   :     0.1776203 α      lambda       -0.1604834E-03
   maximum displ.:     0.1249084 α      in ANC's #6, #1, #13, ...

........................................................................
.............................. CYCLE   45 ..............................
........................................................................

 iter      E             dE          RMSdq      gap      omega  full diag
   1    -42.6587743 -0.426588E+02  0.236E-01    1.07       0.0  T
   2    -42.6586155  0.158844E-03  0.143E-01    1.02       1.0  T
   3    -42.6538283  0.478720E-02  0.375E-01    1.26       1.0  T
   4    -42.6587869 -0.495862E-02  0.136E-02    1.06       1.5  T
   5    -42.6587932 -0.629203E-05  0.401E-03    1.06       5.0  T
   6    -42.6587937 -0.459952E-06  0.151E-03    1.06      13.2  T
   7    -42.6587937 -0.406670E-07  0.490E-04    1.06      40.9  T
   8    -42.6587937 -0.404373E-08  0.158E-04    1.06     126.6  T
     SCC iter.                  ...        0 min,  0.010 sec
     gradient                   ...        0 min,  0.011 sec
 * total energy  :   -42.1330610 Eh     change       -0.1120643E-03 Eh
   gradient norm :     0.0046584 Eh/α   predicted    -0.8277729E-04 ( -26.13%)
   displ. norm   :     0.1852323 α      lambda       -0.1246870E-03
   maximum displ.:     0.1235100 α      in ANC's #6, #1, #3, ...

........................................................................
.............................. CYCLE   46 ..............................
........................................................................

 iter      E             dE          RMSdq      gap      omega  full diag
   1    -42.6580954 -0.426581E+02  0.241E-01    1.07       0.0  T
   2    -42.6579978  0.976040E-04  0.140E-01    1.03       1.0  T
   3    -42.6537749  0.422282E-02  0.352E-01    1.25       1.0  T
   4    -42.6581030 -0.432808E-02  0.127E-02    1.06       1.6  T
   5    -42.6581079 -0.492649E-05  0.438E-03    1.06       4.6  T
   6    -42.6581084 -0.467441E-06  0.177E-03    1.06      11.3  T
   7    -42.6581084 -0.403320E-07  0.594E-04    1.06      33.7  T
   8    -42.6581085 -0.113067E-07  0.105E-04    1.06     191.3  T
     SCC iter.                  ...        0 min,  0.010 sec
     gradient                   ...        0 min,  0.011 sec
 * total energy  :   -42.1331523 Eh     change       -0.9130820E-04 Eh
   gradient norm :     0.0062546 Eh/α   predicted    -0.6449999E-04 ( -29.36%)
   displ. norm   :     0.1769569 α      lambda       -0.1278062E-03
   maximum displ.:     0.1261356 α      in ANC's #1, #6, #4, ...

........................................................................
.............................. CYCLE   47 ..............................
........................................................................

 iter      E             dE          RMSdq      gap      omega  full diag
   1    -42.6577630 -0.426578E+02  0.222E-01    1.07       0.0  T
   2    -42.6576467  0.116307E-03  0.130E-01    1.03       1.0  T
   3    -42.6537496  0.389712E-02  0.345E-01    1.24       1.0  T
   4    -42.6577708 -0.402126E-02  0.138E-02    1.06       1.4  T
   5    -42.6577763 -0.550698E-05  0.414E-03    1.06       4.8  T
   6    -42.6577768 -0.453352E-06  0.155E-03    1.06      12.9  T
   7    -42.6577768 -0.528694E-07  0.330E-04    1.06      60.7  T
   8    -42.6577768 -0.198363E-08  0.832E-05    1.06     240.4  T
     SCC iter.                  ...        0 min,  0.010 sec
     gradient                   ...        0 min,  0.011 sec
 * total energy  :   -42.1332697 Eh     change       -0.1174328E-03 Eh
   gradient norm :     0.0079601 Eh/α   predicted    -0.6590512E-04 ( -43.88%)
   displ. norm   :     0.3750097 α      lambda       -0.3265099E-03
   maximum displ.:     0.2712382 α      in ANC's #1, #6, #44, ...

........................................................................
.............................. CYCLE   48 ..............................
........................................................................

 iter      E             dE          RMSdq      gap      omega  full diag
   1    -42.6568681 -0.426569E+02  0.449E-01    1.08       0.0  T
   2    -42.6561751  0.693017E-03  0.265E-01    0.99       1.0  T
   3    -42.6414681  0.147070E-01  0.697E-01    1.44       1.0  T
   4    -42.6569033 -0.154352E-01  0.384E-02    1.07       1.0  T
   5    -42.6569332 -0.299223E-04  0.184E-02    1.07       1.1  T
   6    -42.6569425 -0.928096E-05  0.624E-03    1.07       3.2  T
   7    -42.6569435 -0.984915E-06  0.924E-04    1.07      21.7  T
   8    -42.6569435 -0.218344E-07  0.293E-04    1.07      68.1  T
     SCC iter.                  ...        0 min,  0.010 sec
     gradient                   ...        0 min,  0.011 sec
 * total energy  :   -42.1335286 Eh     change       -0.2588839E-03 Eh
   gradient norm :     0.0105342 Eh/α   predicted    -0.1862209E-03 ( -28.07%)
   displ. norm   :     0.3685512 α      lambda       -0.3803383E-03
   maximum displ.:     0.3032917 α      in ANC's #1, #6, #44, ...

........................................................................
.............................. CYCLE   49 ..............................
........................................................................

 iter      E             dE          RMSdq      gap      omega  full diag
[...]
C           -1.79710209409150        2.11213767768131        0.00896803891181
C           -1.88199624078110       -0.27455817662520       -0.00736381969311
O           -3.08169093375631       -0.19667903625970       -0.00836179239454
N           -1.24325914950945       -1.52607539444860       -0.01344179135728
C           -2.05072448835009       -2.72745076764089       -0.01941275972455
H            4.38009128613846        3.32543134379362        0.99008570663786
H            4.47745249710739        3.07063924892806       -0.84506079634327
H            2.84801964286701        2.84969962381418        0.03585838216365
H            3.09791570760478       -2.70402298173354       -0.02634940344747
H           -1.07025413820475        2.92089771246295        0.00387257135178
H           -2.44255796798038        2.17617832738869       -0.86771296683093
H           -2.42639336313976        2.17382279864984        0.89753493441130
H           -1.85745495357598       -3.31961454496851        0.87616301489998
H           -1.84031125127618       -3.32252524733891       -0.90903190851453
H           -3.09740256540000       -2.42486391594945       -0.02945077231319
H            0.70367878485475       -3.60099070416752       -0.03046316880906

 Bond Distances (Angstroems)
 ---------------------------
C1-H15=1.0741        C1-H16=1.0740        C1-H17=1.0778        N2-C3=1.2986         N2-C6=1.3547         C3-N2=1.2986         
C3-N4=1.3705         C3-H18=1.0715        N4-C3=1.3705         N4-C5=1.3565         N4-H25=1.0092        C5-N4=1.3565         
C5-C6=1.4017         C5-N13=1.3433        C6-N2=1.3547         C6-C5=1.4017         C6-C7=1.4444         C7-C6=1.4444         
C7-O8=1.2109         C7-N9=1.3965         O8-C7=1.2109         N9-C7=1.3965         N9-C10=1.4543        N9-C11=1.3843        
C10-N9=1.4543        C10-H19=1.0874       C10-H20=1.0905       C10-H21=1.0906       C11-N9=1.3843        C11-O12=1.2022       
C11-N13=1.4051       O12-C11=1.2022       N13-C5=1.3433        N13-C11=1.4051       N13-C14=1.4475       C14-N13=1.4475       
C14-H22=1.0909       C14-H23=1.0908       C14-H24=1.0896       H15-C1=1.0741        H16-C1=1.0740        H17-C1=1.0778        
H18-C3=1.0715        H19-C10=1.0874       H20-C10=1.0905       H21-C10=1.0906       H22-C14=1.0909       H23-C14=1.0908       
H24-C14=1.0896       H25-N4=1.0092        
 C  H  Rav=1.0837 sigma=0.0078  Rmin=1.0715  Rmax=1.0909    10
 C  C  Rav=1.4231 sigma=0.0214  Rmin=1.4017  Rmax=1.4444     2
 N  H  Rav=1.0092 sigma=0.0000  Rmin=1.0092  Rmax=1.0092     1
 N  C  Rav=1.3811 sigma=0.0450  Rmin=1.2986  Rmax=1.4543    10
 O  C  Rav=1.2066 sigma=0.0044  Rmin=1.2022  Rmax=1.2109     2

 selected bond angles (degree)
 --------------------
H16-C1-H15=119.47              H17-C1-H15=120.32              H17-C1-H16=120.21              C6-N2-C3=106.66                
N4-C3-N2=112.18                H18-C3-N2=124.55               H18-C3-N4=123.27               C5-N4-C3=106.22                
H25-N4-C3=126.27               H25-N4-C5=127.50               C6-C5-N4=106.10                N13-C5-N4=130.11               
N13-C5-C6=123.78               C5-C6-N2=108.84                C7-C6-N2=130.50                C7-C6-C5=120.66                
O8-C7-C6=126.35                N9-C7-C6=111.92                N9-C7-O8=121.73                C10-N9-C7=117.66               
C11-N9-C7=127.80               C11-N9-C10=114.54              H19-C10-N9=108.27              H20-C10-N9=109.89              
H20-C10-H19=110.38             H21-C10-N9=109.91              H21-C10-H19=110.33             H21-C10-H20=108.07             

 selected dihedral angles (degree)
 ---------------------------------
N4-C3-N2-C6=359.97            H18-C3-N2-C6=180.00           C5-N4-C3-N2=  0.04            C5-N4-C3-H18=180.02           
H25-N4-C3-N2=179.88           H25-N4-C3-H18=359.85          C6-C5-N4-C3=359.96            C6-C5-N4-H25=180.13           
N13-C5-N4-C3=180.13           N13-C5-N4-H25=  0.30          C5-C6-N2-C3=  0.00            C7-C6-N2-C3=179.90            
N2-C6-C5-N4=  0.03            N2-C6-C5-N13=179.87           C7-C6-C5-N4=180.11            C7-C6-C5-N13=359.96           
O8-C7-C6-N2=  0.05            O8-C7-C6-C5=179.94            N9-C7-C6-N2=180.08            N9-C7-C6-C5=359.97            
C10-N9-C7-C6=180.05           C10-N9-C7-O8=  0.08           C11-N9-C7-C6=359.93           C11-N9-C7-O8=179.95           
H19-C10-N9-C7=  0.48          H19-C10-N9-C11=180.59         H20-C10-N9-C7=121.10          H20-C10-N9-C11=301.21         
H21-C10-N9-C7=239.91          H21-C10-N9-C11= 60.01         
           -------------------------------------------------
          |                Final Singlepoint                |
           -------------------------------------------------

          ...................................................
          :                      SETUP                      :
          :.................................................:
          :  # basis functions                  67          :
          :  # atomic orbitals                  67          :
          :  # shells                           39          :
          :  # electrons                        74          :
          :  max. iterations                   250          :
          :  Hamiltonian                  GFN2-xTB          :
          :  restarted?                      false          :
          :  GBSA solvation                  false          :
          :  PC potential                    false          :
          :  electronic temp.         5000.0000000     K    :
          :  accuracy                    1.0000000          :
          :  -> integral cutoff          0.2500000E+02      :
          :  -> integral neglect         0.1000000E-07      :
          :  -> SCF convergence          0.1000000E-05 Eh   :
          :  -> wf. convergence          0.1000000E-03 e    :
          :  Broyden damping             0.4000000          :
          ...................................................

 iter      E             dE          RMSdq      gap      omega  full diag
   1    -42.6613320 -0.426613E+02  0.791E-05    1.10       0.0  T
   2    -42.6613320 -0.260272E-10  0.495E-05    1.10     404.3  T
   3    -42.6613320  0.169109E-11  0.436E-05    1.10     458.9  T

   *** convergence criteria satisfied after 3 iterations ***

         #    Occupation            Energy/Eh            Energy/eV
      -------------------------------------------------------------
         1        2.0000           -0.8855679             -24.0975
       ...           ...                  ...                  ...
        31        1.9930           -0.6082274             -16.5507
        32        1.9926           -0.6073863             -16.5278
        33        1.9738           -0.5872228             -15.9791
        34        1.9222           -0.5695467             -15.4982
        35        1.9144           -0.5679655             -15.4551
        36        1.8719           -0.5612418             -15.2722
        37        1.7109           -0.5469226             -14.8825 (HOMO)
        38        0.6306           -0.5064937             -13.7824 (LUMO)
        39        0.0021           -0.4101146             -11.1598
        40        0.0006           -0.3908318             -10.6351
        41        0.0001           -0.3613042              -9.8316
        42        0.0000           -0.2802945              -7.6272
       ...           ...                  ...                  ...
        67                          0.5503088              14.9747
      -------------------------------------------------------------
                  HL-Gap            0.0404289 Eh            1.1001 eV
             Fermi-level           -0.5187712 Eh          -14.1165 eV

 SCC (total)                   0 d,  0 h,  0 min,  0.020 sec
 SCC setup                      ...        0 min,  0.000 sec (  0.895%)
 Dispersion                     ...        0 min,  0.000 sec (  0.842%)
 classical contributions        ...        0 min,  0.000 sec (  0.322%)
 integral evaluation            ...        0 min,  0.004 sec ( 20.237%)
 iterations                     ...        0 min,  0.004 sec ( 21.330%)
 molecular gradient             ...        0 min,  0.011 sec ( 55.761%)
 printout                       ...        0 min,  0.000 sec (  0.577%)

         :::::::::::::::::::::::::::::::::::::::::::::::::::::
         ::                     SUMMARY                     ::
         :::::::::::::::::::::::::::::::::::::::::::::::::::::
         :: total energy             -42.136134554941 Eh    ::
         :: gradient norm              0.001434618829 Eh/a0 ::
         :: HOMO-LUMO gap              1.100126164038 eV    ::
         ::.................................................::
         :: SCC energy               -42.661331970854 Eh    ::
         :: -> isotropic ES            0.131657746364 Eh    ::
         :: -> anisotropic ES         -0.007662314908 Eh    ::
         :: -> anisotropic XC          0.020431383463 Eh    ::
         :: -> dispersion             -0.020842781931 Eh    ::
         :: repulsion energy           0.525125841252 Eh    ::
         :: add. restraining           0.000000017117 Eh    ::
         :: total charge               1.000000000000 e     ::
         :::::::::::::::::::::::::::::::::::::::::::::::::::::

           -------------------------------------------------
          |                Property Printout                |
           -------------------------------------------------

    * Orbital Energies and Occupations

         #    Occupation            Energy/Eh            Energy/eV
      -------------------------------------------------------------
         1        2.0000           -0.8855679             -24.0975
       ...           ...                  ...                  ...
        25        1.9996           -0.6542593             -17.8033
        26        1.9988           -0.6366370             -17.3238
        27        1.9981           -0.6287028             -17.1079
        28        1.9978           -0.6263686             -17.0444
        29        1.9973           -0.6233082             -16.9611
        30        1.9968           -0.6208935             -16.8954
        31        1.9930           -0.6082274             -16.5507
        32        1.9926           -0.6073863             -16.5278
        33        1.9738           -0.5872228             -15.9791
        34        1.9222           -0.5695467             -15.4982
        35        1.9144           -0.5679655             -15.4551
        36        1.8719           -0.5612418             -15.2722
        37        1.7109           -0.5469226             -14.8825 (HOMO)
        38        0.6306           -0.5064937             -13.7824 (LUMO)
        39        0.0021           -0.4101146             -11.1598
        40        0.0006           -0.3908318             -10.6351
        41        0.0001           -0.3613042              -9.8316
        42        0.0000           -0.2802945              -7.6272
        43                         -0.1988206              -5.4102
        44                         -0.1565448              -4.2598
        45                         -0.1317369              -3.5847
        46                         -0.0679117              -1.8480
        47                         -0.0455394              -1.2392
        48                         -0.0304361              -0.8282
       ...                                ...                  ...
        67                          0.5503088              14.9747
      -------------------------------------------------------------
                  HL-Gap            0.0404289 Eh            1.1001 eV
             Fermi-level           -0.5187712 Eh          -14.1165 eV

     #   Z          covCN         q      C6AA      α(0)
     1   6 C        2.778    -0.068    29.682     8.923
     2   7 N        1.905    -0.158    25.203     7.443
     3   6 C        3.155     0.105    25.397     8.241
     4   7 N        2.789    -0.080    22.790     7.090
     5   6 C        3.056     0.115    25.415     8.268
     6   6 C        3.203     0.024    26.901     8.450
     7   6 C        2.764     0.276    22.338     7.740
     8   8 O        0.858    -0.343    20.572     6.081
     9   7 N        2.745    -0.075    22.700     7.076
    10   6 C        3.710    -0.061    21.817     6.675
    11   6 C        2.732     0.319    21.580     7.605
    12   8 O        0.860    -0.345    20.603     6.086
    13   7 N        2.737    -0.042    22.062     6.976
    14   6 C        3.697    -0.070    22.021     6.712
    15   1 H        0.926     0.137     1.482     1.903
    16   1 H        0.926     0.137     1.485     1.906
    17   1 H        0.926     0.162     1.311     1.791
    18   1 H        0.926     0.110     1.696     2.037
    19   1 H        0.925     0.116     1.650     2.009
    20   1 H        0.924     0.108     1.715     2.048
    21   1 H        0.924     0.108     1.718     2.050
    22   1 H        0.924     0.092     1.862     2.134
    23   1 H        0.924     0.091     1.867     2.137
    24   1 H        0.925     0.128     1.553     1.949
    25   1 H        0.860     0.216     1.029     1.589

 Mol. C6AA /au·bohr⁶  :       6623.592214
 Mol. C8AA /au·bohr⁸  :     152476.825359
 Mol. α(0) /au        :        124.918449


Wiberg/Mayer (AO) data.
largest (>0.10) Wiberg bond orders for each atom

 ---------------------------------------------------------------------------
     #   Z sym  total        # sym  WBO       # sym  WBO       # sym  WBO
 ---------------------------------------------------------------------------
     1   6 C    2.921 --    16 H    0.978    15 H    0.978    17 H    0.958
     2   7 N    3.001 --     3 C    1.559     6 C    1.270
     3   6 C    3.848 --     2 N    1.559     4 N    1.212    18 H    0.955
     4   7 N    3.576 --     5 C    1.224     3 C    1.212    25 H    0.924
     5   6 C    3.895 --     6 C    1.275     4 N    1.224    13 N    1.212
     6   6 C    3.834 --     5 C    1.275     2 N    1.270     7 C    1.071
     7   6 C    3.945 --     8 O    1.672     9 N    1.100     6 C    1.071
     8   8 O    1.972 --     7 C    1.672     9 N    0.126
     9   7 N    3.514 --    11 C    1.120     7 C    1.100    10 C    0.975
                             8 O    0.126    12 O    0.123
    10   6 C    3.886 --     9 N    0.975    19 H    0.963    20 H    0.952
                            21 H    0.952
    11   6 C    3.954 --    12 O    1.687     9 N    1.120    13 N    1.053
    12   8 O    1.995 --    11 C    1.687     9 N    0.123    13 N    0.108
    13   7 N    3.496 --     5 C    1.212    11 C    1.053    14 C    0.977
                            12 O    0.108
    14   6 C    3.910 --    13 N    0.977    23 H    0.962    24 H    0.962
                            22 H    0.962
    15   1 H    0.980 --     1 C    0.978
    16   1 H    0.980 --     1 C    0.978
    17   1 H    0.971 --     1 C    0.958
    18   1 H    0.986 --     3 C    0.955
    19   1 H    0.982 --    10 C    0.963
    20   1 H    0.970 --    10 C    0.952
    21   1 H    0.969 --    10 C    0.952
    22   1 H    0.979 --    14 C    0.962
    23   1 H    0.979 --    14 C    0.962
    24   1 H    0.982 --    14 C    0.962
    25   1 H    0.952 --     4 N    0.924
 ---------------------------------------------------------------------------

Topologies differ in total number of bonds
Writing topology from bond orders to xtbtopo.mol

molecular dipole:
                 x           y           z       tot (Debye)
 q only:        1.860      -0.965       0.017
   full:        1.734      -1.650       0.012       6.084
molecular quadrupole (traceless):
                xx          xy          yy          xz          yz          zz
 q only:        5.293      14.435      22.477       0.353       0.800     -27.769
  q+dip:       -0.030      12.875      24.823       0.302       1.032     -24.793
   full:       -1.595      12.483      24.870       0.348       0.797     -23.275

           -------------------------------------------------
          |                Geometry Summary                 |
           -------------------------------------------------

      molecular mass/u    :      195.1988581
   center of mass at/Å    :        0.0025344      -0.2047541      -0.0040546
  moments of inertia/u·Å² :        0.5595215E+03   0.8557176E+03   0.1405460E+04
rotational constants/cm⁻¹ :        0.3012866E-01   0.1970000E-01   0.1199439E-01

 * 25 selected distances

     #   Z          #   Z                                           value/Å
     2   7 N        3   6 C                                       1.2985716
     3   6 C        4   7 N                                       1.3704766
     4   7 N        5   6 C                                       1.3564830
     2   7 N        6   6 C                                       1.3546940
     5   6 C        6   6 C                                       1.4016838
     6   6 C        7   6 C                                       1.4444469
     7   6 C        8   8 O                                       1.2109336
     7   6 C        9   7 N                                       1.3964758
     9   7 N       10   6 C                                       1.4543160 (max)
     9   7 N       11   6 C                                       1.3843148
    11   6 C       12   8 O                                       1.2022204
     5   6 C       13   7 N                                       1.3432832
    11   6 C       13   7 N                                       1.4051042
    13   7 N       14   6 C                                       1.4475286
     1   6 C       15   1 H                                       1.0740526
     1   6 C       16   1 H                                       1.0739885
     1   6 C       17   1 H                                       1.0778182
     3   6 C       18   1 H                                       1.0715320
    10   6 C       19   1 H                                       1.0873946
    10   6 C       20   1 H                                       1.0905431
    10   6 C       21   1 H                                       1.0905796
    14   6 C       22   1 H                                       1.0909020
    14   6 C       23   1 H                                       1.0907840
    14   6 C       24   1 H                                       1.0895847
     4   7 N       25   1 H                                       1.0091565 (min)

 * 5 distinct bonds (by element types)

   Z      Z             #   av. dist./Å        max./Å        min./Å
   1 H    6 C          10     1.0837179     1.0909020     1.0715320
   6 C    6 C           2     1.4230654     1.4444469     1.4016838
   1 H    7 N           1     1.0091565     1.0091565     1.0091565
   6 C    7 N          10     1.3811248     1.4543160     1.2985716
   6 C    8 O           2     1.2065770     1.2109336     1.2022204


optimized geometry written to: xtbopt.xyz


           -------------------------------------------------
          | TOTAL ENERGY              -42.136134554941 Eh   |
          | GRADIENT NORM               0.001434618829 Eh/α |
          | HOMO-LUMO GAP               1.100126164038 eV   |
           -------------------------------------------------

------------------------------------------------------------------------
 * finished run on 2024/06/05 at 20:00:06.956     
------------------------------------------------------------------------
 total:
 * wall-time:     0 d,  0 h,  0 min,  1.832 sec
 *  cpu-time:     0 d,  0 h,  0 min,  1.812 sec
 * ratio c/w:     0.989 speedup
 SCF:
 * wall-time:     0 d,  0 h,  0 min,  0.034 sec
 *  cpu-time:     0 d,  0 h,  0 min,  0.034 sec
 * ratio c/w:     1.000 speedup
 ANC optimizer:
 * wall-time:     0 d,  0 h,  0 min,  1.769 sec
 *  cpu-time:     0 d,  0 h,  0 min,  1.765 sec
 * ratio c/w:     0.998 speedup

