25
 energy: -42.079841309849 gnorm: 0.003600377697 xtb: 6.6.1 (8d0f1dd)
C            3.22406883766289        1.12145580838115        0.05736676399789
N            2.29457183729740        0.02353626584271        0.01994151270496
C            2.58986503998272       -1.26816496698851        0.04720511246622
N            1.45767926249747       -2.00023461333970        0.01238714809247
C            0.40011639194824       -1.14160180396301       -0.03865538139918
C            0.92308743825122        0.14572028923758       -0.03503256101193
C            0.09614680129235        1.31556711870038       -0.09212050557618
O            0.45490467944436        2.47210507127053       -0.10699043473511
N           -1.29457944130383        0.96835370376655       -0.13931231938275
C           -2.17312716633360        1.97991480827561       -0.20116501986445
C           -1.83072836453221       -0.35453962942558       -0.13702352405349
O           -3.01377351594811       -0.54348647448596       -0.17504183695950
N           -0.91937338522042       -1.40687466050713       -0.08600540586264
C           -1.42176729858490       -2.76851346813337       -0.09095354389678
H            3.71704555723408        1.16608606093843        1.02914383701400
H            3.98141470983297        1.00290994566134       -0.71638962038579
H            2.67543891024497        2.04897145277452       -0.10349244793298
H            3.57995958041101       -1.67792315763895        0.09094592267913
H           -1.78299711813494        2.97892364941808       -0.23137163017665
H           -3.22237902781818        1.75547607222586       -0.22646778322388
H           -3.29724050269599        4.32087383442875        1.41401125511659
H           -1.08836205003181       -3.29816732725139        0.80123742584854
H           -1.09284181683631       -3.29246780334565       -0.98865703714147
H           -2.51005348371807       -2.71989149240107       -0.08928208830708
H            1.41335563915818       -3.00979014184215        0.01689377989093
