72
 energy: -99.250113956086 gnorm: 0.005201692701 xtb: 6.6.1 (8d0f1dd)
N           -1.86220422427029        2.87353569491449        2.22845366060704
C           -1.81456005039418        2.15613913508988        1.20797974732562
C           -2.97648681062023        1.89033538189979        0.29955274615622
C           -3.43220117707805        0.44824094015923        0.42687367976719
C           -4.34560272797297       -0.04158305895809       -0.46877521592707
C           -4.84653203960784       -1.31297280943381       -0.49784511510184
O           -5.73635070560036       -1.77588360156670       -1.38807131740064
C           -6.38259435913352       -0.81059870628998       -2.18321485137109
C           -4.36008176572878       -2.21897680439395        0.50142748539301
O           -4.86483350224785       -3.46495659332268        0.44289604798338
C           -4.53838576432200       -4.39427922754690        1.45115545294027
C           -3.44694020634510       -1.74724100524829        1.43702128450480
C           -2.98923536497149       -0.43657578051629        1.41510112551757
C           -2.49630706948747        2.11347654076574       -1.15588597462978
C           -1.53484309670705        1.03740720411367       -1.69044201894229
C           -0.18822029342883        1.07039849174159       -1.08717587537775
N            0.49712232302631        0.01263518018458       -0.68638873080889
C            1.87803071817016        0.13638058468172       -0.27989761784485
C            2.84457553306876       -0.33478361570071       -1.38321504328439
C            4.26474357876442       -0.13473698577258       -0.93253446098978
C            4.90596128377817        1.07659434055657       -1.14007289011061
C            6.20519005805774        1.27662399453589       -0.70158911059763
C            6.89115560218714        0.26728258148299       -0.03984602505311
O            8.14950168851980        0.34796726535199        0.42502171856164
C            8.88402000250024        1.53457859495257        0.22669991358344
C            6.23961785580374       -0.97901024960380        0.18182510064059
O            6.97605920832599       -1.90263494240581        0.82733965717999
C            6.43235983163872       -3.17959981901624        1.06407133680851
C            4.93860543747495       -1.15407444957427       -0.26475753615364
C           -0.06928711599446       -1.31578570829454       -0.69902499846280
C           -4.21817396787116        2.78750595597043        0.58231727272962
C           -4.82011720970140        2.49562059196398        1.95447860114475
C           -3.92109879662223        4.27795997820829        0.45530952977923
H           -4.61097167900799        1.14086536413088       -3.18151722545018
H           -7.08366247908937       -0.21946828774087       -1.58458466929785
H           -6.91311347642123       -1.34906711840283       -2.96426815039694
H           -5.65089630358105       -0.10342949738749       -2.63897479054031
H           -4.84113234089323       -4.03549088397758        2.43918219435955
H           -5.09648359119774       -5.29630490025942        1.20754922109456
H           -3.46772810874109       -4.62176313913189        1.45595990247697
H           -3.08876870779662       -2.40833613331107        2.21019837100429
H           -2.29701773543376       -0.09705289893350        2.17071591099436
H           -3.37961264028645        2.08703375308061       -1.80506400381166
H           -2.02953240578811        3.09554504838276       -1.23930392063634
H           -2.00250004435145        0.05936282144318       -1.59581331004564
H           -1.41688491124388        1.24167495193278       -2.76255269864944
H           -0.89216542098241        1.65898025278587        0.84752604100597
H            0.33800550803158        2.01476924242554       -1.08954232457211
H            2.03993783523416       -0.45913968688856        0.62280206573449
H            2.09441926711225        1.18028599342456       -0.04381872835396
H            2.65557107356707        0.24538065712402       -2.28788600390890
H            2.66533497603112       -1.38751161574188       -1.60398818258237
H            4.39829950564897        1.87430815993527       -1.66058950142055
H            6.68006904188754        2.22631941761466       -0.88496056989692
H            8.41264454106719        2.38561249649596        0.72744475599873
H            9.00483361773435        1.75682271560052       -0.83761509145411
H            9.86057849718059        1.35077698851483        0.67032616719848
H            7.21560110552072       -3.74159803543692        1.56891579832195
H            5.55152164540369       -3.12660257724397        1.71194658391648
H            6.17082468117657       -3.68384319702822        0.12876305315580
H            4.43960368317060       -2.09775592056954       -0.10888569782385
H           -0.24581919344776       -1.65863948292156       -1.72039545501699
H           -1.01761588145501       -1.33190125382494       -0.15648131605387
H            0.61879221510925       -2.00393190307310       -0.21501608744762
H           -4.95783543751878        2.51164879879185       -0.17980303455333
H           -4.10655110583444        2.74412276068190        2.73480322953584
H           -5.09722106667036        1.44835414098384        2.04828500026821
H           -5.71274739072329        3.09929120477525        2.09682373684050
H           -3.15754848760860        4.57353398226883        1.16970402007324
H           -3.59886240109549        4.54327013837929       -0.54787530547993
H           -4.82468721601949        4.84138020996030        0.67322162893344
H           -1.01305044489922        3.00764785671340        2.76724565051243
