25
 energy: 128.919528870161 xtb: 6.6.1 (8d0f1dd)
C            2.79916223033780        1.23078978819791        0.12397217100704
N            2.10674139290339       -0.04822926138455        0.03882870317994
C            2.56531730314680       -1.28687725604014       -0.07022438676377
N            1.53154100115638       -2.16866930514427       -0.07256532999071
C            0.34078075468572       -1.46049960575007        0.02302597081306
C            0.74183160325940       -0.13292286226958        0.10477911848885
C           -0.22597543084369        0.88566002348426        0.34929137377118
O            0.05991320317564        2.03423263665434        0.66599793573655
N           -1.47498503934887        0.33295343703348        0.20153102682567
C           -2.25600405384515        3.13794936609488       -0.26568039722411
C           -2.00136439873656       -0.82784920801708       -0.05920464678987
O           -2.83523049160672        1.85489887472820       -0.05570793220249
N           -0.91372137036393       -1.86879934873665        0.01800061271472
C           -1.12754889007967       -3.26450354793892        0.00739065781475
H            3.57939428057861        1.20904920184465        0.87306623753175
H            3.23368466193561        1.55022660918904       -0.82405710523025
H            2.04259739223561        1.97419655669650        0.40199721776780
H            3.57703876769628       -1.60125573896511       -0.15979907280171
H           -1.39491564376867        2.89445889636673       -0.84845457788717
H           -2.95045433355591        3.74533077008261       -0.84840120930978
H           -1.83631178017808        3.77951565054498        0.52276536290876
H           -0.62183576656441       -3.69035795868290        0.88547826192408
H           -0.62728932580050       -3.65458345408270       -0.88501895193540
H           -2.20886538943031       -3.42144355636630       -0.00925999973133
H            1.64000024106998       -3.16410005968251       -0.16178831732559
