25
 energy: -42.169262686798 gnorm: 0.005488924160 xtb: 6.6.1 (8d0f1dd)
C            2.83039776491115        1.18721033217800       -0.51906335406741
N            2.10735734185728       -0.00783507237653       -0.17784468709607
C            2.61987409466748       -1.22608564971750       -0.12223361093857
N            1.65844863355146       -2.09693306174192        0.21350110610128
C            0.47847409137417       -1.41177310860833        0.39282248449508
C            0.77036980600613       -0.07373702727297        0.12882464859145
C           -0.06069729397153        1.13486198268320        0.30436154629599
O            0.41601926899525        2.14300495048324        0.77711520574856
N           -1.39984159004652        1.05144525678922       -0.04535234273643
C           -2.27600252737580        2.11011159473566        0.43742072879879
C           -1.87695655063161        0.17320419703315       -0.98465260172666
O           -1.22405756632463       -0.65614353578728       -1.56228817976877
N           -0.65816437599594       -1.92284408823634        0.88692583317510
C           -1.23238553678371       -3.01143299594554        0.59870760967922
H            2.63954137275705        1.95683118111520        0.22985133328959
H            3.89447357672910        0.96875432015085       -0.56574720422083
H            2.49705074008538        1.56548744438770       -1.48648141737584
H            3.64523577315511       -1.48054595687930       -0.31019928161950
H           -1.77575933101207        2.62498368928064        1.25416680231572
H           -2.48655741651580        2.83144378874945       -0.35267171845923
H           -3.20881082592591        1.67660187489222        0.79238748531136
H           -2.09826996293073       -3.28487671058500        1.18304116959787
H           -0.93556021651684       -3.66904175847723       -0.21576170290265
H           -2.94831940569951        0.32611263706901       -1.17439539148136
H            1.78457164974449       -3.09056574231866        0.34873715689383
