25
 energy: -43.831856863543 gnorm: 0.117842844705 xtb: 6.6.1 (8d0f1dd)
C            3.23268840148686        1.17113071883111        0.08007022611094
N            2.29806461927226        0.08134843393275        0.03712094067020
C            2.58505991149659       -1.21974867423674        0.03052902009224
N            1.43576964129842       -1.93917125302178        0.00287100466214
C            0.39153247340894       -1.06462628193372       -0.00749850892232
C            0.92903126662202        0.21178676273665        0.01489934591124
C            0.09382078340749        1.39386166715298       -0.00529861295671
O            0.48895709808925        2.54618019120860       -0.01015832801969
N           -1.26416945088000        1.04880246374161       -0.03273145527835
C           -2.19459527064135        2.17954471663712       -0.03859819366056
C           -1.82430933891062       -0.20944571220671       -0.05470488878573
O           -3.00991941046181       -0.38963351397262       -0.07384155748303
N           -0.93034905739621       -1.30937437094799       -0.03686187317836
C           -1.46650456190383       -2.65511695427436       -0.05725381281393
H            3.70747131057638        1.22266104705205        1.06128191632179
H            4.00295748836921        1.03679705953602       -0.67882620592439
H            2.69099200703505        2.09802489773531       -0.09792130802842
H            3.57025907457385       -1.64163346929396        0.04347385393199
H           -1.66333520811246        3.17097822069804        0.03553182919720
H           -2.76193746081384        2.17712658999985       -0.93853036440000
H           -2.91478727764920        2.05328506686301        0.76798343226710
H           -1.16563415515852       -3.20213399357343        0.83673966168195
H           -1.13770296209071       -3.18560911176688       -0.95160946291847
H           -2.55243461200514       -2.57091598689934       -0.07381544691198
H            1.37721842096290       -2.94787226104060       -0.00881031513832
25
 energy: -43.836970234162 gnorm: 0.042168502112 xtb: 6.6.1 (8d0f1dd)
C            3.24003972677207        1.17972243733540        0.08232481455633
N            2.30662144534444        0.09709214473835        0.03523664833762
C            2.59959118658023       -1.23512404343199        0.03071127411767
N            1.42481724501647       -1.94091004459101        0.00258618799590
C            0.39544493046348       -1.05793228212120       -0.00756531738455
C            0.92651152311758        0.22252820522106        0.01338278754933
C            0.10274562522639        1.39080106028701       -0.00726039282555
O            0.49361754371994        2.56061834992666       -0.01131361961059
N           -1.26840894386588        1.04876008784304       -0.03144838076501
C           -2.20980491028779        2.16245818604061       -0.04251997034765
C           -1.82816949753623       -0.20083805039556       -0.05011827171904
O           -3.02501133782606       -0.38636103018903       -0.07466181150484
N           -0.93772823438240       -1.30121631596752       -0.03652330541825
C           -1.46909946947777       -2.64616947048988       -0.05770687952087
H            3.71819581882035        1.23029059015864        1.06444877131573
H            4.00830441315844        1.04528197256891       -0.68079549221533
H            2.69033898979056        2.10201987294521       -0.09531500096621
H            3.57726409914671       -1.66159959962244        0.04390301103908
H           -1.64323400050226        3.10164315014748        0.04757080691813
H           -2.77376554412426        2.16992816196238       -0.96726211392387
H           -2.91190934805673        2.05843792716265        0.78453759873498
H           -1.16396959074210       -3.19563174188804        0.83540251823686
H           -1.13645880330412       -3.17944767400379       -0.95097809371989
H           -2.55490223170501       -2.56319849177276       -0.07374060687679
H            1.35711309522951       -2.94490714890721       -0.00885426557668
25
 energy: -43.838018412139 gnorm: 0.017368739135 xtb: 6.6.1 (8d0f1dd)
C            3.23425521036624        1.17763936529390        0.08089893364374
N            2.30219638650697        0.10303579615019        0.03261450938901
C            2.60572773241815       -1.24045172595577        0.03156621617196
N            1.42418635172648       -1.94554373100676        0.00316941358520
C            0.39877393767273       -1.06470401102098       -0.00791812543038
C            0.91832137518045        0.22087005425659        0.01297736666377
C            0.10966492148581        1.38213566925820       -0.00535864236876
O            0.49782217733447        2.55815281593945       -0.00601843536022
N           -1.26962704953887        1.05401479881750       -0.02905036840833
C           -2.20149267035623        2.18085080636498       -0.03625135715136
C           -1.82161179186002       -0.19690221581611       -0.05200130006268
O           -3.02120419401884       -0.38855176760828       -0.07628159276250
N           -0.93975476091881       -1.30520629930597       -0.03795386809117
C           -1.46681028815412       -2.65221712686715       -0.05746594263090
H            3.70843831204704        1.22445841427953        1.06522942368859
H            4.00364573845584        1.03586280180590       -0.68027463690419
H            2.68620656671122        2.09955487869661       -0.10061185937136
H            3.58224239087978       -1.65296444631848        0.04358005137762
H           -1.67395999646729        3.13615123467128        0.04220141720034
H           -2.76803459014668        2.18086011834802       -0.96327282667810
H           -2.90992727518428        2.06553866522287        0.78076026525550
H           -1.16252693934402       -3.20437232042829        0.83590289952309
H           -1.13379957447665       -3.18964575713026       -0.94950659899046
H           -2.55235434434580       -2.57404658920402       -0.07431022645878
H            1.36776610460199       -2.94827317548597       -0.00858381940312
25
 energy: -43.838251156491 gnorm: 0.009450978896 xtb: 6.6.1 (8d0f1dd)
C            3.23695762382395        1.17618403720157        0.08274576055963
N            2.30005620595625        0.10482191168704        0.03344791192959
C            2.60237762908779       -1.23775562941323        0.03217046683125
N            1.42250371243878       -1.94221578644483        0.00338062185676
C            0.39846514918373       -1.06488517634856       -0.00687121199301
C            0.91592700602348        0.22172215411855        0.01362739882637
C            0.10698844070811        1.37919945064929       -0.00905681402633
O            0.48508221624139        2.55615399013453       -0.01498617373995
N           -1.27254508724181        1.04946187435658       -0.03127687010472
C           -2.19843330479228        2.17723520431161       -0.03509546127801
C           -1.82101655020567       -0.20027845075212       -0.05157015492682
O           -3.01871509178263       -0.39536933670928       -0.07295091562992
N           -0.93974565743730       -1.30545634066512       -0.03695820607006
C           -1.47039504398402       -2.64855741204144       -0.05745231208130
H            3.71661432225760        1.22323877471351        1.06409846153190
H            4.00606332876923        1.04026697452220       -0.67973225457114
H            2.69452415815057        2.10217238355612       -0.09288269618904
H            3.57834535606065       -1.64679566001322        0.04289993377280
H           -1.65429258355312        3.12937054383861        0.03932901796561
H           -2.76824507165414        2.17357320282686       -0.95720705294133
H           -2.91124088353915        2.05414256214102        0.77702916447525
H           -1.16722027376425       -3.19975540507421        0.83647971530520
H           -1.14048201907605       -3.18176478970685       -0.95275334948938
H           -2.55555516245211       -2.56281971938319       -0.07307252282652
H            1.37212531135655       -2.94564310454847       -0.00930156076029
25
 energy: -43.838315811522 gnorm: 0.005850128867 xtb: 6.6.1 (8d0f1dd)
C            3.23588922528474        1.17424048662713        0.08011068768519
N            2.30079412132002        0.10069403799441        0.03329500978638
C            2.59954479226368       -1.24095799794095        0.03308690646858
N            1.41919738549755       -1.94198160022370        0.00361761780296
C            0.39727112951659       -1.06371280751062       -0.00704409440020
C            0.91739852705565        0.22173272247295        0.01499728040243
C            0.11003146825681        1.38172124584048       -0.00392225861474
O            0.48916732304766        2.55670331466078       -0.00564999791148
N           -1.27170481487586        1.05235443218725       -0.03070832285653
C           -2.20161094685655        2.17637335014116       -0.03660192127786
C           -1.82092961657604       -0.19677011787560       -0.05307634872359
O           -3.01833270440802       -0.38912810047276       -0.07728216668536
N           -0.94034608555377       -1.30274156060453       -0.03767310305610
C           -1.46639472925386       -2.64822684705011       -0.05761013525177
H            3.71258289984680        1.22938029005534        1.06252704987140
H            4.00669081476068        1.03992745954875       -0.68092212954676
H            2.68952051885634        2.09765688631725       -0.10106713069440
H            3.57536896551581       -1.65354147683934        0.04367906437311
H           -1.65428348780925        3.12699494568853        0.04397323640048
H           -2.77019465740409        2.17472903520904       -0.95895831079421
H           -2.91477029774471        2.05663820386601        0.77644662016996
H           -1.16072798203440       -3.19682723466919        0.83667898505199
H           -1.13136300635402       -3.18220842353432       -0.95029414795328
H           -2.55216148061902       -2.57070574923214       -0.07493585338996
H            1.36750636884281       -2.94609824169886       -0.00862564042972
25
 energy: -43.838347508146 gnorm: 0.004269552933 xtb: 6.6.1 (8d0f1dd)
C            3.23587824321606        1.17537905812305        0.08319857040887
N            2.30260514296069        0.10069464950991        0.03249495303790
C            2.60201240170676       -1.24068141315393        0.03119503001449
N            1.42165911302574       -1.94191287075588        0.00165138405676
C            0.39870377871645       -1.06465140632099       -0.00829743964945
C            0.91882770760650        0.22158843361053        0.01280081438026
C            0.11224691429804        1.38232652728752       -0.00797511829236
O            0.49186022270463        2.55713134795702       -0.01214005806904
N           -1.27123939867443        1.05266335948567       -0.03144528594565
C           -2.20302551031637        2.17577701974678       -0.03837584101891
C           -1.82046366485803       -0.19698573634287       -0.05017984720044
O           -3.01832622505945       -0.38921361203160       -0.07256012116457
N           -0.93971522135121       -1.30357723526069       -0.03707130771685
C           -1.46839320768181       -2.64910157995630       -0.05721041836286
H            3.71201243603312        1.22544162569303        1.06636657281916
H            4.00612180741362        1.04195421928008       -0.67854142432666
H            2.68915970767604        2.09991072599345       -0.09466582374742
H            3.57923970786498       -1.65247219275340        0.04223881914054
H           -1.66140197932828        3.12810825236282        0.04055403812964
H           -2.77274616343928        2.17408925742706       -0.96046103477027
H           -2.91142723668490        2.06132557950002        0.77992219699931
H           -1.16435549556088       -3.20137388265166        0.83543056433141
H           -1.13803896175181       -3.18505640873594       -0.95051542037029
H           -2.55406911195397       -2.56872882162029       -0.07262514100565
H            1.37101872401336       -2.94638864343639       -0.00974776525141
25
 energy: -43.838362023859 gnorm: 0.003052434611 xtb: 6.6.1 (8d0f1dd)
C            3.23627023210995        1.17584339292779        0.08060670892554
N            2.30176681240488        0.10234002838130        0.03320531218691
C            2.60186477061284       -1.23940227151668        0.03347897697330
N            1.42167620297501       -1.94134664646868        0.00445482111977
C            0.39834309402655       -1.06492886391471       -0.00670064531442
C            0.91731946566210        0.22214695405569        0.01448875522770
C            0.11068551429158        1.38150454718048       -0.00599065593231
O            0.48784252010144        2.55743296901497       -0.00922151877275
N           -1.27292153022903        1.05090887440420       -0.03096265312847
C           -2.20112638382714        2.17626956536917       -0.03655522453165
C           -1.82164066585667       -0.19885996115291       -0.05247935780570
O           -3.01958305921114       -0.39270689649515       -0.07639022021059
N           -0.94021704902958       -1.30455782490640       -0.03734019698353
C           -1.46892462437697       -2.64954704773625       -0.05802024574005
H            3.71512014520694        1.22534668371230        1.06246797511959
H            4.00476067026816        1.03826819016339       -0.68222608586838
H            2.69205498900827        2.10158584411399       -0.09789695224233
H            3.57941368866296       -1.64942524790461        0.04419752468119
H           -1.65887392475329        3.12823595906183        0.04422726116466
H           -2.76772424311485        2.17730290944643       -0.96047627013697
H           -2.91188394178743        2.05857770469447        0.77891724383111
H           -1.16646731719540       -3.20114203571682        0.83577761094481
H           -1.13720927702331       -3.18470029558347       -0.95145433280815
H           -2.55445544386504       -2.56708260088472       -0.07518557852064
H            1.37205308551474       -2.94581767728866       -0.00688135575209
25
 energy: -43.838372523277 gnorm: 0.002311770514 xtb: 6.6.1 (8d0f1dd)
C            3.23582114021039        1.17499990693130        0.08224476893146
N            2.30129164324537        0.10148103150353        0.03289369591046
C            2.60041253119254       -1.24050906468068        0.03203783774772
N            1.42002200683287       -1.94161409669155        0.00200432363930
C            0.39765515688013       -1.06460707181405       -0.00771570266811
C            0.91689935130234        0.22215367260149        0.01378134349745
C            0.11112443246369        1.38152513707980       -0.00649244346259
O            0.48794393263842        2.55734196419449       -0.00980317360905
N           -1.27283388870091        1.05127437545999       -0.03089114456207
C           -2.20057416813487        2.17652865062273       -0.03678016260866
C           -1.82164333541180       -0.19805181549766       -0.05181034806785
O           -3.01944276115266       -0.39165596664320       -0.07445534987385
N           -0.94057454051905       -1.30367186761750       -0.03733060244412
C           -1.46749017645776       -2.64880494598067       -0.05691268181325
H            3.71246864563027        1.22596628324742        1.06501304724269
H            4.00650058152240        1.03963683418676       -0.67877175415897
H            2.69070194002280        2.09972339100918       -0.09716048868928
H            3.57728947238882       -1.65114659207676        0.04220927547683
H           -1.65675166039865        3.12872466659660        0.04058892912704
H           -2.76877131995764        2.17476412789263       -0.95936182274036
H           -2.91199613665860        2.05761388730891        0.77788057627270
H           -1.16181800630707       -3.19824283149057        0.83710148970408
H           -1.13462748431441       -3.18262156935324       -0.95067920202448
H           -2.55316672039602       -2.56850866819071       -0.07284829454912
H            1.36970309465495       -2.94605318564126       -0.01070121985144
25
 energy: -43.838379260199 gnorm: 0.001469014180 xtb: 6.6.1 (8d0f1dd)
C            3.23605710894286        1.17523364232080        0.08146797882265
N            2.30227399079835        0.10082913827805        0.03288734284049
C            2.60114929318220       -1.24084043545431        0.03285032760957
N            1.42091258601859       -1.94182962123663        0.00358035871172
C            0.39832557579848       -1.06489967782447       -0.00724906421480
C            0.91793287089235        0.22182411246377        0.01391501893080
C            0.11248129846091        1.38186475513629       -0.00675732831447
O            0.49008372085313        2.55714009627402       -0.01045384033234
N           -1.27198677034097        1.05192820872379       -0.03104076822922
C           -2.20184412567454        2.17589806470423       -0.03689186717743
C           -1.82064209237795       -0.19738600157440       -0.05156681269320
O           -3.01835178806104       -0.39029815821664       -0.07457026380912
N           -0.93998995185771       -1.30357005538825       -0.03729954759532
C           -1.46835302271420       -2.64866805579040       -0.05798365225468
H            3.71344328739187        1.22697428272037        1.06385229294147
H            4.00603348262036        1.04134384602889       -0.68053141726455
H            2.68955505630408        2.09936710486610       -0.09713661952744
H            3.57819220214743       -1.65183670278572        0.04354701223179
H           -1.65890024295677        3.12833744851889        0.04192137213292
H           -2.77123608702155        2.17429182645316       -0.95887057251255
H           -2.91258620454327        2.05805608881758        0.77864515664509
H           -1.16457111506579       -3.19992012225047        0.83541642152657
H           -1.13644131301354       -3.18337072126786       -0.95148764545452
H           -2.55398095285555       -2.56786004998837       -0.07453509641741
H            1.37058692364782       -2.94636276057144       -0.00766789016949
25
 energy: -43.838371582984 gnorm: 0.002097345558 xtb: 6.6.1 (8d0f1dd)
C            3.23623376602364        1.17546775732255        0.08208114735402
N            2.30188556301743        0.10174650871215        0.03280880666554
C            2.60124033459548       -1.23967004990867        0.03180381781252
N            1.42136876474484       -1.94112317264854        0.00202306206600
C            0.39808623212324       -1.06480609251099       -0.00774765589796
C            0.91725105528454        0.22232993027723        0.01393642608059
C            0.11130927036804        1.38197190419367       -0.00591634144164
O            0.48796416518481        2.55761783609081       -0.00890061839366
N           -1.27321092262322        1.05132866914739       -0.03116480131934
C           -2.20170332584225        2.17641521458611       -0.03780006276889
C           -1.82164439594051       -0.19829126040844       -0.05204976188256
O           -3.01942611951847       -0.39174852978517       -0.07559227084178
N           -0.94029825580677       -1.30421796971966       -0.03730020757426
C           -1.46821943717647       -2.64982170930750       -0.05664572021235
H            3.71379646629985        1.22463186692390        1.06457130744861
H            4.00563786492617        1.03900323433096       -0.68001808076931
H            2.69200115846385        2.10114980546088       -0.09623008150204
H            3.57881348231844       -1.65001921325169        0.04209599446988
H           -1.65787053664143        3.12773118190532        0.04327821501671
H           -2.76882855729144        2.17737365991713       -0.96144721559077
H           -2.91268082004111        2.06061099726888        0.77784910233974
H           -1.16442015645835       -3.20073307109530        0.83702590999167
H           -1.13682275609418       -3.18584420202584       -0.94959210532635
H           -2.55386878360630       -2.56919650906069       -0.07279030648310
H            1.37154967426572       -2.94566053345754       -0.01023766281473
25
 energy: -43.828569546150 gnorm: 0.102747176220 xtb: 6.6.1 (8d0f1dd)
C            3.22806016127600        1.17556174251811        0.07570347233384
N            2.29716376632985        0.08694922331223        0.03420252123256
C            2.58971566742077       -1.22530984873895        0.03103565631151
N            1.43333410150842       -1.94405738428875        0.00483282276635
C            0.39231599508197       -1.07038100484992       -0.00700734391070
C            0.92304657419090        0.20995446192984        0.01266801175547
C            0.09308171612388        1.38275675834788       -0.00675975111210
O            0.48114491375450        2.54431878312170       -0.01701907076187
N           -1.27987819231592        1.03753151919596       -0.03160438626328
C           -2.17125199498840        2.20399278745989       -0.02578998248282
C           -1.83186271207034       -0.21933134905617       -0.05909301431498
O           -3.01917080993318       -0.40120540675017       -0.07752244095467
N           -0.93457196690418       -1.31659484093557       -0.03688527738108
C           -1.46309354083168       -2.66373677614809       -0.05416172726098
H            3.70241383449367        1.23048149179701        1.05754383153291
H            3.99797407342385        1.03926977198223       -0.68405684880546
H            2.68292399719380        2.09829189169334       -0.10458466413130
H            3.57401471549463       -1.64629003952700        0.04476774985097
H           -1.65391736527827        3.23954694609117        0.10464508930353
H           -2.69984975480305        2.26052693301263       -0.93469447184672
H           -2.95302573814212        2.02874020624604        0.72158001308157
H           -1.16060377239732       -3.20832504298698        0.84111548704872
H           -1.12974903080009       -3.19603196245046       -0.94629440290903
H           -2.54934279064247       -2.58522544209017       -0.07303594525306
H            1.37422889722241       -2.95253124383004       -0.00346555889713
25
 energy: -43.833920260783 gnorm: 0.039782861371 xtb: 6.6.1 (8d0f1dd)
C            3.23539873655476        1.18140974640533        0.07766630207288
N            2.30464919519237        0.09808414449640        0.03253297259952
C            2.59994258351274       -1.23791556231739        0.03137897014157
N            1.42289200968639       -1.94279420914242        0.00458825467253
C            0.39465926552817       -1.06129281792425       -0.00657594307763
C            0.92241127506989        0.22095970230792        0.01164908679874
C            0.10365403525298        1.38498914236194       -0.00920852467843
O            0.48998800025219        2.55683051217748       -0.01840663077184
N           -1.27769163391380        1.04773997268161       -0.02929764842116
C           -2.19958778972404        2.18010671542634       -0.03556922271552
C           -1.83251653085653       -0.20268703176453       -0.05084004053732
O           -3.02931262953397       -0.39165816885187       -0.07811190842066
N           -0.94079450919739       -1.30299383267404       -0.03578468071998
C           -1.46614984302228       -2.65075592819007       -0.05495163941832
H            3.71321687466314        1.23658643051901        1.05993950345128
H            4.00404790961158        1.04704847310402       -0.68530531882766
H            2.68329408542524        2.10157764688145       -0.10233157643436
H            3.57746979035615       -1.66320369526958        0.04510656038739
H           -1.63070010132800        3.12405320189972        0.12726683024928
H           -2.71702810084018        2.24876645029634       -0.98131327812451
H           -2.94928815787288        2.04186048070605        0.74690925821562
H           -1.15978443139292       -3.19859295701573        0.83921643884892
H           -1.12953079901490       -3.18661023259705       -0.94573993924551
H           -2.55240319588267       -2.57550069108188       -0.07291255071213
H            1.35626470588161       -2.94710531737905       -0.00378550640045
25
 energy: -43.835524100294 gnorm: 0.015846398685 xtb: 6.6.1 (8d0f1dd)
C            3.22965248221328        1.17947405010057        0.07664286871863
N            2.30102990106394        0.09942364639852        0.03033023344683
C            2.60395893528178       -1.24284757253304        0.03178483379639
N            1.42320232453347       -1.94796202290553        0.00477380649652
C            0.39640084595991       -1.06863519361553       -0.00789767554369
C            0.91668477568453        0.21697732634446        0.01083094935194
C            0.10825336364170        1.37784064863630       -0.00756517558270
O            0.49271649902198        2.55272195108283       -0.01168289001792
N           -1.27598695548003        1.05448503214911       -0.02546181948681
C           -2.18655794152912        2.20189315539524       -0.02341206500562
C           -1.82794611900797       -0.19940182282413       -0.05377543319146
O           -3.02631062813770       -0.39521868142192       -0.07963479045513
N           -0.94245519294084       -1.30764624525975       -0.03833705879093
C           -1.46382314063932       -2.65835934418440       -0.05489643589373
H            3.70473883397337        1.23327524317265        1.06039615605104
H            3.99919591205497        1.04160490226183       -0.68502658667103
H            2.67786209166231        2.09951388794362       -0.10596067261696
H            3.58153997725938       -1.65771705321101        0.04482463819180
H           -1.67273278563923        3.16752447936917        0.11104205389968
H           -2.70575755567877        2.26103146615035       -0.97223903848307
H           -2.94187416435669        2.04606977717569        0.74276310848398
H           -1.15775640952088       -3.20774571134808        0.83992231335711
H           -1.12626465660821       -3.19805122023853       -0.94415079391303
H           -2.54986674448674       -2.58772072156943       -0.07365722010420
H            1.36519709608252       -2.95162780201323       -0.00349353710539
25
 energy: -43.835657597042 gnorm: 0.010536822576 xtb: 6.6.1 (8d0f1dd)
C            3.23145341375446        1.17934917967422        0.07765170970998
N            2.29808847070378        0.10341110633481        0.03082884174836
C            2.60216020194216       -1.23882730318968        0.03310539310282
N            1.42274789849402       -1.94496764452403        0.00610806968383
C            0.39617721226007       -1.06977005249791       -0.00637161339338
C            0.91272598034690        0.21763865386498        0.01109002900610
C            0.10210320528156        1.37337361577872       -0.01229353635170
O            0.47577345228850        2.55091930015125       -0.02285160817451
N           -1.28120077728055        1.04828414862090       -0.02927476135735
C           -2.17985829989669        2.20357421802729       -0.01929336456088
C           -1.82981009755861       -0.20546407408373       -0.05574510041606
O           -3.02641806614042       -0.40702825524342       -0.07768387660379
N           -0.94290845436619       -1.31021768878889       -0.03739572462654
C           -1.46702269533856       -2.65726527971768       -0.05425339090917
H            3.70999756238668        1.23156130669859        1.05958246661162
H            4.00092992071503        1.04198926707277       -0.68434321211181
H            2.68642519157847        2.10344031211117       -0.10167927186992
H            3.57989143363739       -1.64855789439356        0.04467323792004
H           -1.64173345827152        3.16789583086778        0.11591757831753
H           -2.70367229621231        2.26149528648579       -0.96296171026998
H           -2.94685041296512        2.03316940224732        0.73209161768686
H           -1.16221651023669       -3.20573712074848        0.84130091060085
H           -1.13242168835891       -3.19229308033231       -0.94705455043611
H           -2.55251384365268       -2.57795986294369       -0.07204117261025
H            1.37125340129686       -2.94911119641646       -0.00298719176430
25
 energy: -43.835851589811 gnorm: 0.005122295361 xtb: 6.6.1 (8d0f1dd)
C            3.23212196856030        1.17698382582478        0.07670024157637
N            2.30018234050956        0.10008545729578        0.03105640170237
C            2.60115416690400       -1.24295772013340        0.03275055573882
N            1.41993096374570       -1.94540316245490        0.00493422202540
C            0.39635178921416       -1.06807015547061       -0.00597690309236
C            0.91531118337161        0.21812542118505        0.01347515609596
C            0.10736502383829        1.37615647070284       -0.00629498187469
O            0.48492658813379        2.55226468437463       -0.01371955505027
N           -1.27831727241020        1.05213040681382       -0.02746220866343
C           -2.18624513733258        2.20068423023224       -0.02412556330693
C           -1.82777711410612       -0.20024225091885       -0.05331368885090
O           -3.02453250945794       -0.39840857775635       -0.07860556411826
N           -0.94262139863061       -1.30641647935855       -0.03664382596144
C           -1.46414573200506       -2.65469340652531       -0.05485782328158
H            3.70906871510876        1.23379537363215        1.05917123794660
H            4.00199117645748        1.04219023488873       -0.68537719178085
H            2.68272516994953        2.09838971290628       -0.10484518302334
H            3.57786766696684       -1.65631855996799        0.04361077214976
H           -1.65322406975301        3.16645512390921        0.11238660821713
H           -2.71290807051256        2.25137247210930       -0.96703074732680