72
 energy: -103.314684214967 gnorm: 0.058598372758 xtb: 6.6.1 (8d0f1dd)
N           -1.49138115779459        2.76660921332187        2.23513402241177
C           -1.56941881528681        2.16147110120809        1.15313965226793
C           -2.75567667270673        2.06206120297505        0.24933960330101
C           -3.32447321720885        0.65006777435971        0.33141833299266
C           -4.30940870218537        0.24795221002688       -0.57397795716852
C           -4.85909578605561       -1.01960642974579       -0.52738800741787
O           -5.82036759217174       -1.48737550859824       -1.36163947418307
C           -6.39718888329938       -0.60927088471777       -2.29744690511990
C           -4.41073623566872       -1.94033096939998        0.45082020752619
O           -5.00031503466443       -3.16129619790379        0.41631760243719
C           -4.67709034401398       -4.09613739541630        1.41697813246798
C           -3.43574474152894       -1.53805611911983        1.34413020857223
C           -2.89829471847288       -0.25565823922546        1.28417331414707
C           -2.20344248470347        2.30549757418287       -1.17508478535286
C           -1.27290260156046        1.18437060029765       -1.66498431644683
C            0.00063289826096        1.12012673823933       -0.89483703549312
N            0.62861241205563       -0.05168066972506       -0.57701428791426
C            2.01635317927068       -0.06460440087451       -0.20235534263535
C            2.99732024506122       -0.56753358935937       -1.33974210636749
C            4.40293895600765       -0.45043250269648       -0.87898749707347
C            5.11825576601234        0.71483210508440       -1.07892009478578
C            6.42078038930920        0.83321055098725       -0.61872925737323
C            7.02480789025598       -0.21177018371664        0.05782154794655
O            8.28345352074696       -0.20735765205286        0.54274144769475
C            9.07886680012539        0.93788916344660        0.34657046277265
C            6.29705080016756       -1.40787811553771        0.27260865529852
O            6.96711458055595       -2.38113078582162        0.93680675620086
C            6.33404068861737       -3.61558150211114        1.15520672767202
C            5.00139928596520       -1.50685510513503       -0.19247206560736
C           -0.07537196161134       -1.30794297025346       -0.62055818401934
C           -3.88299828616666        3.08143193490319        0.58640469116648
C           -4.51080821860242        2.77879294995592        1.94508892811132
C           -3.40840028096293        4.53162449399487        0.55178492948966
H           -4.66499365284850        0.94676242431805       -1.31319861645372
H           -6.85240511949597        0.25848724134833       -1.80986349479453
H           -7.17216838851020       -1.18669348876945       -2.79773463821306
H           -5.66636667846129       -0.26975007122822       -3.03906036378670
H           -4.90004904807249       -3.70929747776440        2.41655567067952
H           -5.30407316740030       -4.96341311073242        1.21797705488126
H           -3.62374872630528       -4.39251758505914        1.36722489550538
H           -3.08878257896229       -2.21075012284441        2.11175905048636
H           -2.16436872969188        0.03101930465152        2.02046108522191
H           -3.03221273203254        2.39327902671573       -1.87754655687777
H           -1.65648176985051        3.24949446308210       -1.19025742628789
H           -1.81906040995412        0.24546434185194       -1.62117774012312
H           -1.01270099146773        1.38145836701075       -2.70782889030808
H           -0.68947166293977        1.65234745335373        0.64475610673431
H            0.63690571923561        1.98979306270783       -0.94201616445458
H            2.12296462871035       -0.69626779019224        0.68681548313031
H            2.30128073896450        0.95803421993660        0.08911437853865
H            2.83215599597252        0.04043533305801       -2.22413731173542
H            2.73891715751651       -1.59513982746747       -1.56349260534652
H            4.67400793246751        1.54237093220390       -1.61019259026604
H            6.95988790965201        1.75002841210884       -0.80010291430951
H            8.64710685847306        1.81873645348636        0.83266573379150
H            9.22944676592719        1.14666518121472       -0.71281891234833
H           10.03834825373238        0.70786148231235        0.80709287303584
H            7.06620488595653       -4.23261919248748        1.67381702481406
H            5.44693050142606       -3.50838480869681        1.77781318806453
H            6.06226808172943       -4.09967039660556        0.21303070209143
H            4.44137083752935       -2.41620403776267       -0.04034875962371
H           -0.24741936597611       -1.62081724834805       -1.65219592425739
H           -1.03874602611027       -1.22941465438901       -0.10245590208822
H            0.53791396043369       -2.05918495544862       -0.12458709134611
H           -4.65239905522247        2.95803966810451       -0.18090025212952
H           -3.78154328373799        2.90842184234185        2.73261023173210
H           -4.89248897517266        1.76107007283980        1.98075113624401
H           -5.33794861102562        3.46044733546243        2.12566470111271
H           -2.62127502296530        4.69104931534670        1.27975413732533
H           -3.05270834094973        4.81826107362639       -0.43316913429434
H           -4.24015147198844        5.18570398470953        0.80632159492430
H           -0.62079879885805        2.78837152168752        2.74747784746006
72
 energy: -103.316062432806 gnorm: 0.027420656495 xtb: 6.6.1 (8d0f1dd)
N           -1.50986132833528        2.79404650061223        2.24679342145888
C           -1.57419992236022        2.15913137798070        1.16956918208998
C           -2.75658273828134        2.06400105087404        0.25383192526874
C           -3.32935788996044        0.65436777228152        0.33548620219851
C           -4.31252194081824        0.24978293166500       -0.57022855779011
C           -4.85861728498105       -1.01907836108935       -0.52639145593391
O           -5.82300565587081       -1.48847591966009       -1.36268970061565
C           -6.39633920090120       -0.60897435495360       -2.29755833047026
C           -4.41125379556076       -1.93874828174958        0.45074043501615
O           -5.00253562749932       -3.16324638086360        0.41597658855663
C           -4.67628009305724       -4.09546165224843        1.41649291064969
C           -3.43997656434345       -1.53524793298613        1.34668233404737
C           -2.90603142136961       -0.25168968508605        1.28919903353267
C           -2.20040658679837        2.30390292756743       -1.17363801237631
C           -1.26581557481847        1.18838678709117       -1.67447674642205
C            0.01049420414220        1.12604539402637       -0.90123265516366
N            0.64115677399759       -0.05835100390777       -0.57923731306041
C            2.02127266680092       -0.06596766934522       -0.20181411556402
C            2.98194851821633       -0.56458457412993       -1.33070374878552
C            4.39832804043002       -0.45075247493635       -0.87927075349578
C            5.11709785703816        0.71345263756191       -1.07978601529901
C            6.42021373080557        0.83176526627744       -0.61863642075850
C            7.02591129851646       -0.21261832538454        0.05780088332789
O            8.29226249188943       -0.20785921182508        0.54640791495350
C            9.08231740150791        0.93835892479688        0.34816819252442
C            6.29844845814702       -1.40723520672418        0.27216432549150
O            6.97233037402968       -2.38290273198145        0.93877122156071
C            6.33482247582841       -3.61565587240687        1.15478902991086
C            5.00203623817321       -1.50648055738087       -0.19384468533229
C           -0.06510621643682       -1.31125876224187       -0.62395402605874
C           -3.88729619574903        3.08000437581880        0.58418100339879
C           -4.51467902418241        2.77974660676964        1.94380391922758
C           -3.41148115221989        4.53045089118939        0.55187136203019
H           -4.66247894470219        0.94641037379204       -1.31411268412733
H           -6.85033957710067        0.25947665038001       -1.80913501059014
H           -7.17185545868342       -1.18485842636582       -2.79990890977947
H           -5.66379454470518       -0.26907540775063       -3.03760266851661
H           -4.89841183799290       -3.70816374589397        2.41627665120894
H           -5.30194430571070       -4.96445576857119        1.21945739999323
H           -3.62244917046735       -4.39022559702591        1.36708167152984
H           -3.08749437348296       -2.21072497761375        2.11013459684881
H           -2.16363458300432        0.03266330179241        2.01829399980967
H           -3.03313518677135        2.39656652268559       -1.87280117603576
H           -1.65381088867339        3.24824710956362       -1.18585392015571
H           -1.80427177886661        0.24362868305338       -1.62565574797281
H           -1.03803815713164        1.39132957501561       -2.72974809078586
H           -0.69933979529039        1.64077947012702        0.67806389468741
H            0.65897080534121        1.98580741742953       -0.97586840843528
H            2.14827496862135       -0.70743568168363        0.67731743247566
H            2.31360305290229        0.95131273737498        0.07795761370715
H            2.81308547849759        0.04758913805319       -2.21544330391882
H            2.72968702471431       -1.59738456921124       -1.56321750016431
H            4.67038296848412        1.54151965968057       -1.60910234836292
H            6.95815865589665        1.74918004793563       -0.79861143005593
H            8.64661645475925        1.81803716542849        0.83384325771907
H            9.22968445005733        1.14692626277842       -0.71529724688659
H           10.04266961660640        0.71160176399674        0.80827266169146
H            7.06507110931523       -4.23406698861520        1.67479072620460
H            5.44378350433302       -3.50684297993417        1.77926890688874
H            6.06108344691753       -4.09938394490714        0.21117889652527
H            4.44012998299181       -2.41466033616460       -0.04031721412869
H           -0.24831731387015       -1.63308778089212       -1.65393334977944
H           -1.02632329132565       -1.22867874646887       -0.10717450607603
H            0.53534832523715       -2.06874693186471       -0.12387628285551
H           -4.65963964918626        2.95936366379652       -0.18352044606272
H           -3.77556550414933        2.90712440456577        2.72685313084322
H           -4.89378677888228        1.76110051041042        1.97982609686736
H           -5.34218919976879        3.46208862738165        2.12699896016779
H           -2.62027478230009        4.68328323244225        1.27896404202253
H           -3.05206761965842        4.81514043690054       -0.43336224370418
H           -4.24143876697346        5.18706114803617        0.80669302405400
H           -0.63138135448257        2.79161563198697        2.75492768927890
72
 energy: -103.316929778443 gnorm: 0.012681713733 xtb: 6.6.1 (8d0f1dd)
N           -1.49919503567829        2.78701796689048        2.24147724356565
C           -1.56197969430533        2.15282626834152        1.15849040666610
C           -2.75432838579251        2.06377999997356        0.25146952592660
C           -3.32322443063513        0.65230577426874        0.32987985037955
C           -4.30955176626608        0.24811231219998       -0.57237488893000
C           -4.85522858259242       -1.02037729817662       -0.52762038263185
O           -5.82417625850369       -1.48984056118437       -1.36301332861751
C           -6.39747884093684       -0.61054174024179       -2.29684538519572
C           -4.40809129938109       -1.93944476681589        0.44843054196262
O           -5.00366167590923       -3.16480139931535        0.41570883091269
C           -4.67792215541067       -4.09596667713739        1.41603207169713
C           -3.43615984351762       -1.53726711310312        1.34359094562809
C           -2.90021923398579       -0.25507147498303        1.28354140395556
C           -2.20408479232400        2.30661455899245       -1.17890079593002
C           -1.26996070296599        1.18668822208350       -1.66938559292481
C            0.00096324184106        1.12956349691606       -0.89023281701349
N            0.63758069907412       -0.05991767830188       -0.57508163306047
C            2.01460236436146       -0.06211055004842       -0.20077482441907
C            2.97537395364199       -0.55935371735353       -1.32238891611368
C            4.39700138688598       -0.44781733728628       -0.87506599907739
C            5.11789604959178        0.71500088776686       -1.07889951787374
C            6.42088546053783        0.83271594717888       -0.61855517522021
C            7.02385555752822       -0.21229941991621        0.05806148745953
O            8.29440377397968       -0.20847002373649        0.54845702862529
C            9.08112062078537        0.93755445307693        0.34860020419525
C            6.29732737374925       -1.40560284384585        0.27312542480055
O            6.97392630115707       -2.38314643822482        0.93992975871162
C            6.33633308842373       -3.61580369302344        1.15431915161425
C            5.00099283028628       -1.50467385580723       -0.19169452407704
C           -0.06998079170850       -1.30841407727772       -0.62191318465105
C           -3.88172715322960        3.07950053756496        0.58718947765998
C           -4.51275834438637        2.77919502963477        1.94570512636304
C           -3.41038309813715        4.53247326804625        0.55317604237551
H           -4.66254355495417        0.94592242368761       -1.31379641716353
H           -6.85190544336465        0.25821584555425       -1.80877733694800
H           -7.17349183081717       -1.18714596988682       -2.79803318545390
H           -5.66657031975386       -0.27038289168522       -3.03860962755318
H           -4.89994730960193       -3.70901675213811        2.41620091172428
H           -5.30485194339569       -4.96417600287242        1.21879976144348
H           -3.62458491492794       -4.39293891577113        1.36736960331845
H           -3.08695880029957       -2.21145150115715        2.11015907774216
H           -2.16175790562346        0.03093021328235        2.01629586702974
H           -3.03710558827763        2.39685940288222       -1.87869018479846
H           -1.65653147370235        3.25043807419549       -1.19163717836654
H           -1.81124818071316        0.24193551705909       -1.62191502681328
H           -1.03178176885598        1.38591973238438       -2.72398679139662
H           -0.69180943654236        1.65473086496273        0.65877159853090
H            0.64431367485091        1.99265826378441       -0.94695906985520
H            2.13588205272462       -0.69984805342127        0.68194103954776
H            2.30079646887955        0.95313613509049        0.08140550645482
H            2.82311422463846        0.04454981719832       -2.21864136805968
H            2.73569946699896       -1.59684916132670       -1.56157771874206
H            4.67182440002686        1.54216209202515       -1.61058864408372
H            6.96005668336678        1.74906763325439       -0.80010394320292
H            8.64580619073323        1.81811570772533        0.83349775393001
H            9.22841271979975        1.14619549458291       -0.71660508047417
H           10.04109659124645        0.70985321051887        0.80792043589023
H            7.06683788468237       -4.23353756233493        1.67450871315892
H            5.44358471194675       -3.50826270069575        1.78031485503014
H            6.06170315676296       -4.09998710184978        0.21060960031540
H            4.43891988205144       -2.41345817531256       -0.04033417218971
H           -0.25514516312760       -1.62688631776983       -1.65389895432313
H           -1.03175203621157       -1.22969043428567       -0.10492483925772
H            0.53102869821985       -2.06619095667271       -0.12454336466380
H           -4.65455692095633        2.95876140430027       -0.18108783761146
H           -3.77622278939519        2.90770107492467        2.73267723890553
H           -4.89101782868023        1.76028330646039        1.98127862953662
H           -5.34113298916879        3.46129867323319        2.12529960493212
H           -2.61895883589084        4.68959586598949        1.27995412059922
H           -3.05136088257552        4.81761165453403       -0.43274578818661
H           -4.24224672178386        5.18652787039217        0.80670694877467
H           -0.60588548701268        2.77384029925851        2.73023321776366
72
 energy: -103.316958533053 gnorm: 0.010315845773 xtb: 6.6.1 (8d0f1dd)
N           -1.51842007293127        2.78488720097343        2.24669062337851
C           -1.56659634148164        2.15592689258133        1.16013860929461
C           -2.75726480077555        2.06325297257199        0.25189364604668
C           -3.32592956216520        0.65229690529246        0.33216802227596
C           -4.31144407846218        0.24874486363769       -0.57109757812980
C           -4.85764228396064       -1.01899019904560       -0.52498792986989
O           -5.82444141320460       -1.48824124854146       -1.36278690576011
C           -6.39561822162636       -0.60875233469282       -2.29748685817903
C           -4.41073832429097       -1.93763276528026        0.45140010456146
O           -5.00352409519529       -3.16407209344193        0.41719837879465
C           -4.67584513767506       -4.09518498224776        1.41649765461328
C           -3.43868036028778       -1.53644080210464        1.34690471993485
C           -2.90308869326363       -0.25442514338304        1.28701185114110
C           -2.20098475204649        2.30577275942754       -1.17540286035101
C           -1.26847828145041        1.18465050141238       -1.66366864627222
C            0.00213393463008        1.12752111419402       -0.88964120763066
N            0.63975753287699       -0.05988484344950       -0.57826762483089
C            2.01952007537854       -0.06424637960507       -0.20748996314194
C            2.98253421484893       -0.56317650100471       -1.33143943692758
C            4.40260964411622       -0.45159061165373       -0.88142256890487
C            5.11982390845390        0.71363849797009       -1.08142360597398
C            6.42132319790263        0.83321595480153       -0.61984569966733
C            7.02236103166344       -0.21274801263493        0.05552826645872
O            8.29186885629730       -0.20815480663626        0.54647123351724
C            9.07898424908982        0.93744659032747        0.34841675114426
C            6.29768680008751       -1.40675642857682        0.27000738226719
O            6.97262346937899       -2.38335950882758        0.93868375095380
C            6.33552119794557       -3.61544997896216        1.15418486068948
C            5.00305929284699       -1.50795367886908       -0.19603155975991
C           -0.06857786663324       -1.30654228766987       -0.62069070439688
C           -3.88339755897285        3.07981222897962        0.58560780484437
C           -4.51439923766920        2.77910555491302        1.94395843167620
C           -3.41025896188178        4.53197186636280        0.55114021886339
H           -4.66525884636746        0.94700203009793       -1.31200036761971
H           -6.85170473320788        0.25987072811856       -1.81075672969409
H           -7.17068786952024       -1.18524683730441       -2.79998752521225
H           -5.66391200255071       -0.26834936256201       -3.03839757091523
H           -4.89888888095920       -3.70976589154684        2.41713026315632
H           -5.30130090372625       -4.96422801704085        1.21831463891481
H           -3.62193728251470       -4.39045768289794        1.36746346449797
H           -3.09057244944847       -2.21023688245177        2.11408644171351
H           -2.16809782779659        0.03295814468809        2.02294030339878
H           -3.03097855810309        2.39432579760542       -1.87754707878443
H           -1.65339389376315        3.24931604781748       -1.18671145250439
H           -1.81461531485588        0.24298734543075       -1.62031301985870
H           -1.01547675744409        1.38198143756318       -2.71339627687914
H           -0.69637573168899        1.65394595311777        0.66358220555154
H            0.64591447696142        1.98901282119944       -0.94996096080755
H            2.13113376357122       -0.69813685568656        0.68074297554959
H            2.30490960319613        0.95123257875584        0.08231417893097
H            2.83412173396659        0.03899737761731       -2.22928792749001
H            2.74128312261089       -1.59952097280809       -1.56978808894794
H            4.67276044052343        1.54140224882463       -1.61109287365500
H            6.95948556210711        1.75057370469301       -0.79938157772453
H            8.64604132463501        1.81911413504052        0.83305834152444
H            9.22952290725785        1.14764358724376       -0.71520431251082
H           10.03848037447323        0.70837932099161        0.80768160487829
H            7.06541324727347       -4.23296829209163        1.67496412804651
H            5.44345634801622       -3.50738388918727        1.77919889212144
H            6.06099976618622       -4.10053277817739        0.21170206904673
H            4.44148362481970       -2.41701541239870       -0.04373601359576
H           -0.24646939166675       -1.62489788644775       -1.65339885025407
H           -1.03278227340873       -1.22933510780651       -0.10489214406106
H            0.53837177208689       -2.06003318705054       -0.12328894109997
H           -4.65486813665238        2.95821147258885       -0.18345774067825
H           -3.78014583643371        2.90754917045345        2.73180271753582
H           -4.89481833585084        1.76112285189597        1.97984386204758
H           -5.34062887462598        3.46224343807925        2.12464392705284
H           -2.62023582013981        4.68906819841584        1.27881020347628
H           -3.05192163328917        4.81751201116973       -0.43468711084503
H           -4.24114238104011        5.18620524100446        0.80519695221834
H           -0.62978239669984        2.78172825348348        2.74251574506384
72
 energy: -103.317167837982 gnorm: 0.005809979561 xtb: 6.6.1 (8d0f1dd)
N           -1.50731105073415        2.78682853083870        2.24313999420902
C           -1.56122851218214        2.15659039993019        1.15878999855405
C           -2.75514260497101        2.06342973468024        0.25325978350273
C           -3.32551755605123        0.65284647966649        0.33267038909355
C           -4.31028773950065        0.24908646928439       -0.57178562386240
C           -4.85634216470231       -1.01901595804599       -0.52603127504408
O           -5.82314225234630       -1.48853934322182       -1.36319226699847
C           -6.39661885832995       -0.60959657782876       -2.29676709797183
C           -4.40914828059683       -1.93797300151151        0.44987295600066
O           -5.00241079209996       -3.16390730357821        0.41593120735813
C           -4.67702358417872       -4.09500735961635        1.41597332745502
C           -3.43600360378222       -1.53724372224536        1.34459191352711
C           -2.90087141120455       -0.25491203609644        1.28551978721208
C           -2.20228187210231        2.30514474112325       -1.17557102805438
C           -1.27023554294171        1.18612097957022       -1.66987165776340
C            0.00278549313481        1.12629486587992       -0.89902668196716
N            0.63784282566251       -0.05958565554621       -0.58082669761931
C            2.01779686317696       -0.06393572999559       -0.20396070306794
C            2.98093264485251       -0.56205552789916       -1.32719698936939
C            4.40076644366448       -0.45009677607231       -0.87686092106792
C            5.11787626300606        0.71481798085392       -1.07765529738220
C            6.42039106586510        0.83369639608440       -0.61813684099042
C            7.02172143368997       -0.21220000761425        0.05708647569971
O            8.29133762862812       -0.20774591943496        0.54627410518614
C            9.07962754505943        0.93713875538047        0.34810688597183
C            6.29664644000032       -1.40577728198673        0.27264715947556
O            6.97162055622123       -2.38276007700500        0.93965276702674
C            6.33558178140193       -3.61528823216204        1.15439300057786
C            5.00107050261464       -1.50629448579598       -0.19144582280803
C           -0.07047171243398       -1.30723711095086       -0.62172075463997
C           -3.88243885510731        3.07941617212209        0.58662622654108
C           -4.51236535564284        2.77858441706257        1.94512429433107
C           -3.40980322681332        4.53135104866106        0.55274269222913
H           -4.66302436175329        0.94685403197855       -1.31368969965093
H           -6.85186261551563        0.25883863527326       -1.80902334569179
H           -7.17258971847883       -1.18620393313368       -2.79782139870118
H           -5.66621737138966       -0.26923119575555       -3.03888885289925
H           -4.89961294352451       -3.70831598560820        2.41620998968081
H           -5.30400598870809       -4.96321825927296        1.21862026790513
H           -3.62366090635023       -4.39220873657740        1.36741281548092
H           -3.08586876178363       -2.21199551859314        2.10972138609549
H           -2.16185328277812        0.03078473407757        2.01803124414766
H           -3.03458847348254        2.39448025370978       -1.87461656776916
H           -1.65590868220572        3.24918955114491       -1.18868036560939
H           -1.81468106833572        0.24427663668492       -1.62544681193270
H           -1.02512476834121        1.38603202908687       -2.72091522202850
H           -0.69516123353122        1.64596268918008        0.66179277717540
H            0.64844193160468        1.98651025153258       -0.96261141789643
H            2.13207767903823       -0.69961750843601        0.68353863971359
H            2.30451114478364        0.95281827386925        0.08488464802189
H            2.82371999941114        0.04419575125383       -2.21980129656519
H            2.73419835212847       -1.59674207934888       -1.56288727278028
H            4.67104381327070        1.54219986736427       -1.60804793350727
H            6.95905034677454        1.75026912717772       -0.79941577628227
H            8.64733292937603        1.81895409578380        0.83287711935196
H            9.22973809031324        1.14725341393484       -0.71513271457114
H           10.03988422797057        0.70903566382201        0.80690936521512
H            7.06588569908843       -4.23330709693488        1.67401401030774
H            5.44432397670240       -3.50820599575888        1.77955484133037
H            6.06116614398111       -4.09931984959629        0.21163143390654
H            4.43918654049668       -2.41474977657330       -0.03776045215655
H           -0.24867458954039       -1.62777018046216       -1.65353461760289
H           -1.03452778725297       -1.22845465635618       -0.10609061825175
H            0.53488221427587       -2.06230202269131       -0.12367354557745
H           -4.65469430472214        2.95790424397439       -0.18152456637684
H           -3.77742545706848        2.90774185179094        2.73148311822625
H           -4.89175876252128        1.76030157523293        1.98120963748610
H           -5.33903282226259        3.46085418887749        2.12688812202942
H           -2.61987072558790        4.68750150439080        1.28033279531024
H           -3.05198706399226        4.81702294819225       -0.43295909714679
H           -4.24054543733008        5.18556832582575        0.80754170877438
H           -0.61825917654193        2.78383442366579        2.73843985974155
72
 energy: -103.317158475402 gnorm: 0.005632840711 xtb: 6.6.1 (8d0f1dd)
N           -1.50706198071573        2.78632681906470        2.24541554690602
C           -1.56293327279868        2.15485806361431        1.16184302972338
C           -2.75607124967310        2.06417711156669        0.25329401066423
C           -3.32634558281840        0.65318706613231        0.33161838890471
C           -4.31084572309492        0.24840837459253       -0.57266859690115
C           -4.85671391924260       -1.02001800095048       -0.52675254404520
O           -5.82397049859641       -1.48966611192268       -1.36368133097542
C           -6.39663586907508       -0.61048475260130       -2.29734292372842
C           -4.41014478973119       -1.93848612107039        0.44969276502214
O           -5.00327774271038       -3.16484385109493        0.41621615051121
C           -4.67720200617073       -4.09581520381026        1.41611606215512
C           -3.43848235640906       -1.53629490197742        1.34544336837479
C           -2.90318942351831       -0.25390610082666        1.28562591472580
C           -2.20284835988967        2.30585234568851       -1.17607923839686
C           -1.26857709962365        1.18696562274486       -1.66736393908765
C            0.00317276499778        1.12749249400272       -0.89237039635993
N            0.63889896778108       -0.05987032572409       -0.57649742510496
C            2.01951362172262       -0.06393695851004       -0.20334375341815
C            2.97975689108706       -0.56141955353822       -1.32713813596440