72
 energy: 0.000000000000 xtb: 6.6.1 (8d0f1dd)
N           -1.47310921155849        2.74401293103706        2.22063921685122
C           -1.55658879776851        2.16490285539332        1.13274273951491
C           -2.74549199786261        2.05621232186130        0.23826248438941
C           -3.31377553111525        0.64333411542669        0.32332512650568
C           -4.30230156009016        0.24487110156316       -0.58026161703006
C           -4.85238763031941       -1.02286490450319       -0.53363588718165
O           -5.81419972815119       -1.48606034185536       -1.36157882725342
C           -6.39655633239252       -0.60827000183299       -2.29568474302620
C           -4.39972501531283       -1.94646102182611        0.44396929121966
O           -4.98748311285188       -3.16145997157803        0.41085992006324
C           -4.66362127904578       -4.10093827755394        1.40909127743729
C           -3.42072513477031       -1.54561384810496        1.33436546260297
C           -2.88302799614223       -0.26315800396994        1.27400150770375
C           -2.19303798107274        2.30467000305896       -1.18742977106749
C           -1.26651538239283        1.17243369445008       -1.65249429687285
C            0.01082524939134        1.09745454476277       -0.89354803499847
N            0.61779393476578       -0.02034948052406       -0.57705522512502
C            2.00145210352228       -0.02376006389122       -0.15611399603240
C            2.92554934655222       -0.53865282675074       -1.27700088804721
C            4.35756843073516       -0.43050757231754       -0.83075544324989
C            5.07346135469827        0.73206409086248       -1.03980965825901
C            6.38627986649936        0.84224441421807       -0.60344822702769
C            7.00047264773336       -0.20824756335880        0.05722314418200
O            8.26703657141718       -0.21011313101264        0.52410943644933
C            9.06912227848686        0.92943601033931        0.31863058007678
C            6.27039964270142       -1.40439753960823        0.28033466008274
O            6.94829939911432       -2.38012925705718        0.92751999079483
C            6.31537317745639       -3.61583200086742        1.15217711710877
C            4.96302794628964       -1.49347471867959       -0.16064430359178
C           -0.05511211367372       -1.29906247805359       -0.62085686319744
C           -3.86758037025447        3.07992600430699        0.58498060215443
C           -4.49286159663096        2.77383493050346        1.94313289484366
C           -3.39165179876499        4.52917666589254        0.54797523472093
H           -4.66030026466202        0.94509067363451       -1.31640568823548
H           -6.85037928558380        0.25803162192116       -1.80468845313260
H           -7.17287442604349       -1.18600110843259       -2.79318157561361
H           -5.66836817451085       -0.26952966318766       -3.04040255244073
H           -4.88416720672258       -3.71589460520039        2.40913542187496
H           -5.29223570620378       -4.96637458756866        1.20969236903657
H           -3.61139813139015       -4.39919835331056        1.35529357841967
H           -3.07077796610445       -2.21868765711333        2.10002662693138
H           -2.14562754426994        0.02067850696302        2.01001344383370
H           -3.02188875377605        2.38238012313952       -1.88813545054866
H           -1.65198530896729        3.25146700677685       -1.20556284570283
H           -1.81103374245520        0.23006524641044       -1.62116301628650
H           -0.99335688527853        1.37490212198123       -2.69443256973690
H           -0.67628064361333        1.65183887049447        0.61785727145403
H            0.63525841192517        1.98466369793744       -0.92314021190751
H            2.11132552493482       -0.65949692842762        0.72532613231274
H            2.30680473056284        0.98978251704176        0.11078972794250
H            2.76694198818247        0.06750735147374       -2.17075252200790
H            2.67954581369920       -1.57455627803457       -1.51167743520200
H            4.62169998552446        1.56295612048703       -1.56123579000624
H            6.92357674630170        1.75715815945204       -0.79119596719031
H            8.65159112996149        1.81001823324363        0.81701555159939
H            9.20136171144928        1.14042857828877       -0.74698991949293
H           10.03428838009630        0.69003240176163        0.76064937965836
H            7.05567174969094       -4.23621171795340        1.65347565939075
H            5.43848001056755       -3.50813558175093        1.79970565785717
H            6.02060041905269       -4.09420497120334        0.21253282636366
H            4.40102758497114       -2.40127266373392       -0.00490198249042
H           -0.22071299714579       -1.61775583601871       -1.65116008982042
H           -1.01972258008625       -1.24102717432227       -0.10935206830928
H            0.55899954147532       -2.04486085926761       -0.12333730421426
H           -4.63991875734388        2.95501092798550       -0.18098088071825
H           -3.76095216473977        2.90314704960906        2.73380821053058
H           -4.87457614030224        1.75695641518947        1.97884603101694
H           -5.31925552549014        3.45579210326349        2.12325564252114
H           -2.60025590131176        4.69225046143352        1.27368918226171
H           -3.03987406413880        4.81897652321898       -0.43870975059559
H           -4.22191740670577        5.18069648090034        0.80616693961239
H           -0.59832433787845        2.77744694953323        2.72958984441332
72
 energy: -5.853511800352 xtb: 6.6.1 (8d0f1dd)
N           -1.50648430059958        2.79226245915695        2.24176421046257
C           -1.55595338626206        2.15685817206656        1.15954567817669
C           -2.74715710215358        2.06292163934636        0.24959840190735
C           -3.31493839658043        0.65132750325359        0.32946949057244
C           -4.29838274044159        0.24708903709308       -0.57547293830606
C           -4.84422493783793       -1.02108170452454       -0.52965188067270
O           -5.81033784676933       -1.49073067834943       -1.36775416676420
C           -6.38297975550053       -0.61174797725310       -2.30154993059952
C           -4.39888645807062       -1.93867811589581        0.44815337919681
O           -4.99326240210750       -3.16423768512547        0.41557187719647
C           -4.66821045525280       -4.09482521028131        1.41570649741338
C           -3.42815626004540       -1.53699721804381        1.34515860717366
C           -2.89283129128339       -0.25478393713130        1.28532172742138
C           -2.19229751357911        2.30773107613651       -1.17792999540354
C           -1.26677102981382        1.18287623278903       -1.67074882497655
C            0.00234566228198        1.12603436405750       -0.90221506123828
N            0.62740034506048       -0.05474602371028       -0.56801514255412
C            1.99643258109623       -0.04496638367514       -0.16372005180499
C            2.93442354420037       -0.55860246621063       -1.27888672991342
C            4.36194357397131       -0.43526538691450       -0.84279594169889
C            5.08515570216476        0.73102509647328       -1.03559411708190
C            6.39343299160738        0.83420189063331       -0.59204839411452
C            7.00456597509523       -0.21945399930082        0.05854214033078
O            8.28431517781340       -0.21556451328503        0.52468954356865
C            9.06175431374387        0.93426748254313        0.31354137632908
C            6.27645572875854       -1.41112873956626        0.27236775052483
O            6.96581442237416       -2.39200677455564        0.91990286555625
C            6.33879683134833       -3.62669728286496        1.14557200842550
C            4.97087464591662       -1.50026798985495       -0.17211573660850
C           -0.06399940867613       -1.30975681019000       -0.63104881569322
C           -3.87475094379823        3.07773940646393        0.58250398929988
C           -4.50742788632481        2.77718979439999        1.94000144447838
C           -3.40506501994426        4.53096671187432        0.54686347345244
H           -4.64765150370023        0.94397291927463       -1.31956854804213
H           -6.83758172095463        0.25750065445519       -1.81423741228081
H           -7.15909179920615       -1.18839303970130       -2.80257711204085
H           -5.65208844486669       -0.27260860655494       -3.04391946374882
H           -4.89295928684141       -3.70887846123329        2.41572864453087
H           -5.29373701939962       -4.96366796844074        1.21659307489982
H           -3.61442083037470       -4.39099470140237        1.36902959504263
H           -3.08015853715703       -2.21038844859914        2.11273466481744
H           -2.15620107309101        0.03195411219303        2.02027169546039
H           -3.02284334070505        2.40583024993574       -1.87785370780067
H           -1.63916118343551        3.24850841947769       -1.18705780775610
H           -1.80875673221961        0.23891953159570       -1.62812322248906
H           -1.02190657545754        1.38455280907155       -2.72234111562256
H           -0.68907276980439        1.64886856799373        0.67189510780746
H            0.64838687798037        1.98583855929332       -0.95203959514220
H            2.10905356081010       -0.67409314051773        0.72664796672558
H            2.29631268770841        0.97295238339418        0.09860189662923
H            2.75734126607785        0.03398932166630       -2.17730801298287
H            2.67893623330180       -1.59842145966214       -1.49798664820386
H            4.68199619875573        1.59793564935584       -1.53967614610348
H            6.91628170126428        1.75864886541013       -0.77382011081702
H            8.63791313098993        1.81214185776969        0.81377508134348
H            9.18475974639900        1.15070918923935       -0.75340678628228
H           10.03261467202183        0.70781970343081        0.74843468909711
H            7.08444585481033       -4.24138473694560        1.64758115340437
H            5.46174094409422       -3.52422306974808        1.79370873429027
H            6.04530236506612       -4.10969584900578        0.20725934219718
H            4.41017792858912       -2.41118767597239       -0.01674495157264
H           -0.23631788191776       -1.62771595531311       -1.66551549662403
H           -1.03116974319089       -1.24425591707883       -0.12294134283487
H            0.54054261293777       -2.06407796967980       -0.13249933760359
H           -4.64676669075867        2.95440628566527       -0.18612487084209
H           -3.77398539714900        2.90869235383772        2.72824666303594
H           -4.88390054660543        1.75767246528182        1.97576317286545
H           -5.33745913616521        3.45746045244671        2.11657160581614
H           -2.61662604888497        4.69179155610560        1.27541810845900
H           -3.04503877912233        4.81585292543674       -0.43860570267861
H           -4.23888344854974        5.18290378626720        0.79789950074279
H           -0.61677266339400        2.78995270783704        2.73725465647337
72
 energy: -5.447729377769 xtb: 6.6.1 (8d0f1dd)
N           -1.52156737716619        2.81395669074707        2.24868008048164
C           -1.56252176479884        2.16186240315063        1.17540828472796
C           -2.74799668257610        2.06630973230309        0.25625933677323
C           -3.31540502968313        0.65508135118694        0.33447547556620
C           -4.29358562874682        0.24816162109894       -0.57453169890072
C           -4.83969317436325       -1.02006414402906       -0.52871602046201
O           -5.80124795476761       -1.49225425685739       -1.37126448423146
C           -6.36996113726858       -0.61414300158988       -2.30807417888646
C           -4.39978423203078       -1.93514381308814        0.45355350496550
O           -4.99465768061454       -3.16119719143548        0.42095864133817
C           -4.67282121110736       -4.08981986057143        1.42372449792916
C           -3.43440829935950       -1.53064906311429        1.35518983072662
C           -2.89935708883726       -0.24841955635372        1.29524710611832
C           -2.18892995061376        2.31396095672037       -1.16966305818432
C           -1.27029816303624        1.18773150762273       -1.67603435840825
C            0.00174206526415        1.12348258779971       -0.91315785749876
N            0.62145003566137       -0.06329395169195       -0.57464838052309
C            1.99130372375906       -0.05883876454424       -0.16929341447882
C            2.93445785341299       -0.57724776848672       -1.27934103572711
C            4.36509347970103       -0.43669284687602       -0.84935450414817
C            5.09443584148376        0.73194280444036       -1.03034491895311
C            6.40003477949223        0.82574841254139       -0.58127673733516
C            7.01322901761997       -0.22923491975656        0.06070759895496
O            8.29387187759808       -0.21921211684802        0.52347989579004
C            9.05546331419285        0.94033905772836        0.30807133890745
C            6.28404506687872       -1.42076877603227        0.26480344401643
O            6.97894260816089       -2.40054941363544        0.90913543679468
C            6.36157467104336       -3.63857334988612        1.13850314193214
C            4.97793972913449       -1.50559764670198       -0.18246976436929
C           -0.07661285761378       -1.31590436903048       -0.64205884207423
C           -3.88145461483317        3.07808375491001        0.58109563484492
C           -4.52021185793953        2.77912811257829        1.93614207069979
C           -3.41674663529439        4.53268103246881        0.54484501782921
H           -4.63675770501995        0.94268692395931       -1.32355332229931
H           -6.82528167156879        0.25642187886635       -1.82361918382025
H           -7.14476539799639       -1.19074797504987       -2.81123809035712
H           -5.63597610950040       -0.27640531915019       -3.04802325212619
H           -4.90299223865562       -3.70284246927914        2.42217750621041
H           -5.29573378220211       -4.96024030093158        1.22288652279301
H           -3.61821195997554       -4.38414976661201        1.38284796992955
H           -3.09035082633997       -2.20193998924452        2.12642446165919
H           -2.16651512678029        0.04090500146673        2.03294866068912
H           -3.01984196184347        2.42655324017047       -1.86764520822828
H           -1.62720051792144        3.24948025432595       -1.17088846084080
H           -1.81496434729733        0.24577856075498       -1.63399041495719
H           -1.03706171720093        1.39229558085892       -2.73125774836787
H           -0.69423984307350        1.64538436729900        0.70646987844663
H            0.65118069442347        1.98151991054565       -0.96381553152101
H            2.09893699575665       -0.68460810728188        0.72488492791006
H            2.29181277731917        0.95984663683845        0.08766631075237
H            2.74761576111356       -0.00023916647495       -2.18522896299744
H            2.68241709672198       -1.62291307279649       -1.48329408745939
H            4.74348028585507        1.63325880050172       -1.51760630597536
H            6.90622462822549        1.75910498598140       -0.75773370718922
H            8.62496330114351        1.81355303732766        0.81112185872160
H            9.16816207505774        1.16006420388682       -0.75959318726444
H           10.03095975228377        0.72497570581259        0.73574651517628
H            7.11340870939346       -4.24584331625662        1.64048066798502
H            5.48555231059795       -3.54117625808341        1.78849500499448
H            6.07032346589495       -4.12565374573504        0.20174379346682
H            4.42067704702567       -2.42049287340690       -0.02860624642273
H           -0.25116003831315       -1.63182638188574       -1.67720784027466
H           -1.04421644644267       -1.24670905029082       -0.13492456723264
H            0.52214607117357       -2.07596646028515       -0.14439613031257
H           -4.65012524832312        2.95196063174700       -0.19066812505594
H           -3.78987635257946        2.91507048401215        2.72603694939441
H           -4.89343895954364        1.75839649917946        1.97286459754022
H           -5.35325203092581        3.45721880468076        2.10814234786818
H           -2.63358245426521        4.69563915318540        1.27809500870122
H           -3.05065354715322        4.81510291314056       -0.43901592279503
H           -4.25393387489595        5.18337418171336        0.78877487770258
H           -0.63696801530634        2.81206546522266        2.75222902324793
72
 energy: -4.325771792942 xtb: 6.6.1 (8d0f1dd)
N           -1.53760134133994        2.83753747502251        2.25321983934410
C           -1.56874732651586        2.16875427618769        1.18966601283467
C           -2.74872405684594        2.06991760131743        0.26233803614141
C           -3.31536765968323        0.65881441704466        0.33919040951878
C           -4.28838829775070        0.24918840242252       -0.57395323591909
C           -4.83516948472521       -1.01886477676122       -0.52761564539525
O           -5.79241813623852       -1.49325987312339       -1.37436264698167
C           -6.35732522611367       -0.61620853714545       -2.31425012884495
C           -4.40077764149856       -1.93140823454298        0.45914511473168
O           -4.99577079076529       -3.15796474664275        0.42645092706055
C           -4.67700633638098       -4.08467652558803        1.43174818545917
C           -3.44070873813367       -1.52426572083420        1.36536211194749
C           -2.90579281602562       -0.24208413190935        1.30510036158324
C           -2.18583064001357        2.32088408855815       -1.16189628528916
C           -1.27516418249421        1.19233081356609       -1.68103279296587
C            0.00057381646483        1.11912381997826       -0.92621968334955
N            0.61429293441749       -0.07283437318793       -0.58384720909379
C            1.98459323186975       -0.07225232219700       -0.17623796856403
C            2.93413151347323       -0.59539228964981       -1.28027264294606
C            4.36778112853191       -0.43699083667612       -0.85571818549968
C            5.10378006755882        0.73472460821199       -1.02361708518170
C            6.40745637689451        0.81761386545569       -0.57009722180686
C            7.02224922509010       -0.23879649498558        0.06362431818116
O            8.30363590239426       -0.22248577788276        0.52301799259665
C            9.04935945907634        0.94649887505374        0.30297410032641
C            6.29199313788092       -1.42995247239726        0.25756509045125
O            6.99185099470836       -2.40917151354285        0.89846069869798
C            6.38441522932102       -3.65055045151948        1.13179974497225
C            4.98557632453814       -1.50987179974004       -0.19345322577229
C           -0.09027074424866       -1.32210828576030       -0.65445611725620
C           -3.88781243801745        3.07836732051780        0.57990546567821
C           -4.53208773972717        2.78058450306122        1.93269342310362
C           -3.42805671427897        4.53453117743681        0.54300747303778
H           -4.62576754538669        0.94120070882569       -1.32790799180932
H           -6.81323366040531        0.25567606340851       -1.83263407830807
H           -7.13107246982792       -1.19270651278554       -2.81922966928993
H           -5.62057896051439       -0.28009168222316       -3.05220277957015
H           -4.91250162124858       -3.69692180048115        2.42872016669102
H           -5.29731265122537       -4.95664230366126        1.22923991029379
H           -3.62164475247193       -4.37725693994820        1.39645605312240
H           -3.10057053992112       -2.19347265384852        2.14019246908936
H           -2.17668768975715        0.04952692513629        2.04556894857323
H           -3.01713063383689        2.44721636206359       -1.85775133445046
H           -1.61551912279604        3.25120934114902       -1.15522042672584
H           -1.82331786481931        0.25236120355241       -1.64008221405646
H           -1.05324395874181        1.40089419679134       -2.73874707874198
H           -0.69950704262150        1.64157627236996        0.74113684795159
H            0.65452531036853        1.97455448433099       -0.97548841913084
H            2.08754990686742       -0.69440694598972        0.72167758326776
H            2.28631394661180        0.94709672854465        0.07563552260095
H            2.73818357295824       -0.03392498084948       -2.19360747405600
H            2.68711749272959       -1.64700188605837       -1.46954673586939
H            4.80633227651598        1.66745030533320       -1.49499751788981
H            6.90520543992830        1.75691560718125       -0.73922099081018
H            8.61231879532096        1.81521100722949        0.80859670103603
H            9.15181836762613        1.16889957549971       -0.76544363320844
H           10.02938209590152        0.74231724778294        0.72353934228003
H            7.14253524076242       -4.25006946184077        1.63391538275016
H            5.50937568860796       -3.55849038308362        1.78366097622591
H            6.09563993994009       -4.14213544546699        0.19678198733252
H            4.43246144245247       -2.42913316033296       -0.04172259134399
H           -0.26777037102310       -1.63579303617232       -1.69004568454802
H           -1.05745164480110       -1.24948742845989       -0.14686249656782
H            0.50345287835668       -2.08750203823421       -0.15846663407532
H           -4.65293170498942        2.94851978648743       -0.19498781091920
H           -3.80489393626600        2.92068491327023        2.72451960332472
H           -4.90239904962732        1.75876901854597        1.97037182390966
H           -5.36784123322736        3.45671933889063        2.10009395892877
H           -2.64995292310152        4.69992956904060        1.28078884724565
H           -3.05636045667861        4.81505552030830       -0.43924653208929
H           -4.26856723911783        5.18361959920217        0.78028627291287
H           -0.65858077149979        2.83546090639112        2.76491059633775
72
 energy: -2.604276241516 xtb: 6.6.1 (8d0f1dd)
N           -1.55332352381652        2.86092486275900        2.25764242105821
C           -1.57514043368775        2.17634233405473        1.20375512752152
C           -2.74954397420808        2.07361613361180        0.26879093336377
C           -3.31497883186030        0.66240092253462        0.34440696192162
C           -4.28262688759082        0.25034730525469       -0.57330888163317
C           -4.83019655439688       -1.01743162932071       -0.52648344645511
O           -5.78314474109805       -1.49378965332561       -1.37735377316517
C           -6.34417261410516       -0.61817103876125       -2.32081385771735
C           -4.40144139378503       -1.92760844673164        0.46474890799872
O           -4.99653045800367       -3.15440365211243        0.43165513307987
C           -4.68157591523444       -4.07937156449685        1.43964051152733
C           -3.44667128497892       -1.51817243934706        1.37562486833955
C           -2.91186773870298       -0.23597792265826        1.31537599777368
C           -2.18265659131083        2.32806157255020       -1.15356798584206
C           -1.28074001434252        1.19712183780989       -1.68536099850743
C           -0.00048091230096        1.11356020147204       -0.94028857249496
N            0.60707592824565       -0.08215009898364       -0.59401637233957
C            1.97732010958069       -0.08549298492942       -0.18313160713115
C            2.93396383480716       -0.61321877082840       -1.28044214930897
C            4.37089720523330       -0.43482009246376       -0.86083965684627
C            5.11352802340357        0.74001384368096       -1.01621167104155
C            6.41635335583265        0.81010169008865       -0.55855852759656
C            7.03228996235155       -0.24814359738248        0.06655139796145
O            8.31460417478196       -0.22588585147538        0.52206441575145
C            9.04432619029231        0.95263428650213        0.29796866567093
C            6.30066846601160       -1.43841389540360        0.25058938307997
O            7.00447933390838       -2.41832231757369        0.88676358173673
C            6.40640115378969       -3.66278222389523        1.12387682316769
C            4.99386708426449       -1.51132426809558       -0.20385596007711
C           -0.10363845528737       -1.32796925149020       -0.66654615040513
C           -3.89411376151551        3.07877515006082        0.57911474532435
C           -4.54475562072681        2.78235534145670        1.92924150790377
C           -3.43960298522521        4.53656636710532        0.54092078622203
H           -4.61452686907698        0.94017514114267       -1.33168427823709
H           -6.80125059263092        0.25492612663157       -1.84247623906860
H           -7.11648991020399       -1.19493465481587       -2.82774419584837
H           -5.60457960046931       -0.28369252542703       -3.05666415982307
H           -4.92279003994704       -3.69082901009082        2.43497688187626
H           -5.29933994948633       -4.95274075077016        1.23518600153855
H           -3.62555033329162       -4.37032473899225        1.41036197144303
H           -3.11065423574757       -2.18549786346174        2.15391898313879
H           -2.18704365688043        0.05779980282684        2.05918473411136
H           -3.01370910612249        2.46821771264859       -1.84756232622506
H           -1.60383772034282        3.25312270865079       -1.13890785117232
H           -1.83184405398962        0.25898798908462       -1.64462671334579
H           -1.07035452993231        1.40977254699366       -2.74523075573515
H           -0.70523902177321        1.63752528500121        0.77646605101724
H            0.65852100853782        1.96595026393816       -0.98705288898793
H            2.07509132706983       -0.70449289534390        0.71811972731850
H            2.28104416278823        0.93406791994808        0.06409440325458
H            2.72830146535820       -0.06943357780227       -2.20213967463731
H            2.69190395355549       -1.67055096317390       -1.45329470683518
H            4.86893625780735        1.70055661486908       -1.47241300052421
H            6.91310016119491        1.75160250283194       -0.71802595636088
H            8.60033714283703        1.81630169130806        0.80662442809160
H            9.13591690918207        1.17822811346272       -0.77105149442650
H           10.02928774995252        0.76010358944361        0.71107090479401
H            7.17099066067500       -4.25461494847232        1.62574129814131
H            5.53259080591446       -3.57571894498927        1.77790560394995
H            6.11982587337876       -4.15847906508988        0.19050159283797
H            4.44392441639852       -2.43423280701279       -0.05600677443695
H           -0.28257519674187       -1.64029449263258       -1.70252171370520
H           -1.07090045221849       -1.25140316322950       -0.15953614100999
H            0.48503248200711       -2.09753530318361       -0.17070129380506
H           -4.65506709816551        2.94450099817708       -0.19932235643741
H           -3.82167390559415        2.92692306934219        2.72392940127474
H           -4.91206089305787        1.75946635610074        1.96777977018003
H           -5.38353956919084        3.45632385441430        2.09081246264231
H           -2.66685741540139        4.70563400749621        1.28335489680021
H           -3.06214723102914        4.81508668938835       -0.43967743014852
H           -4.28388673798911        5.18354009172936        0.77073350241232
H           -0.67920323770747        2.85939147027343        2.77696219317644
72
 energy: -0.277858849300 xtb: 6.6.1 (8d0f1dd)
N           -1.56983160084203        2.88361163066083        2.26290761026005
C           -1.58216985180862        2.18535845536094        1.21760318698006
C           -2.75075299289453        2.07757294902592        0.27526801075020
C           -3.31478713448745        0.66605134513641        0.34967267088612
C           -4.27682909538119        0.25148323822245       -0.57288614752154
C           -4.82517614582130       -1.01600144999141       -0.52548256778224
O           -5.77394693876364       -1.49424996318140       -1.38023719260594
C           -6.33117475849267       -0.62013341863448       -2.32730496030492
C           -4.40229565215859       -1.92369600784257        0.47048623515082
O           -4.99712448320924       -3.15075576556990        0.43686334557546
C           -4.68605451539267       -4.07408238008552        1.44750562992493
C           -3.45282807525938       -1.51192833267922        1.38596958605428
C           -2.91804753640720       -0.22972421853837        1.32566135504692
C           -2.17952862573601        2.33523251683617       -1.14507414577646
C           -1.28676560157619        1.20185010019335       -1.68882028270546
C           -0.00174507671021        1.10746101665247       -0.95381477236179
N            0.60025877249963       -0.09162204990253       -0.60638302066582
C            1.97045521658183       -0.09822512835793       -0.19063891007934
C            2.93638967372405       -0.62937487379498       -1.28001969004776
C            4.37672049789231       -0.42896748751886       -0.86459902018742