72
 energy: -99.340308259199 gnorm: 0.003023403145 xtb: 6.6.1 (8d0f1dd)
N           -2.67106561341919        3.00400122311700        2.67132367071806
C           -2.42579752937058        2.08134860297097        1.86490469162868
C           -3.21885120721126        1.83833068723791        0.60706561165470
C           -3.86469364118562        0.46359536927937        0.66796434330656
C           -4.46301553064442       -0.07185717129499       -0.47316592419686
C           -5.05799829893645       -1.32312994468114       -0.45956931609520
O           -5.66538688953712       -1.90826683513994       -1.51194295525898
C           -5.83612156175498       -1.17789224201370       -2.70312651012674
C           -5.04537493423606       -2.09064727722986        0.73699907221314
O           -5.61278912388865       -3.30870657408666        0.65021964397987
C           -5.67391522066030       -4.12212797369320        1.79822665953990
C           -4.47024347665007       -1.54098340110115        1.87332200637926
C           -3.89531622650594       -0.27953187659300        1.83947319159823
C           -2.16123088546884        1.86577622430806       -0.54272787125375
C           -1.29253056319894        0.65739325682258       -0.53993778037342
C            0.02923111440857        0.69422621992083       -0.30373924864135
N            0.88221876454428       -0.38950610835106       -0.24738696435896
C            2.28146311744395       -0.13456542129244        0.03707735674790
C            3.10591677613224       -0.03052760419661       -1.25849346921568
C            4.56783251320380        0.12567098368299       -0.94351199377021
C            5.20074914483216        1.35162956919988       -1.06800248208876
C            6.55038070275563        1.48742606418445       -0.78003967486137
C            7.29458431741348        0.39877662927186       -0.34804251098655
O            8.60577591274663        0.40999076136811       -0.05139576779387
C            9.33953326919754        1.60178236372906       -0.21520756306588
C            6.64870427597086       -0.86124668646161       -0.19732419277406
O            7.43981196378210       -1.86016533832774        0.23936032350004
C            6.89639889407750       -3.14607363526569        0.41835734451069
C            5.30160999378421       -0.97401468557591       -0.50171393297462
C            0.51570877505832       -1.63962621674533       -0.48831738208961
C           -4.32878287607072        2.89467273165349        0.35007107169308
C           -5.39368530540149        2.85301290833080        1.44354397329571
C           -3.79224576883113        4.31590167342762        0.20355084264799
H           -4.46800390473497        0.49893891306608       -1.38723553722822
H           -6.38816304415775       -0.24925476299844       -2.52761596556804
H           -6.41698912836116       -1.82214639534984       -3.36071970681155
H           -4.87633687944242       -0.94993936556025       -3.17858320895243
H           -6.24814219720716       -3.64539045587116        2.59794730945366
H           -6.18023278886772       -5.03286231436447        1.48390667258491
H           -4.67374945350294       -4.37222643443883        2.16620811210896
H           -4.47150109116538       -2.08912000284683        2.80128507294057
H           -3.48058187162102        0.12415052211127        2.74948451906043
H           -2.69626823693670        1.92050822393306       -1.49316357212672
H           -1.55430427280287        2.76576990776622       -0.44145735282910
H           -0.84606110808890       -0.01377295846212       -3.55812595573393
H           -1.79865174127960       -0.27914382760972       -0.71410380855519
H           -1.58354621591849        1.37947534526646        1.97260496835836
H            0.51725756386238        1.64218758321057       -0.12413698797481
H            2.67242278977246       -0.95130632675239        0.64781894033447
H            2.37695427299536        0.79281513179497        0.60495814601136
H            2.75687774919274        0.82194641310623       -1.84260980483563
H            2.94724842597523       -0.93600361885618       -1.84835376883738
H            4.64738650671307        2.21414271575286       -1.40603211393918
H            7.01670778764089        2.45151650495799       -0.89934068526129
H            8.97325945585776        2.39295988234913        0.44684363881168
H            9.31066925541785        1.94947652454793       -1.25273271103339
H           10.36548827696742        1.35356025601933        0.05350673504284
H            7.71915150428789       -3.76403350867000        0.77284973172053
H            6.09831016073623       -3.14347897521640        1.16778692172440
H            6.51581448052683       -3.55634392508973       -0.52220534224508
H            4.81058600450129       -1.93066227854862       -0.41346761634161
H           -0.81984660400779       -0.68658496293135       -3.94666491050840
H           -0.48814732363983       -1.87834758070958       -0.77053424897493
H            1.24482769256440       -2.42072777041664       -0.40260607177970
H           -4.80877999288616        2.61690549662212       -0.59590212934387
H           -4.96574893368418        3.16784268576923        2.39021848779857
H           -5.80172733454989        1.85125571913764        1.55651819969813
H           -6.20676339730946        3.52786009187625        1.18885378136579
H           -3.26840642411749        4.61483315026548        1.10618718196275
H           -3.12480944330098        4.41148312014598       -0.64885487205261
H           -4.62573745945979        4.99683711323331        0.05198347769370
H           -2.06482236536875        3.10635340982434        3.47893505334038
