      -----------------------------------------------------------      
     |                   =====================                   |     
     |                           x T B                           |     
     |                   =====================                   |     
     |                         S. Grimme                         |     
     |          Mulliken Center for Theoretical Chemistry        |     
     |                    University of Bonn                     |     
      -----------------------------------------------------------      

   * xtb version 6.6.1 (8d0f1dd) compiled by 'conda@1efc2f54142f' on 2023-08-01

   xtb is free software: you can redistribute it and/or modify it under
   the terms of the GNU Lesser General Public License as published by
   the Free Software Foundation, either version 3 of the License, or
   (at your option) any later version.
   
   xtb is distributed in the hope that it will be useful,
   but WITHOUT ANY WARRANTY; without even the implied warranty of
   MERCHANTABILITY or FITNESS FOR A PARTICULAR PURPOSE.  See the
   GNU Lesser General Public License for more details.
   
   Cite this work as:
   * C. Bannwarth, E. Caldeweyher, S. Ehlert, A. Hansen, P. Pracht,
     J. Seibert, S. Spicher, S. Grimme, WIREs Comput. Mol. Sci., 2020, 11,
     e01493. DOI: 10.1002/wcms.1493
   
   for GFN2-xTB:
   * C. Bannwarth, S. Ehlert and S. Grimme., J. Chem. Theory Comput., 2019,
     15, 1652-1671. DOI: 10.1021/acs.jctc.8b01176
   for GFN1-xTB:
   * S. Grimme, C. Bannwarth, P. Shushkov, J. Chem. Theory Comput., 2017,
     13, 1989-2009. DOI: 10.1021/acs.jctc.7b00118
   for GFN0-xTB:
   * P. Pracht, E. Caldeweyher, S. Ehlert, S. Grimme, ChemRxiv, 2019, preprint.
     DOI: 10.26434/chemrxiv.8326202.v1
   for GFN-FF:
   * S. Spicher and S. Grimme, Angew. Chem. Int. Ed., 2020, 59, 15665-15673.
     DOI: 10.1002/anie.202004239
   
   for ALPB and GBSA implicit solvation:
   * S. Ehlert, M. Stahn, S. Spicher, S. Grimme, J. Chem. Theory Comput.,
     2021, 17, 4250-4261. DOI: 10.1021/acs.jctc.1c00471
   
   for DFT-D4:
   * E. Caldeweyher, C. Bannwarth and S. Grimme, J. Chem. Phys., 2017,
     147, 034112. DOI: 10.1063/1.4993215
   * E. Caldeweyher, S. Ehlert, A. Hansen, H. Neugebauer, S. Spicher,
     C. Bannwarth and S. Grimme, J. Chem. Phys., 2019, 150, 154122.
     DOI: 10.1063/1.5090222
   * E. Caldeweyher, J.-M. Mewes, S. Ehlert and S. Grimme, Phys. Chem. Chem. Phys.
     2020, 22, 8499-8512. DOI: 10.1039/D0CP00502A
   
   for sTDA-xTB:
   * S. Grimme and C. Bannwarth, J. Chem. Phys., 2016, 145, 054103.
     DOI: 10.1063/1.4959605
   
   in the mass-spec context:
   * V. Asgeirsson, C. Bauer and S. Grimme, Chem. Sci., 2017, 8, 4879.
     DOI: 10.1039/c7sc00601b
   * J. Koopman and S. Grimme, ACS Omega 2019, 4, 12, 15120-15133.
     DOI: 10.1021/acsomega.9b02011
   
   for metadynamics refer to:
   * S. Grimme, J. Chem. Theory Comput., 2019, 155, 2847-2862
     DOI: 10.1021/acs.jctc.9b00143
   
   for SPH calculations refer to:
   * S. Spicher and S. Grimme, J. Chem. Theory Comput., 2021, 17, 1701-1714
     DOI: 10.1021/acs.jctc.0c01306
   
   with help from (in alphabetical order)
   P. Atkinson, C. Bannwarth, F. Bohle, G. Brandenburg, E. Caldeweyher
   M. Checinski, S. Dohm, S. Ehlert, S. Ehrlich, I. Gerasimov, C. Hölzer
   A. Katbashev, J. Koopman, C. Lavigne, S. Lehtola, F. März, M. Müller,
   F. Musil, H. Neugebauer, J. Pisarek, C. Plett, P. Pracht, F. Pultar,
   J. Seibert, P. Shushkov, S. Spicher, M. Stahn, M. Steiner, T. Strunk,
   J. Stückrath, T. Rose, and J. Unsleber
   
 * started run on 2024/06/05 at 19:58:48.627     

           -------------------------------------------------
          |                Calculation Setup                |
           -------------------------------------------------

          program call               : xtb struc.xyz --opt loose --input .xc1 --gfn2
          hostname                   : n-62-29-9
          coordinate file            : struc.xyz
          omp threads                :                     1

   ID    Z sym.   atoms
    1    6 C      1, 3, 5-7, 10, 11, 14
    2    7 N      2, 4, 9, 13
    3    8 O      8, 12
    4    1 H      15-25
constraining bond 7 10 to    5.0000000 Å, actual value:    2.4325910 Å

           -------------------------------------------------
          |                 G F N 2 - x T B                 |
           -------------------------------------------------

        Reference                      10.1021/acs.jctc.8b01176
      * Hamiltonian:
        H0-scaling (s, p, d)           1.850000    2.230000    2.230000
        zeta-weighting                 0.500000
      * Dispersion:
        s8                             2.700000
        a1                             0.520000
        a2                             5.000000
        s9                             5.000000
      * Repulsion:
        kExp                           1.500000    1.000000
        rExp                           1.000000
      * Coulomb:
        alpha                          2.000000
        third order                    shell-resolved
        anisotropic                    true
        a3                             3.000000
        a5                             4.000000
        cn-shift                       1.200000
        cn-exp                         4.000000
        max-rad                        5.000000


          ...................................................
          :                      SETUP                      :
          :.................................................:
          :  # basis functions                  67          :
          :  # atomic orbitals                  67          :
          :  # shells                           39          :
          :  # electrons                        74          :
          :  max. iterations                   250          :
          :  Hamiltonian                  GFN2-xTB          :
          :  restarted?                      false          :
          :  GBSA solvation                  false          :
          :  PC potential                    false          :
          :  electronic temp.         7500.0000000     K    :
          :  accuracy                    1.0000000          :
          :  -> integral cutoff          0.2500000E+02      :
          :  -> integral neglect         0.1000000E-07      :
          :  -> SCF convergence          0.1000000E-05 Eh   :
          :  -> wf. convergence          0.1000000E-03 e    :
          :  Broyden damping             0.4000000          :
          ...................................................

 iter      E             dE          RMSdq      gap      omega  full diag
   1    -42.5960780 -0.425961E+02  0.440E+00    3.52       0.0  T
   2    -42.7780033 -0.181925E+00  0.248E+00    3.37       1.0  T
   3    -42.7871777 -0.917437E-02  0.149E+00    3.50       1.0  T
   4    -42.7817164  0.546128E-02  0.642E-01    3.42       1.0  T
   5    -42.7911189 -0.940247E-02  0.115E-01    3.49       1.0  T
   6    -42.7912109 -0.920486E-04  0.685E-02    3.46       1.0  T
   7    -42.7912647 -0.537856E-04  0.265E-02    3.48       1.0  T
   8    -42.7912686 -0.385526E-05  0.113E-02    3.47       1.8  T
   9    -42.7912697 -0.111307E-05  0.441E-03    3.47       4.5  T
  10    -42.7912698 -0.733569E-07  0.139E-03    3.47      14.4  T
  11    -42.7912698 -0.243437E-08  0.602E-04    3.47      33.2  T
  12    -42.7912698 -0.222032E-08  0.181E-04    3.47     110.6  T

   *** convergence criteria satisfied after 12 iterations ***

         #    Occupation            Energy/Eh            Energy/eV
      -------------------------------------------------------------
         1        2.0000           -0.9116047             -24.8060
       ...           ...                  ...                  ...
        31        1.9942           -0.6212459             -16.9050
        32        1.9930           -0.6166804             -16.7807
        33        1.9876           -0.6031136             -16.4116
        34        1.9710           -0.5827317             -15.8569
        35        1.9403           -0.5651917             -15.3796
        36        1.9387           -0.5645672             -15.3627
        37        1.9155           -0.5566412             -15.1470 (HOMO)
        38        0.1907           -0.4290919             -11.6762 (LUMO)
        39        0.0640           -0.4015676             -10.9272
        40        0.0206           -0.3740689             -10.1789
        41        0.0006           -0.2879107              -7.8344
        42        0.0000           -0.2065811              -5.6214
       ...           ...                  ...                  ...
        67                          0.5613577              15.2753
      -------------------------------------------------------------
                  HL-Gap            0.1275493 Eh            3.4708 eV
             Fermi-level           -0.4825284 Eh          -13.1303 eV

 SCC (total)                   0 d,  0 h,  0 min,  0.036 sec
 SCC setup                      ...        0 min,  0.000 sec (  0.705%)
 Dispersion                     ...        0 min,  0.000 sec (  0.928%)
 classical contributions        ...        0 min,  0.000 sec (  0.239%)
 integral evaluation            ...        0 min,  0.006 sec ( 15.655%)
 iterations                     ...        0 min,  0.018 sec ( 49.949%)
 molecular gradient             ...        0 min,  0.012 sec ( 32.066%)
 printout                       ...        0 min,  0.000 sec (  0.423%)

         :::::::::::::::::::::::::::::::::::::::::::::::::::::
         ::                     SUMMARY                     ::
         :::::::::::::::::::::::::::::::::::::::::::::::::::::
         :: total energy             -30.490556570438 Eh    ::
         :: gradient norm              6.867463336436 Eh/a0 ::
         :: HOMO-LUMO gap              3.470793873671 eV    ::
         ::.................................................::
         :: SCC energy               -42.791269777655 Eh    ::
         :: -> isotropic ES            0.136760385929 Eh    ::
         :: -> anisotropic ES         -0.005341405309 Eh    ::
         :: -> anisotropic XC          0.011501049227 Eh    ::
         :: -> dispersion             -0.022650340738 Eh    ::
         :: repulsion energy           0.531105277918 Eh    ::
         :: add. restraining          11.769493770290 Eh    ::
         :: total charge               1.000000000010 e     ::
         :::::::::::::::::::::::::::::::::::::::::::::::::::::

      ----------------------------------------------------------- 
     |                   =====================                   |
     |                        A N C O P T                        |
     |                   =====================                   |
     |               Approximate Normal Coordinate               |
     |                Rational Function Optimizer                |
      ----------------------------------------------------------- 

          ...................................................
          :                      SETUP                      :
          :.................................................:
          :   optimization level             loose          :
          :   max. optcycles                   200          :
          :   ANC micro-cycles                  20          :
          :   degrees of freedom                69          :
          :.................................................:
          :   RF solver                   davidson          :
          :   write xtbopt.log                true          :
          :   linear?                        false          :
          :   energy convergence         0.5000000E-04 Eh   :
          :   grad. convergence          0.4000000E-02 Eh/α :
          :   maxmium RF displ.          1.0000000          :
          :   Hlow (freq-cutoff)         0.1000000E-01      :
          :   Hmax (freq-cutoff)         5.0000000          :
          :   S6 in model hess.         20.0000000          :
          ...................................................

generating ANC from model Hessian ...
Using Lindh-Hessian (1995)
 Shifting diagonal of input Hessian by    1.6960399102351278     
 Lowest  eigenvalues of input Hessian
    0.010000    0.476972    0.000000    0.000000    0.000000    0.000000
    0.000000    0.000000    1.698866    1.701624    1.705584    1.706384
    1.707166    1.709253    1.713560    1.714597    1.720803    1.729736
 Highest eigenvalues
    3.820852    3.907978    3.951691    4.001926    4.201866    4.851333


........................................................................
.............................. CYCLE    1 ..............................
........................................................................

 iter      E             dE          RMSdq      gap      omega  full diag
   1    -42.7912698 -0.427913E+02  0.838E-05    3.47       0.0  T
   2    -42.7912698 -0.247127E-10  0.452E-05    3.47     442.9  T
   3    -42.7912698 -0.149214E-11  0.279E-05    3.47     715.8  T
     SCC iter.                  ...        0 min,  0.006 sec
     gradient                   ...        0 min,  0.011 sec
 * total energy  :   -30.4905566 Eh     change       -0.2401990E-09 Eh
   gradient norm :     6.8674639 Eh/α   predicted     0.0000000E+00 (-100.00%)
   displ. norm   :     0.7170088 α      lambda       -0.4913435E+01
   maximum displ.:     0.6727846 α      in ANC's #69, #61, #68, ...

........................................................................
.............................. CYCLE    2 ..............................
........................................................................

 iter      E             dE          RMSdq      gap      omega  full diag
   1    -42.7339009 -0.427339E+02  0.118E+00    3.05       0.0  T
   2    -42.7446367 -0.107358E-01  0.808E-01    2.72       1.0  T
   3    -42.7503460 -0.570926E-02  0.408E-01    3.02       1.0  T
   4    -42.7498277  0.518230E-03  0.202E-01    2.89       1.0  T
   5    -42.7508454 -0.101763E-02  0.338E-02    2.97       1.0  T
   6    -42.7508610 -0.155989E-04  0.115E-02    2.97       1.7  T
   7    -42.7508608  0.121066E-06  0.509E-03    2.97       3.9  T
   8    -42.7508613 -0.467843E-06  0.124E-03    2.97      16.1  T
   9    -42.7508613 -0.110668E-07  0.658E-04    2.97      30.4  T
  10    -42.7508613 -0.392411E-08  0.267E-04    2.97      74.8  T
     SCC iter.                  ...        0 min,  0.014 sec
     gradient                   ...        0 min,  0.011 sec
 * total energy  :   -34.7904066 Eh     change       -0.4299850E+01 Eh
   gradient norm :     5.1662678 Eh/α   predicted    -0.3719730E+01 ( -13.49%)
   displ. norm   :     0.8000274 α      lambda       -0.4124953E+01
   maximum displ.:     0.7472465 α      in ANC's #69, #61, #68, ...

........................................................................
.............................. CYCLE    3 ..............................
........................................................................

 iter      E             dE          RMSdq      gap      omega  full diag
   1    -42.5972232 -0.425972E+02  0.146E+00    2.18       0.0  T
   2    -42.5833840  0.138392E-01  0.130E+00    1.69       1.0  T
   3    -42.6110760 -0.276920E-01  0.668E-01    2.14       1.0  T
   4    -42.6151220 -0.404592E-02  0.191E-01    1.98       1.0  T
   5    -42.6158818 -0.759893E-03  0.482E-02    2.04       1.0  T
   6    -42.6159104 -0.285457E-04  0.318E-02    2.02       1.0  T
   7    -42.6159244 -0.139944E-04  0.142E-02    2.04       1.4  T
   8    -42.6159284 -0.403617E-05  0.572E-03    2.03       3.5  T
   9    -42.6159292 -0.788353E-06  0.166E-03    2.03      12.1  T
  10    -42.6159292 -0.301759E-07  0.754E-04    2.03      26.5  T
  11    -42.6159293 -0.973909E-08  0.194E-04    2.03     103.0  T
     SCC iter.                  ...        0 min,  0.016 sec
     gradient                   ...        0 min,  0.011 sec
 * total energy  :   -38.2242504 Eh     change       -0.3433844E+01 Eh
   gradient norm :     3.4797730 Eh/α   predicted    -0.3382552E+01 (  -1.49%)
   displ. norm   :     0.7738277 α      lambda       -0.2669819E+01
   maximum displ.:     0.6710730 α      in ANC's #69, #61, #2, ...

........................................................................
.............................. CYCLE    4 ..............................
........................................................................

 iter      E             dE          RMSdq      gap      omega  full diag
   1    -42.4354105 -0.424354E+02  0.103E+00    1.69       0.0  T
   2    -42.4222740  0.131365E-01  0.102E+00    1.24       1.0  T
   3    -42.4375422 -0.152682E-01  0.508E-01    1.73       1.0  T
   4    -42.4381319 -0.589696E-03  0.387E-01    1.43       1.0  T
   5    -42.4405450 -0.241306E-02  0.254E-01    1.58       1.0  T
   6    -42.4431788 -0.263385E-02  0.785E-02    1.56       1.0  T
   7    -42.4432656 -0.867881E-04  0.411E-02    1.55       1.0  T
   8    -42.4433132 -0.475229E-04  0.137E-02    1.56       1.5  T
   9    -42.4433190 -0.580551E-05  0.491E-03    1.56       4.1  T
  10    -42.4433194 -0.437828E-06  0.149E-03    1.56      13.4  T
  11    -42.4433194 -0.196932E-07  0.553E-04    1.56      36.2  T
  12    -42.4433194 -0.569300E-08  0.197E-04    1.56     101.8  T
     SCC iter.                  ...        0 min,  0.017 sec
     gradient                   ...        0 min,  0.011 sec
 * total energy  :   -40.3900771 Eh     change       -0.2165827E+01 Eh
   gradient norm :     2.1377276 Eh/α   predicted    -0.2134276E+01 (  -1.46%)
   displ. norm   :     0.6953457 α      lambda       -0.1467370E+01
   maximum displ.:     0.5847605 α      in ANC's #69, #2, #61, ...

........................................................................
.............................. CYCLE    5 ..............................
........................................................................

 iter      E             dE          RMSdq      gap      omega  full diag
   1    -42.2814050 -0.422814E+02  0.103E+00    0.94       0.0  T
   2    -42.2618029  0.196021E-01  0.944E-01    1.02       1.0  T
   3    -42.2163931  0.454098E-01  0.131E+00    1.05       1.0  T
   4    -42.2630490 -0.466559E-01  0.645E-01    1.00       1.0  T
   5    -42.2813794 -0.183303E-01  0.299E-01    1.02       1.0  T
   6    -42.2849506 -0.357122E-02  0.115E-01    1.02       1.0  T
   7    -42.2851451 -0.194453E-03  0.679E-02    1.02       1.0  T
   8    -42.2852695 -0.124454E-03  0.263E-02    1.02       1.0  T
   9    -42.2852932 -0.237243E-04  0.621E-03    1.02       3.2  T
  10    -42.2852936 -0.363941E-06  0.324E-03    1.02       6.2  T
  11    -42.2852938 -0.178874E-06  0.110E-03    1.02      18.1  T
  12    -42.2852938 -0.273009E-07  0.309E-04    1.02      64.7  T
  13    -42.2852938 -0.128737E-08  0.146E-04    1.02     137.3  T
     SCC iter.                  ...        0 min,  0.018 sec
     gradient                   ...        0 min,  0.011 sec
 * total energy  :   -41.4392653 Eh     change       -0.1049188E+01 Eh
   gradient norm :     0.9096275 Eh/α   predicted    -0.1088433E+01 (   3.74%)
   displ. norm   :     0.4620906 α      lambda       -0.4042030E+00
   maximum displ.:     0.3477292 α      in ANC's #69, #2, #60, ...

........................................................................
.............................. CYCLE    6 ..............................
........................................................................

 iter      E             dE          RMSdq      gap      omega  full diag
   1    -42.2063395 -0.422063E+02  0.842E-01    0.50       0.0  T
   2    -42.1580963  0.482432E-01  0.114E+00    0.68       1.0  T
   3    -42.1718969 -0.138006E-01  0.100E+00    0.61       1.0  T
   4    -42.1922488 -0.203519E-01  0.621E-01    0.51       1.0  T
   5    -42.2080786 -0.158297E-01  0.294E-01    0.54       1.0  T
   6    -42.2119546 -0.387606E-02  0.920E-02    0.54       1.0  T
   7    -42.2120114 -0.567818E-04  0.689E-02    0.53       1.0  T
   8    -42.2120989 -0.874969E-04  0.364E-02    0.53       1.0  T
   9    -42.2121541 -0.551881E-04  0.109E-02    0.53       1.8  T
  10    -42.2121582 -0.410497E-05  0.367E-03    0.53       5.5  T
  11    -42.2121583 -0.131951E-06  0.188E-03    0.53      10.6  T
  12    -42.2121585 -0.142494E-06  0.521E-04    0.53      38.4  T
  13    -42.2121585 -0.651515E-08  0.164E-04    0.53     122.2  T
     SCC iter.                  ...        0 min,  0.018 sec
     gradient                   ...        0 min,  0.011 sec
 * total energy  :   -41.6855225 Eh     change       -0.2462572E+00 Eh
   gradient norm :     0.2823883 Eh/α   predicted    -0.2452559E+00 (  -0.41%)
   displ. norm   :     0.2450381 α      lambda       -0.5766735E-01
   maximum displ.:     0.1786578 α      in ANC's #2, #69, #48, ...

........................................................................
.............................. CYCLE    7 ..............................
........................................................................

 iter      E             dE          RMSdq      gap      omega  full diag
   1    -42.2159355 -0.422159E+02  0.519E-01    0.43       0.0  T
   2    -42.1953816  0.205539E-01  0.843E-01    0.40       1.0  T
   3    -42.2195841 -0.242025E-01  0.311E-01    0.41       1.0  T
   4    -42.2181765  0.140764E-02  0.347E-01    0.45       1.0  T
   5    -42.2225201 -0.434369E-02  0.164E-01    0.40       1.0  T
   6    -42.2232936 -0.773451E-03  0.698E-02    0.42       1.0  T
   7    -42.2234497 -0.156087E-03  0.162E-02    0.42       1.2  T
   8    -42.2234495  0.204188E-06  0.118E-02    0.41       1.7  T
   9    -42.2234527 -0.318847E-05  0.564E-03    0.41       3.5  T
  10    -42.2234535 -0.843420E-06  0.220E-03    0.41       9.1  T
  11    -42.2234536 -0.853586E-07  0.129E-03    0.41      15.5  T
  12    -42.2234536 -0.435262E-07  0.602E-04    0.41      33.2  T
  13    -42.2234537 -0.161318E-07  0.142E-04    0.41     140.8  T
     SCC iter.                  ...        0 min,  0.018 sec
     gradient                   ...        0 min,  0.011 sec
 * total energy  :   -41.7274337 Eh     change       -0.4191118E-01 Eh
   gradient norm :     0.2134936 Eh/α   predicted    -0.3057235E-01 ( -27.05%)
   displ. norm   :     0.2779608 α      lambda       -0.4270095E-01
   maximum displ.:     0.1959853 α      in ANC's #2, #48, #18, ...

........................................................................
.............................. CYCLE    8 ..............................
........................................................................

 iter      E             dE          RMSdq      gap      omega  full diag
   1    -42.2461449 -0.422461E+02  0.676E-01    0.41       0.0  T
   2    -42.1895837  0.565612E-01  0.120E+00    0.38       1.0  T
   3    -42.2395717 -0.499880E-01  0.645E-01    0.32       1.0  T
   4    -42.2564765 -0.169048E-01  0.390E-01    0.46       1.0  T
   5    -42.2610919 -0.461546E-02  0.140E-01    0.38       1.0  T
   6    -42.2610841  0.787164E-05  0.982E-02    0.38       1.0  T
   7    -42.2613590 -0.274925E-03  0.248E-02    0.38       1.0  T
   8    -42.2613700 -0.109846E-04  0.777E-03    0.38       2.6  T
   9    -42.2613706 -0.634386E-06  0.488E-03    0.38       4.1  T
  10    -42.2613714 -0.812057E-06  0.212E-03    0.38       9.4  T
  11    -42.2613716 -0.164643E-06  0.421E-04    0.38      47.5  T
  12    -42.2613716 -0.130981E-09  0.237E-04    0.38      84.4  T
     SCC iter.                  ...        0 min,  0.017 sec
     gradient                   ...        0 min,  0.011 sec
 * total energy  :   -41.7543040 Eh     change       -0.2687026E-01 Eh
   gradient norm :     0.1841363 Eh/α   predicted    -0.2300019E-01 ( -14.40%)
   displ. norm   :     0.1710838 α      lambda       -0.1883949E-01
   maximum displ.:     0.0699478 α      in ANC's #2, #18, #1, ...

........................................................................
.............................. CYCLE    9 ..............................
........................................................................

 iter      E             dE          RMSdq      gap      omega  full diag
   1    -42.2843386 -0.422843E+02  0.217E-01    0.39       0.0  T
   2    -42.2837609  0.577762E-03  0.184E-01    0.42       1.0  T
   3    -42.2802537  0.350714E-02  0.309E-01    0.33       1.0  T
   4    -42.2843989 -0.414518E-02  0.886E-02    0.41       1.0  T
   5    -42.2846099 -0.211002E-03  0.499E-02    0.38       1.0  T
   6    -42.2846693 -0.594147E-04  0.274E-02    0.39       1.0  T
   7    -42.2847003 -0.309565E-04  0.147E-02    0.39       1.4  T
   8    -42.2847050 -0.470659E-05  0.718E-03    0.39       2.8  T
   9    -42.2847058 -0.850772E-06  0.340E-03    0.39       5.9  T
  10    -42.2847061 -0.316419E-06  0.166E-03    0.39      12.1  T
  11    -42.2847062 -0.833097E-07  0.458E-04    0.39      43.7  T
  12    -42.2847062 -0.618292E-08  0.166E-04    0.39     120.3  T
     SCC iter.                  ...        0 min,  0.017 sec
     gradient                   ...        0 min,  0.011 sec
 * total energy  :   -41.7703452 Eh     change       -0.1604120E-01 Eh
   gradient norm :     0.1748586 Eh/α   predicted    -0.9695530E-02 ( -39.56%)
   displ. norm   :     0.4266668 α      lambda       -0.4924640E-01
   maximum displ.:     0.1961688 α      in ANC's #18, #48, #24, ...

........................................................................
.............................. CYCLE   10 ..............................
........................................................................

 iter      E             dE          RMSdq      gap      omega  full diag
   1    -42.3221799 -0.423222E+02  0.528E-01    0.40       0.0  T
   2    -42.3096035  0.125764E-01  0.717E-01    0.47       1.0  T
   3    -42.3252526 -0.156491E-01  0.293E-01    0.48       1.0  T
   4    -42.2930081  0.322445E-01  0.865E-01    0.28       1.0  T
   5    -42.3265317 -0.335236E-01  0.106E-01    0.42       1.0  T
   6    -42.3267050 -0.173246E-03  0.600E-02    0.41       1.0  T
   7    -42.3267732 -0.682663E-04  0.371E-02    0.42       1.0  T
   8    -42.3267945 -0.212903E-04  0.215E-02    0.42       1.0  T
   9    -42.3268126 -0.180268E-04  0.730E-03    0.42       2.7  T
  10    -42.3268139 -0.134178E-05  0.354E-03    0.42       5.6  T
  11    -42.3268142 -0.261495E-06  0.122E-03    0.42      16.5  T
  12    -42.3268142 -0.512061E-07  0.299E-04    0.42      66.9  T
  13    -42.3268142 -0.227309E-08  0.100E-04    0.42     200.1  T
     SCC iter.                  ...        0 min,  0.018 sec
     gradient                   ...        0 min,  0.011 sec
 * total energy  :   -41.8023236 Eh     change       -0.3197839E-01 Eh
   gradient norm :     0.1377810 Eh/α   predicted    -0.2910649E-01 (  -8.98%)
   displ. norm   :     0.4604273 α      lambda       -0.1865467E-01
   maximum displ.:     0.3694392 α      in ANC's #1, #18, #6, ...

........................................................................
.............................. CYCLE   11 ..............................
........................................................................

 iter      E             dE          RMSdq      gap      omega  full diag
   1    -42.3138523 -0.423139E+02  0.586E-01    0.41       0.0  T
   2    -42.2669737  0.468786E-01  0.110E+00    0.34       1.0  T
   3    -42.3147331 -0.477594E-01  0.497E-01    0.57       1.0  T
   4    -42.3143783  0.354781E-03  0.501E-01    0.30       1.0  T
   5    -42.3232434 -0.886513E-02  0.148E-01    0.43       1.0  T
   6    -42.3237501 -0.506660E-03  0.533E-02    0.42       1.0  T
   7    -42.3238467 -0.965771E-04  0.183E-02    0.42       1.1  T
   8    -42.3238494 -0.277598E-05  0.146E-02    0.42       1.4  T
   9    -42.3238562 -0.680197E-05  0.550E-03    0.42       3.6  T
  10    -42.3238572 -0.936303E-06  0.238E-03    0.43       8.4  T
  11    -42.3238573 -0.170047E-06  0.107E-03    0.43      18.7  T
  12    -42.3238574 -0.307170E-07  0.214E-04    0.43      93.6  T
  13    -42.3238574 -0.651895E-09  0.958E-05    0.43     208.7  T
     SCC iter.                  ...        0 min,  0.018 sec
     gradient                   ...        0 min,  0.011 sec
 * total energy  :   -41.8066635 Eh     change       -0.4339919E-02 Eh
   gradient norm :     0.1774854 Eh/α   predicted    -0.1130473E-01 ( 160.48%)
   displ. norm   :     0.5937696 α      lambda       -0.3555109E-01
   maximum displ.:     0.4331181 α      in ANC's #1, #18, #2, ...

........................................................................
.............................. CYCLE   12 ..............................
........................................................................

 iter      E             dE          RMSdq      gap      omega  full diag
   1    -42.3280812 -0.423281E+02  0.552E-01    0.43       0.0  T
   2    -42.3270646  0.101660E-02  0.377E-01    0.50       1.0  T
   3    -42.3037422  0.233224E-01  0.785E-01    0.21       1.0  T
   4    -42.3197581 -0.160160E-01  0.383E-01    0.52       1.0  T
   5    -42.3281781 -0.841996E-02  0.862E-02    0.43       1.0  T
   6    -42.3284466 -0.268482E-03  0.270E-02    0.43       1.0  T
   7    -42.3284631 -0.165848E-04  0.151E-02    0.43       1.3  T
   8    -42.3284695 -0.640587E-05  0.395E-03    0.44       5.1  T
   9    -42.3284696 -0.994024E-07  0.248E-03    0.44       8.1  T
  10    -42.3284698 -0.124828E-06  0.144E-03    0.44      13.9  T
  11    -42.3284698 -0.524600E-07  0.460E-04    0.44      43.5  T
  12    -42.3284698 -0.656696E-08  0.148E-04    0.44     135.5  T
     SCC iter.                  ...        0 min,  0.017 sec
     gradient                   ...        0 min,  0.011 sec
 * total energy  :   -41.8199693 Eh     change       -0.1330581E-01 Eh
   gradient norm :     0.1774832 Eh/α   predicted    -0.2404354E-01 (  80.70%)
   displ. norm   :     0.1555870 α      lambda       -0.1635373E-01
   maximum displ.:     0.0916613 α      in ANC's #1, #48, #18, ...

........................................................................
.............................. CYCLE   13 ..............................
........................................................................

 iter      E             dE          RMSdq      gap      omega  full diag
   1    -42.3231850 -0.423232E+02  0.234E-01    0.42       0.0  T
   2    -42.3183046  0.488043E-02  0.384E-01    0.42       1.0  T
   3    -42.3232831 -0.497853E-02  0.163E-01    0.36       1.0  T
   4    -42.3205178  0.276536E-02  0.296E-01    0.50       1.0  T
   5    -42.3240800 -0.356221E-02  0.811E-02    0.41       1.0  T
   6    -42.3242741 -0.194164E-03  0.276E-02    0.42       1.0  T
   7    -42.3242896 -0.154667E-04  0.174E-02    0.41       1.1  T
   8    -42.3242934 -0.376728E-05  0.119E-02    0.41       1.7  T
   9    -42.3242986 -0.520690E-05  0.314E-03    0.41       6.4  T
  10    -42.3242989 -0.334047E-06  0.958E-04    0.41      20.9  T
  11    -42.3242989 -0.122908E-07  0.336E-04    0.41      59.4  T
     SCC iter.                  ...        0 min,  0.015 sec
     gradient                   ...        0 min,  0.011 sec
 * total energy  :   -41.8315677 Eh     change       -0.1159840E-01 Eh
   gradient norm :     0.1017365 Eh/α   predicted    -0.8374982E-02 ( -27.79%)
   displ. norm   :     0.2083710 α      lambda       -0.1655022E-01
   maximum displ.:     0.0814765 α      in ANC's #18, #6, #49, ...

........................................................................
.............................. CYCLE   14 ..............................
........................................................................

 iter      E             dE          RMSdq      gap      omega  full diag
   1    -42.3187405 -0.423187E+02  0.263E-01    0.37       0.0  T
   2    -42.3138279  0.491257E-02  0.347E-01    0.44       1.0  T
   3    -42.3137569  0.710825E-04  0.353E-01    0.28       1.0  T
   4    -42.3190157 -0.525880E-02  0.142E-01    0.42       1.0  T
   5    -42.3194090 -0.393347E-03  0.810E-02    0.37       1.0  T
   6    -42.3195996 -0.190589E-03  0.229E-02    0.38       1.0  T
   7    -42.3196128 -0.131972E-04  0.102E-02    0.38       2.0  T
   8    -42.3196133 -0.528971E-06  0.783E-03    0.38       2.6  T
   9    -42.3196152 -0.187020E-05  0.311E-03    0.38       6.4  T
  10    -42.3196155 -0.312985E-06  0.101E-03    0.38      19.8  T
  11    -42.3196155 -0.172228E-07  0.424E-04    0.38      47.1  T
  12    -42.3196155 -0.627834E-08  0.138E-04    0.38     144.6  T
     SCC iter.                  ...        0 min,  0.017 sec
     gradient                   ...        0 min,  0.011 sec
 * total energy  :   -41.8440295 Eh     change       -0.1246180E-01 Eh
   gradient norm :     0.0779770 Eh/α   predicted    -0.8634536E-02 ( -30.71%)
   displ. norm   :     0.3243019 α      lambda       -0.1499880E-01
   maximum displ.:     0.1499901 α      in ANC's #18, #6, #9, ...

........................................................................
.............................. CYCLE   15 ..............................
........................................................................

 iter      E             dE          RMSdq      gap      omega  full diag
   1    -42.3188427 -0.423188E+02  0.340E-01    0.33       0.0  T
   2    -42.3051977  0.136449E-01  0.532E-01    0.50       1.0  T
   3    -42.3104728 -0.527502E-02  0.471E-01    0.22       1.0  T
   4    -42.3191994 -0.872660E-02  0.180E-01    0.37       1.0  T
   5    -42.3198370 -0.637597E-03  0.983E-02    0.33       1.0  T
   6    -42.3201351 -0.298122E-03  0.277E-02    0.36       1.0  T
   7    -42.3201586 -0.234894E-04  0.831E-03    0.36       2.4  T
   8    -42.3201586 -0.102562E-07  0.598E-03    0.36       3.3  T
   9    -42.3201595 -0.957564E-06  0.205E-03    0.36       9.8  T
  10    -42.3201597 -0.127544E-06  0.640E-04    0.36      31.2  T
  11    -42.3201597 -0.291871E-08  0.311E-04    0.36      64.4  T
     SCC iter.                  ...        0 min,  0.015 sec
     gradient                   ...        0 min,  0.011 sec
 * total energy  :   -41.8550676 Eh     change       -0.1103808E-01 Eh
   gradient norm :     0.1012705 Eh/α   predicted    -0.8288365E-02 ( -24.91%)
   displ. norm   :     0.3577366 α      lambda       -0.1282246E-01
   maximum displ.:     0.1693280 α      in ANC's #18, #6, #9, ...

........................................................................
.............................. CYCLE   16 ..............................
........................................................................

 iter      E             dE          RMSdq      gap      omega  full diag
   1    -42.3256154 -0.423256E+02  0.344E-01    0.31       0.0  T
   2    -42.3007755  0.248400E-01  0.698E-01    0.55       1.0  T
   3    -42.3207890 -0.200135E-01  0.401E-01    0.22       1.0  T
   4    -42.3259808 -0.519186E-02  0.208E-01    0.36       1.0  T
   5    -42.3272110 -0.123019E-02  0.739E-02    0.33       1.0  T
   6    -42.3273605 -0.149520E-03  0.257E-02    0.34       1.0  T
   7    -42.3273826 -0.220949E-04  0.628E-03    0.34       3.2  T
   8    -42.3273823  0.280558E-06  0.409E-03    0.34       4.9  T
   9    -42.3273828 -0.464516E-06  0.758E-04    0.34      26.4  T
  10    -42.3273828 -0.350770E-08  0.441E-04    0.34      45.4  T
     SCC iter.                  ...        0 min,  0.014 sec
     gradient                   ...        0 min,  0.011 sec
 * total energy  :   -41.8655268 Eh     change       -0.1045923E-01 Eh
   gradient norm :     0.1227670 Eh/α   predicted    -0.7231833E-02 ( -30.86%)
   displ. norm   :     0.5063483 α      lambda       -0.2003751E-01
   maximum displ.:     0.2314772 α      in ANC's #18, #6, #9, ...

........................................................................
.............................. CYCLE   17 ..............................
........................................................................

 iter      E             dE          RMSdq      gap      omega  full diag
   1    -42.3432906 -0.423433E+02  0.441E-01    0.28       0.0  T
   2    -42.2891303  0.541603E-01  0.103E+00    0.67       1.0  T
   3    -42.3403681 -0.512378E-01  0.411E-01    0.23       1.0  T
   4    -42.3445115 -0.414342E-02  0.246E-01    0.36       1.0  T
   5    -42.3464946 -0.198301E-02  0.672E-02    0.33       1.0  T
   6    -42.3466307 -0.136117E-03  0.210E-02    0.34       1.0  T
   7    -42.3466432 -0.124932E-04  0.860E-03    0.35       2.3  T
   8    -42.3466430  0.199268E-06  0.559E-03    0.35       3.6  T
   9    -42.3466438 -0.869651E-06  0.150E-03    0.35      13.3  T
  10    -42.3466439 -0.506575E-07  0.714E-04    0.35      28.0  T
  11    -42.3466439 -0.814117E-08  0.316E-04    0.35      63.3  T
     SCC iter.                  ...        0 min,  0.015 sec
     gradient                   ...        0 min,  0.011 sec
 * total energy  :   -41.8825847 Eh     change       -0.1705785E-01 Eh
   gradient norm :     0.1318133 Eh/α   predicted    -0.1258746E-01 ( -26.21%)
   displ. norm   :     0.5919074 α      lambda       -0.2904211E-01
   maximum displ.:     0.2502637 α      in ANC's #18, #6, #9, ...

........................................................................
.............................. CYCLE   18 ..............................
........................................................................

 iter      E             dE          RMSdq      gap      omega  full diag
   1    -42.3791945 -0.423792E+02  0.521E-01    0.31       0.0  T
   2    -42.3060712  0.731233E-01  0.121E+00    0.80       1.0  T
   3    -42.3787464 -0.726752E-01  0.398E-01    0.29       1.0  T
   4    -42.3835407 -0.479432E-02  0.141E-01    0.39       1.0  T
   5    -42.3839367 -0.395955E-03  0.428E-02    0.39       1.0  T
   6    -42.3839891 -0.523715E-04  0.228E-02    0.40       1.0  T
   7    -42.3840029 -0.138462E-04  0.103E-02    0.40       1.9  T
   8    -42.3840039 -0.102176E-05  0.499E-03    0.40       4.0  T
   9    -42.3840045 -0.554108E-06  0.203E-03    0.40       9.9  T
  10    -42.3840045 -0.510033E-07  0.106E-03    0.40      18.9  T
  11    -42.3840045 -0.203404E-07  0.473E-04    0.40      42.2  T
  12    -42.3840046 -0.544838E-08  0.237E-04    0.40      84.4  T
     SCC iter.                  ...        0 min,  0.017 sec
     gradient                   ...        0 min,  0.011 sec
 * total energy  :   -41.9066376 Eh     change       -0.2405297E-01 Eh
   gradient norm :     0.1206465 Eh/α   predicted    -0.1960860E-01 ( -18.48%)
   displ. norm   :     0.5479420 α      lambda       -0.2866251E-01
   maximum displ.:     0.2124490 α      in ANC's #18, #6, #9, ...

........................................................................
.............................. CYCLE   19 ..............................
........................................................................

 iter      E             dE          RMSdq      gap      omega  full diag
   1    -42.4291806 -0.424292E+02  0.553E-01    0.41       0.0  T
   2    -42.3537956  0.753851E-01  0.124E+00    0.94       1.0  T
   3    -42.4303855 -0.765899E-01  0.374E-01    0.42       1.0  T
   4    -42.4344514 -0.406584E-02  0.154E-01    0.51       1.0  T
   5    -42.4347612 -0.309881E-03  0.477E-02    0.51       1.0  T
   6    -42.4348204 -0.591468E-04  0.212E-02    0.51       1.0  T
   7    -42.4348269 -0.653566E-05  0.124E-02    0.51       1.6  T
   8    -42.4348306 -0.363578E-05  0.431E-03    0.51       4.6  T
   9    -42.4348309 -0.308447E-06  0.248E-03    0.51       8.1  T
  10    -42.4348310 -0.134453E-06  0.943E-04    0.51      21.2  T
  11    -42.4348310 -0.106882E-07  0.344E-04    0.51      58.1  T
     SCC iter.                  ...        0 min,  0.015 sec
     gradient                   ...        0 min,  0.011 sec
 * total energy  :   -41.9279319 Eh     change       -0.2129427E-01 Eh
   gradient norm :     0.1393522 Eh/α   predicted    -0.1863422E-01 ( -12.49%)
   displ. norm   :     0.4884900 α      lambda       -0.2025224E-01
   maximum displ.:     0.2052803 α      in ANC's #18, #6, #12, ...

........................................................................
.............................. CYCLE   20 ..............................
........................................................................

 iter      E             dE          RMSdq      gap      omega  full diag
   1    -42.4656278 -0.424656E+02  0.470E-01    0.55       0.0  T
   2    -42.4172460  0.483818E-01  0.101E+00    1.05       1.0  T
   3    -42.4671713 -0.499254E-01  0.283E-01    0.58       1.0  T
   4    -42.4687320 -0.156067E-02  0.151E-01    0.66       1.0  T
   5    -42.4691848 -0.452821E-03  0.674E-02    0.65       1.0  T
   6    -42.4693496 -0.164776E-03  0.188E-02    0.65       1.1  T
   7    -42.4693558 -0.616953E-05  0.102E-02    0.65       2.0  T
   8    -42.4693577 -0.195525E-05  0.388E-03    0.65       5.2  T
   9    -42.4693580 -0.256312E-06  0.147E-03    0.66      13.6  T
  10    -42.4693580 -0.461604E-07  0.716E-04    0.66      27.9  T
  11    -42.4693580 -0.845950E-08  0.229E-04    0.66      87.4  T
     SCC iter.                  ...        0 min,  0.015 sec
     gradient                   ...        0 min,  0.011 sec
 * total energy  :   -41.9451435 Eh     change       -0.1721164E-01 Eh
   gradient norm :     0.1625941 Eh/α   predicted    -0.1254246E-01 ( -27.13%)
   displ. norm   :     0.5570754 α      lambda       -0.3460341E-01
   maximum displ.:     0.2230618 α      in ANC's #18, #12, #25, ...
 * RMSD in coord.:     1.1530627 α      energy gain  -0.1145459E+02 Eh

generating ANC from model Hessian ...
Using Lindh-Hessian (1995)
 Shifting diagonal of input Hessian by    1.4862579192882180E-002
 Lowest  eigenvalues of input Hessian
    0.010000    0.012373    0.014644    0.000000    0.000000    0.000000
    0.000000    0.000000    0.000000    0.015318    0.015631    0.016836
    0.017120    0.019494    0.023404    0.025005    0.026089    0.028640
 Highest eigenvalues
    1.996286    2.234702    2.319361    2.366521    2.618977    3.079622


........................................................................
.............................. CYCLE   21 ..............................
........................................................................

 iter      E             dE          RMSdq      gap      omega  full diag
   1    -42.5216014 -0.425216E+02  0.543E-01    0.70       0.0  T
   2    -42.4562445  0.653569E-01  0.123E+00    1.43       1.0  T
   3    -42.5272452 -0.710007E-01  0.275E-01    0.81       1.0  T
   4    -42.5267677  0.477512E-03  0.186E-01    0.91       1.0  T
   5    -42.5273860 -0.618253E-03  0.822E-02    0.84       1.0  T
   6    -42.5276501 -0.264088E-03  0.245E-02    0.84       1.0  T
   7    -42.5276559 -0.581198E-05  0.181E-02    0.84       1.1  T
   8    -42.5276638 -0.790326E-05  0.709E-03    0.85       2.8  T
   9    -42.5276656 -0.183675E-05  0.130E-03    0.85      15.4  T
  10    -42.5276656 -0.397931E-08  0.114E-03    0.85      17.5  T
  11    -42.5276656 -0.111640E-07  0.783E-04    0.85      25.5  T
  12    -42.5276657 -0.234845E-07  0.133E-04    0.85     150.6  T
     SCC iter.                  ...        0 min,  0.017 sec
     gradient                   ...        0 min,  0.011 sec
 * total energy  :   -41.9724181 Eh     change       -0.2727454E-01 Eh
   gradient norm :     0.1581927 Eh/α   predicted     0.0000000E+00 (-100.00%)
   displ. norm   :     0.6305707 α      lambda       -0.5946537E-01
   maximum displ.:     0.3551471 α      in ANC's #15, #16, #17, ...

........................................................................
.............................. CYCLE   22 ..............................
........................................................................

 iter      E             dE          RMSdq      gap      omega  full diag
   1    -42.5501996 -0.425502E+02  0.660E-01    1.08       0.0  T
   2    -42.5487769  0.142272E-02  0.412E-01    0.96       1.0  T
   3    -42.5321905  0.165864E-01  0.728E-01    1.37       1.0  T
   4    -42.5465402 -0.143497E-01  0.346E-01    0.86       1.0  T
   5    -42.5510483 -0.450809E-02  0.104E-01    1.07       1.0  T
   6    -42.5514478 -0.399531E-03  0.200E-02    1.04       1.0  T
   7    -42.5514516 -0.377793E-05  0.118E-02    1.04       1.7  T
   8    -42.5514532 -0.161110E-05  0.731E-03    1.04       2.7  T
   9    -42.5514545 -0.129967E-05  0.326E-03    1.04       6.1  T
  10    -42.5514548 -0.341833E-06  0.635E-04    1.04      31.5  T
  11    -42.5514548 -0.304741E-08  0.337E-04    1.04      59.4  T
     SCC iter.                  ...        0 min,  0.015 sec
     gradient                   ...        0 min,  0.011 sec
 * total energy  :   -42.0206112 Eh     change       -0.4819312E-01 Eh
   gradient norm :     0.0886841 Eh/α   predicted    -0.4155562E-01 ( -13.77%)
   displ. norm   :     0.7481013 α      lambda       -0.4651871E-01
   maximum displ.:     0.4781492 α      in ANC's #15, #17, #16, ...

........................................................................
.............................. CYCLE   23 ..............................
........................................................................

 iter      E             dE          RMSdq      gap      omega  full diag
   1    -42.5839479 -0.425839E+02  0.610E-01    1.21       0.0  T
   2    -42.5843028 -0.354939E-03  0.366E-01    1.23       1.0  T
   3    -42.5831484  0.115445E-02  0.311E-01    1.18       1.0  T
   4    -42.5846321 -0.148368E-02  0.129E-01    1.21       1.0  T
   5    -42.5851262 -0.494101E-03  0.609E-02    1.24       1.0  T
   6    -42.5852541 -0.127962E-03  0.244E-02    1.19       1.0  T
   7    -42.5852686 -0.144808E-04  0.805E-03    1.20       2.5  T
   8    -42.5852689 -0.326526E-06  0.351E-03    1.20       5.7  T
   9    -42.5852691 -0.197143E-06  0.108E-03    1.20      18.5  T
  10    -42.5852691  0.147696E-08  0.644E-04    1.20      31.1  T
  11    -42.5852691 -0.732266E-08  0.229E-04    1.20      87.5  T
     SCC iter.                  ...        0 min,  0.015 sec
     gradient                   ...        0 min,  0.011 sec
 * total energy  :   -42.0590999 Eh     change       -0.3848873E-01 Eh
   gradient norm :     0.0768028 Eh/α   predicted    -0.3627666E-01 (  -5.75%)
   displ. norm   :     0.8308972 α      lambda       -0.3882736E-01
   maximum displ.:     0.5630665 α      in ANC's #15, #17, #16, ...

........................................................................
.............................. CYCLE   24 ..............................
........................................................................

 iter      E             dE          RMSdq      gap      omega  full diag
   1    -42.6137598 -0.426138E+02  0.813E-01    1.38       0.0  T
   2    -42.6147241 -0.964225E-03  0.497E-01    1.35       1.0  T
   3    -42.6116980  0.302604E-02  0.504E-01    1.57       1.0  T
   4    -42.6096362  0.206179E-02  0.482E-01    1.08       1.0  T
   5    -42.6177948 -0.815858E-02  0.154E-01    1.47       1.0  T
   6    -42.6184974 -0.702560E-03  0.223E-02    1.39       1.0  T
   7    -42.6185020 -0.464044E-05  0.131E-02    1.39       1.5  T
   8    -42.6185034 -0.140316E-05  0.501E-03    1.38       4.0  T
   9    -42.6185040 -0.587210E-06  0.139E-03    1.38      14.4  T
  10    -42.6185040 -0.429254E-08  0.796E-04    1.38      25.1  T
  11    -42.6185040 -0.112303E-07  0.266E-04    1.38      75.3  T
     SCC iter.                  ...        0 min,  0.016 sec
     gradient                   ...        0 min,  0.011 sec
 * total energy  :   -42.0951440 Eh     change       -0.3604409E-01 Eh
   gradient norm :     0.1160687 Eh/α   predicted    -0.3281679E-01 (  -8.95%)
   displ. norm   :     0.8552402 α      lambda       -0.4230743E-01
   maximum displ.:     0.5649324 α      in ANC's #15, #17, #16, ...

........................................................................
.............................. CYCLE   25 ..............................
........................................................................

 iter      E             dE          RMSdq      gap      omega  full diag
   1    -42.6474232 -0.426474E+02  0.855E-01    1.33       0.0  T
   2    -42.6503221 -0.289895E-02  0.650E-01    1.71       1.0  T
   3    -42.6536439 -0.332180E-02  0.377E-01    1.30       1.0  T
   4    -42.6431031  0.105409E-01  0.634E-01    1.89       1.0  T
   5    -42.6569600 -0.138569E-01  0.883E-02    1.51       1.0  T
   6    -42.6571597 -0.199715E-03  0.195E-02    1.50       1.0  T
   7    -42.6571643 -0.455009E-05  0.114E-02    1.50       1.8  T
   8    -42.6571650 -0.746602E-06  0.547E-03    1.50       3.7  T
   9    -42.6571655 -0.459004E-06  0.195E-03    1.50      10.3  T
  10    -42.6571656 -0.102990E-06  0.793E-04    1.50      25.2  T
  11    -42.6571656 -0.556116E-08  0.302E-04    1.50      66.1  T
     SCC iter.                  ...        0 min,  0.016 sec
     gradient                   ...        0 min,  0.011 sec
 * total energy  :   -42.1225157 Eh     change       -0.2737165E-01 Eh
   gradient norm :     0.1236152 Eh/α   predicted    -0.3662630E-01 (  33.81%)
   displ. norm   :     0.4327342 α      lambda       -0.3170793E-01
   maximum displ.:     0.1571229 α      in ANC's #19, #39, #28, ...

........................................................................
.............................. CYCLE   26 ..............................
........................................................................

 iter      E             dE          RMSdq      gap      omega  full diag
   1    -42.6734794 -0.426735E+02  0.452E-01    1.63       0.0  T
   2    -42.6671235  0.635588E-02  0.533E-01    1.24       1.0  T
   3    -42.6721209 -0.499743E-02  0.357E-01    1.71       1.0  T
   4    -42.6748315 -0.271060E-02  0.123E-01    1.50       1.0  T
   5    -42.6752479 -0.416366E-03  0.411E-02    1.52       1.0  T
   6    -42.6752875 -0.396112E-04  0.117E-02    1.53       1.7  T
   7    -42.6752878 -0.271304E-06  0.736E-03    1.52       2.7  T
   8    -42.6752886 -0.825454E-06  0.266E-03    1.52       7.5  T
   9    -42.6752887 -0.121813E-06  0.945E-04    1.52      21.2  T
  10    -42.6752887 -0.244784E-08  0.407E-04    1.52      49.1  T
     SCC iter.                  ...        0 min,  0.014 sec
     gradient                   ...        0 min,  0.011 sec
 * total energy  :   -42.1407261 Eh     change       -0.1821045E-01 Eh
   gradient norm :     0.0833925 Eh/α   predicted    -0.1882276E-01 (   3.36%)
   displ. norm   :     0.5766763 α      lambda       -0.2110158E-01
   maximum displ.:     0.2763796 α      in ANC's #3, #8, #39, ...

........................................................................
.............................. CYCLE   27 ..............................
........................................................................

 iter      E             dE          RMSdq      gap      omega  full diag
   1    -42.6803450 -0.426803E+02  0.606E-01    1.57       0.0  T
   2    -42.6805118 -0.166767E-03  0.359E-01    1.58       1.0  T
   3    -42.6794964  0.101539E-02  0.176E-01    1.52       1.0  T
   4    -42.6801460 -0.649618E-03  0.117E-01    1.64       1.0  T
   5    -42.6806212 -0.475203E-03  0.372E-02    1.55       1.0  T
   6    -42.6806650 -0.437570E-04  0.891E-03    1.57       2.2  T
   7    -42.6806650 -0.285230E-07  0.431E-03    1.57       4.6  T
   8    -42.6806653 -0.264598E-06  0.118E-03    1.57      16.9  T
   9    -42.6806653 -0.145323E-07  0.664E-04    1.57      30.1  T
  10    -42.6806653 -0.179764E-08  0.377E-04    1.57      53.0  T
     SCC iter.                  ...        0 min,  0.014 sec
     gradient                   ...        0 min,  0.011 sec
 * total energy  :   -42.1422639 Eh     change       -0.1537753E-02 Eh
   gradient norm :     0.1077691 Eh/α   predicted    -0.1405953E-01 ( 814.29%)
   displ. norm   :     0.4292174 α      lambda       -0.2401749E-01
   maximum displ.:     0.1790194 α      in ANC's #13, #3, #16, ...

........................................................................
.............................. CYCLE   28 ..............................
........................................................................

 iter      E             dE          RMSdq      gap      omega  full diag
   1    -42.6798534 -0.426799E+02  0.586E-01    1.54       0.0  T
   2    -42.6805623 -0.708836E-03  0.368E-01    1.53       1.0  T
   3    -42.6805476  0.146293E-04  0.252E-01    1.61       1.0  T
   4    -42.6767428  0.380483E-02  0.347E-01    1.32       1.0  T
   5    -42.6814837 -0.474092E-02  0.417E-02    1.57       1.0  T
   6    -42.6815412 -0.574422E-04  0.106E-02    1.55       1.9  T
   7    -42.6815430 -0.186344E-05  0.524E-03    1.55       3.8  T
   8    -42.6815432 -0.138338E-06  0.116E-03    1.55      17.3  T
   9    -42.6815432 -0.140500E-07  0.546E-04    1.55      36.6  T
  10    -42.6815432 -0.266922E-09  0.299E-04    1.55      66.8  T
     SCC iter.                  ...        0 min,  0.014 sec
     gradient                   ...        0 min,  0.011 sec
 * total energy  :   -42.1491042 Eh     change       -0.6840309E-02 Eh
   gradient norm :     0.0830039 Eh/α   predicted    -0.1422110E-01 ( 107.90%)
   displ. norm   :     0.3454360 α      lambda       -0.1110777E-01
   maximum displ.:     0.1779350 α      in ANC's #15, #3, #12, ...

........................................................................
.............................. CYCLE   29 ..............................
........................................................................

 iter      E             dE          RMSdq      gap      omega  full diag
   1    -42.6690553 -0.426691E+02  0.420E-01    1.55       0.0  T
   2    -42.6694086 -0.353296E-03  0.291E-01    1.47       1.0  T
   3    -42.6697999 -0.391240E-03  0.180E-01    1.58       1.0  T
   4    -42.6678367  0.196322E-02  0.248E-01    1.37       1.0  T
   5    -42.6701249 -0.228824E-02  0.414E-02    1.54       1.0  T
   6    -42.6701874 -0.625446E-04  0.832E-03    1.53       2.4  T
   7    -42.6701881 -0.649003E-06  0.397E-03    1.53       5.0  T
   8    -42.6701881  0.166858E-08  0.165E-03    1.53      12.2  T
   9    -42.6701882 -0.616096E-07  0.572E-04    1.53      34.9  T
  10    -42.6701882 -0.231758E-08  0.312E-04    1.53      64.2  T
     SCC iter.                  ...        0 min,  0.014 sec
     gradient                   ...        0 min,  0.011 sec
 * total energy  :   -42.1500478 Eh     change       -0.9435695E-03 Eh
   gradient norm :     0.0587995 Eh/α   predicted    -0.6216650E-02 ( 558.84%)
   displ. norm   :     0.3730992 α      lambda       -0.1024166E-01
   maximum displ.:     0.1782229 α      in ANC's #3, #8, #1, ...

........................................................................
.............................. CYCLE   30 ..............................
........................................................................

 iter      E             dE          RMSdq      gap      omega  full diag
   1    -42.6755060 -0.426755E+02  0.461E-01    1.53       0.0  T
   2    -42.6759138 -0.407784E-03  0.278E-01    1.52       1.0  T
   3    -42.6757964  0.117393E-03  0.159E-01    1.53       1.0  T
   4    -42.6758741 -0.776369E-04  0.844E-02    1.58       1.0  T
   5    -42.6760682 -0.194096E-03  0.444E-02    1.50       1.0  T
   6    -42.6761401 -0.719447E-04  0.119E-02    1.54       1.7  T
   7    -42.6761424 -0.225764E-05  0.572E-03    1.53       3.5  T
   8    -42.6761428 -0.431693E-06  0.196E-03    1.53      10.2  T
   9    -42.6761429 -0.747925E-07  0.764E-04    1.53      26.2  T
  10    -42.6761429 -0.273052E-08  0.365E-04    1.53      54.8  T
     SCC iter.                  ...        0 min,  0.014 sec
     gradient                   ...        0 min,  0.011 sec
 * total energy  :   -42.1480463 Eh     change        0.2001419E-02 Eh
   gradient norm :     0.0803858 Eh/α   predicted    -0.5833674E-02 (-391.48%)
   displ. norm   :     0.3060068 α      lambda       -0.1203326E-01
   maximum displ.:     0.1717087 α      in ANC's #3, #39, #1, ...

........................................................................
.............................. CYCLE   31 ..............................
........................................................................

 iter      E             dE          RMSdq      gap      omega  full diag
   1    -42.6845830 -0.426846E+02  0.379E-01    1.46       0.0  T
   2    -42.6845303  0.527431E-04  0.300E-01    1.60       1.0  T
   3    -42.6845534 -0.231606E-04  0.239E-01    1.38       1.0  T
   4    -42.6840562  0.497227E-03  0.243E-01    1.65       1.0  T
   5    -42.6860831 -0.202688E-02  0.286E-02    1.50       1.0  T
   6    -42.6861093 -0.262346E-04  0.702E-03    1.50       2.8  T
   7    -42.6861098 -0.501578E-06  0.403E-03    1.50       5.0  T
   8    -42.6861100 -0.185898E-06  0.168E-03    1.50      11.9  T
   9    -42.6861100 -0.620077E-07  0.444E-04    1.50      45.0  T
  10    -42.6861100 -0.139543E-08  0.235E-04    1.50      85.2  T
     SCC iter.                  ...        0 min,  0.014 sec
     gradient                   ...        0 min,  0.011 sec
 * total energy  :   -42.1528459 Eh     change       -0.4799555E-02 Eh
   gradient norm :     0.0456462 Eh/α   predicted    -0.6580036E-02 (  37.10%)
   displ. norm   :     0.2459723 α      lambda       -0.3603805E-02
   maximum displ.:     0.1697463 α      in ANC's #5, #8, #4, ...

........................................................................
.............................. CYCLE   32 ..............................
........................................................................

 iter      E             dE          RMSdq      gap      omega  full diag
   1    -42.6776136 -0.426776E+02  0.289E-01    1.55       0.0  T
   2    -42.6771471  0.466546E-03  0.215E-01    1.44       1.0  T
   3    -42.6744199  0.272715E-02  0.313E-01    1.72       1.0  T
   4    -42.6774682 -0.304825E-02  0.915E-02    1.48       1.0  T
   5    -42.6778181 -0.349934E-03  0.122E-02    1.53       1.6  T
   6    -42.6778213 -0.318090E-05  0.472E-03    1.53       4.2  T
   7    -42.6778216 -0.303870E-06  0.192E-03    1.52      10.4  T
   8    -42.6778216 -0.462714E-07  0.789E-04    1.53      25.4  T
   9    -42.6778217 -0.119703E-07  0.325E-04    1.53      61.6  T
     SCC iter.                  ...        0 min,  0.013 sec
     gradient                   ...        0 min,  0.011 sec
 * total energy  :   -42.1527572 Eh     change        0.8866626E-04 Eh
   gradient norm :     0.0468713 Eh/α   predicted    -0.1910930E-02 (*******%)
   displ. norm   :     0.2283973 α      lambda       -0.3312804E-02
   maximum displ.:     0.1766784 α      in ANC's #5, #1, #4, ...

........................................................................
.............................. CYCLE   33 ..............................
........................................................................

 iter      E             dE          RMSdq      gap      omega  full diag
   1    -42.6749379 -0.426749E+02  0.272E-01    1.55       0.0  T
   2    -42.6749272  0.106722E-04  0.171E-01    1.50       1.0  T
   3    -42.6738691  0.105812E-02  0.197E-01    1.65       1.0  T
   4    -42.6741982 -0.329066E-03  0.152E-01    1.44       1.0  T
   5    -42.6750927 -0.894502E-03  0.117E-02    1.54       1.7  T
   6    -42.6750970 -0.432761E-05  0.378E-03    1.54       5.3  T
   7    -42.6750972 -0.211040E-06  0.204E-03    1.54       9.8  T
   8    -42.6750973 -0.662395E-07  0.688E-04    1.54      29.1  T
   9    -42.6750973 -0.102777E-07  0.179E-04    1.53     111.8  T
     SCC iter.                  ...        0 min,  0.013 sec
     gradient                   ...        0 min,  0.011 sec
 * total energy  :   -42.1532482 Eh     change       -0.4909318E-03 Eh
   gradient norm :     0.0365785 Eh/α   predicted    -0.1742823E-02 ( 255.00%)
   displ. norm   :     0.1526299 α      lambda       -0.2335432E-02
   maximum displ.:     0.0625061 α      in ANC's #1, #17, #5, ...

........................................................................
.............................. CYCLE   34 ..............................
........................................................................

 iter      E             dE          RMSdq      gap      omega  full diag
   1    -42.6821872 -0.426822E+02  0.167E-01    1.48       0.0  T
   2    -42.6818271  0.360057E-03  0.165E-01    1.58       1.0  T
   3    -42.6819431 -0.115979E-03  0.134E-01    1.43       1.0  T
   4    -42.6821747 -0.231638E-03  0.869E-02    1.55       1.0  T
   5    -42.6824410 -0.266275E-03  0.100E-02    1.51       2.0  T
   6    -42.6824431 -0.205381E-05  0.341E-03    1.50       5.9  T
   7    -42.6824430  0.154105E-07  0.214E-03    1.51       9.3  T
   8    -42.6824431 -0.878435E-07  0.637E-04    1.51      31.4  T
   9    -42.6824431 -0.487139E-08  0.290E-04    1.51      69.0  T
     SCC iter.                  ...        0 min,  0.013 sec
     gradient                   ...        0 min,  0.011 sec
 * total energy  :   -42.1539317 Eh     change       -0.6835572E-03 Eh
   gradient norm :     0.0204811 Eh/α   predicted    -0.1194931E-02 (  74.81%)
   displ. norm   :     0.0767727 α      lambda       -0.6101177E-03
   maximum displ.:     0.0415433 α      in ANC's #2, #8, #13, ...

........................................................................
.............................. CYCLE   35 ..............................
........................................................................

 iter      E             dE          RMSdq      gap      omega  full diag
   1    -42.6804657 -0.426805E+02  0.692E-02    1.52       0.0  T
   2    -42.6804372  0.284927E-04  0.612E-02    1.49       1.0  T
   3    -42.6804036  0.336013E-04  0.562E-02    1.55       1.0  T
   4    -42.6804452 -0.415979E-04  0.384E-02    1.49       1.0  T
   5    -42.6805009 -0.557012E-04  0.547E-03    1.52       3.7  T
   6    -42.6805015 -0.603570E-06  0.171E-03    1.52      11.7  T
   7    -42.6805015 -0.761645E-08  0.977E-04    1.51      20.5  T
   8    -42.6805015 -0.133974E-07  0.399E-04    1.52      50.1  T
     SCC iter.                  ...        0 min,  0.011 sec
     gradient                   ...        0 min,  0.011 sec
 * total energy  :   -42.1542367 Eh     change       -0.3049752E-03 Eh
   gradient norm :     0.0073588 Eh/α   predicted    -0.3068592E-03 (   0.62%)
   displ. norm   :     0.0677310 α      lambda       -0.1048731E-03
   maximum displ.:     0.0533727 α      in ANC's #2, #3, #13, ...

........................................................................
.............................. CYCLE   36 ..............................
........................................................................

 iter      E             dE          RMSdq      gap      omega  full diag
   1    -42.6794745 -0.426795E+02  0.284E-02    1.52       0.0  T
   2    -42.6794373  0.371893E-04  0.349E-02    1.50       1.0  T
   3    -42.6794629 -0.255771E-04  0.258E-02    1.53       1.0  T
   4    -42.6794796 -0.167266E-04  0.716E-03    1.52       2.8  T
   5    -42.6794812 -0.153945E-05  0.166E-03    1.52      12.1  T
   6    -42.6794812 -0.399682E-07  0.910E-04    1.52      22.0  T
   7    -42.6794812 -0.137597E-07  0.342E-04    1.52      58.4  T
     SCC iter.                  ...        0 min,  0.010 sec
     gradient                   ...        0 min,  0.011 sec
 * total energy  :   -42.1543124 Eh     change       -0.7567758E-04 Eh
   gradient norm :     0.0050780 Eh/α   predicted    -0.5268099E-04 ( -30.39%)
   displ. norm   :     0.2338215 α      lambda       -0.2431988E-03
   maximum displ.:     0.1997977 α      in ANC's #2, #3, #8, ...

........................................................................
.............................. CYCLE   37 ..............................
........................................................................

 iter      E             dE          RMSdq      gap      omega  full diag
   1    -42.6788784 -0.426789E+02  0.575E-02    1.53       0.0  T
   2    -42.6788302  0.482151E-04  0.539E-02    1.49       1.0  T
   3    -42.6788177  0.124851E-04  0.509E-02    1.55       1.0  T
   4    -42.6788806 -0.628518E-04  0.237E-02    1.51       1.0  T
   5    -42.6788993 -0.187249E-04  0.358E-03    1.52       5.6  T
   6    -42.6788996 -0.324548E-06  0.104E-03    1.52      19.2  T
   7    -42.6788997 -0.643275E-08  0.620E-04    1.52      32.3  T
   8    -42.6788997 -0.287483E-08  0.240E-04    1.52      83.2  T
     SCC iter.                  ...        0 min,  0.011 sec
     gradient                   ...        0 min,  0.011 sec
 * total energy  :   -42.1544876 Eh     change       -0.1752546E-03 Eh
   gradient norm :     0.0078591 Eh/α   predicted    -0.1282491E-03 ( -26.82%)
   displ. norm   :     0.4048578 α      lambda       -0.3145936E-03
   maximum displ.:     0.3470369 α      in ANC's #2, #3, #8, ...

........................................................................
.............................. CYCLE   38 ..............................
........................................................................

 iter      E             dE          RMSdq      gap      omega  full diag
   1    -42.6783610 -0.426784E+02  0.871E-02    1.54       0.0  T
   2    -42.6780482  0.312806E-03  0.108E-01    1.46       1.0  T
   3    -42.6783002 -0.251977E-03  0.653E-02    1.56       1.0  T
   4    -42.6784004 -0.100204E-03  0.211E-02    1.51       1.0  T
   5    -42.6784157 -0.153362E-04  0.419E-03    1.52       4.8  T
   6    -42.6784162 -0.478488E-06  0.138E-03    1.52      14.5  T
   7    -42.6784162 -0.651735E-08  0.673E-04    1.52      29.7  T
   8    -42.6784162 -0.375680E-08  0.166E-04    1.52     120.7  T
     SCC iter.                  ...        0 min,  0.011 sec
     gradient                   ...        0 min,  0.011 sec
 * total energy  :   -42.1547462 Eh     change       -0.2585794E-03 Eh
   gradient norm :     0.0124029 Eh/α   predicted    -0.1830791E-03 ( -29.20%)
   displ. norm   :     0.6539684 α      lambda       -0.5178643E-03
   maximum displ.:     0.5728940 α      in ANC's #2, #3, #8, ...

........................................................................
.............................. CYCLE   39 ..............................
........................................................................

 iter      E             dE          RMSdq      gap      omega  full diag
   1    -42.6773032 -0.426773E+02  0.128E-01    1.59       0.0  T
   2    -42.6760371  0.126603E-02  0.209E-01    1.42       1.0  T
   3    -42.6774158 -0.137872E-02  0.672E-02    1.57       1.0  T
   4    -42.6774633 -0.474899E-04  0.276E-02    1.53       1.0  T
   5    -42.6774897 -0.263977E-04  0.472E-03    1.54       4.2  T
   6    -42.6774903 -0.585047E-06  0.184E-03    1.54      10.9  T
   7    -42.6774903 -0.947269E-08  0.944E-04    1.54      21.2  T
   8    -42.6774903 -0.107955E-07  0.315E-04    1.54      63.4  T
     SCC iter.                  ...        0 min,  0.011 sec
     gradient                   ...        0 min,  0.011 sec
 * total energy  :   -42.1552264 Eh     change       -0.4801813E-03 Eh
   gradient norm :     0.0217960 Eh/α   predicted    -0.3696555E-03 ( -23.02%)
   displ. norm   :     0.7656026 α      lambda       -0.8802724E-03
   maximum displ.:     0.6754435 α      in ANC's #2, #3, #8, ...

........................................................................
.............................. CYCLE   40 ..............................
........................................................................

 iter      E             dE          RMSdq      gap      omega  full diag
   1    -42.6779742 -0.426780E+02  0.153E-01    1.66       0.0  T
   2    -42.6749845  0.298972E-02  0.313E-01    1.40       1.0  T
   3    -42.6783958 -0.341139E-02  0.648E-02    1.60       1.0  T
   4    -42.6783804  0.154669E-04  0.248E-02    1.58       1.0  T
   5    -42.6784012 -0.207826E-04  0.522E-03    1.59       3.8  T
   6    -42.6784017 -0.554517E-06  0.234E-03    1.59       8.6  T
   7    -42.6784018 -0.571070E-07  0.968E-04    1.59      20.7  T
   8    -42.6784018 -0.157696E-07  0.300E-04    1.59      66.7  T
     SCC iter.                  ...        0 min,  0.011 sec
     gradient                   ...        0 min,  0.011 sec
 * total energy  :   -42.1559801 Eh     change       -0.7536931E-03 Eh
   gradient norm :     0.0358243 Eh/α   predicted    -0.6980847E-03 (  -7.38%)
   displ. norm   :     0.4402070 α      lambda       -0.2063495E-02
   maximum displ.:     0.3344582 α      in ANC's #2, #13, #3, ...

........................................................................
.............................. CYCLE   41 ..............................
........................................................................

 iter      E             dE          RMSdq      gap      omega  full diag
   1    -42.6893025 -0.426893E+02  0.180E-01    1.68       0.0  T
   2    -42.6877353  0.156723E-02  0.245E-01    1.49       1.0  T
   3    -42.6894615 -0.172618E-02  0.104E-01    1.68       1.0  T
   4    -42.6895733 -0.111876E-03  0.471E-02    1.62       1.0  T
   5    -42.6896381 -0.647697E-04  0.113E-02    1.63       1.8  T
   6    -42.6896403 -0.217660E-05  0.476E-03    1.63       4.2  T
   7    -42.6896406 -0.287652E-06  0.237E-03    1.63       8.4  T
   8    -42.6896407 -0.798406E-07  0.666E-04    1.63      30.0  T
   9    -42.6896407 -0.604064E-08  0.328E-04    1.63      60.9  T
     SCC iter.                  ...        0 min,  0.013 sec
     gradient                   ...        0 min,  0.011 sec
 * total energy  :   -42.1561634 Eh     change       -0.1833002E-03 Eh
   gradient norm :     0.0420812 Eh/α   predicted    -0.1231668E-02 ( 571.94%)
   displ. norm   :     0.3900729 α      lambda       -0.2154462E-02
   maximum displ.:     0.3538445 α      in ANC's #2, #3, #5, ...

........................................................................
.............................. CYCLE   42 ..............................
........................................................................

 iter      E             dE          RMSdq      gap      omega  full diag
   1    -42.6820558 -0.426821E+02  0.135E-01    1.77       0.0  T
   2    -42.6791025  0.295333E-02  0.304E-01    1.49       1.0  T
   3    -42.6825468 -0.344432E-02  0.493E-02    1.69       1.0  T
   4    -42.6825363  0.105205E-04  0.221E-02    1.69       1.0  T
   5    -42.6825486 -0.122954E-04  0.424E-03    1.69       4.7  T
   6    -42.6825490 -0.452108E-06  0.168E-03    1.69      11.9  T
   7    -42.6825490 -0.789834E-08  0.104E-03    1.69      19.2  T
   8    -42.6825491 -0.820930E-08  0.460E-04    1.69      43.5  T
   9    -42.6825491 -0.650074E-08  0.138E-04    1.69     144.5  T
     SCC iter.                  ...        0 min,  0.013 sec
     gradient                   ...        0 min,  0.011 sec
 * total energy  :   -42.1575650 Eh     change       -0.1401605E-02 Eh
   gradient norm :     0.0323777 Eh/α   predicted    -0.1241136E-02 ( -11.45%)
   displ. norm   :     0.1666802 α      lambda       -0.1696079E-02
   maximum displ.:     0.0825772 α      in ANC's #3, #6, #1, ...
 * RMSD in coord.:     0.9281486 α      energy gain  -0.2124214E+00 Eh

generating ANC from model Hessian ...
Using Lindh-Hessian (1995)
 Shifting diagonal of input Hessian by    9.6791100888348070E-003
 Lowest  eigenvalues of input Hessian
    0.000000    0.000000    0.000000    0.000000    0.000000    0.000000
    0.010000    0.010187    0.011196    0.011678    0.012374    0.012726
    0.014820    0.016017    0.019546    0.020374    0.020817    0.026722
 Highest eigenvalues
    2.124100    2.193572    2.246945    2.321692    2.423968    3.270491


........................................................................
.............................. CYCLE   43 ..............................
........................................................................

 iter      E             dE          RMSdq      gap      omega  full diag
   1    -42.6793081 -0.426793E+02  0.166E-01    1.72       0.0  T
   2    -42.6793210 -0.129120E-04  0.105E-01    1.70       1.0  T
   3    -42.6792087  0.112282E-03  0.739E-02    1.75       1.0  T
   4    -42.6792526 -0.438560E-04  0.507E-02    1.68       1.0  T
   5    -42.6793562 -0.103601E-03  0.877E-03    1.72       2.3  T
   6    -42.6793582 -0.201478E-05  0.321E-03    1.72       6.2  T
   7    -42.6793583 -0.975692E-07  0.129E-03    1.72      15.5  T
   8    -42.6793583 -0.274745E-07  0.478E-04    1.72      41.8  T
   9    -42.6793583 -0.312092E-08  0.224E-04    1.71      89.4  T
     SCC iter.                  ...        0 min,  0.013 sec
     gradient                   ...        0 min,  0.011 sec
 * total energy  :   -42.1582446 Eh     change       -0.6796486E-03 Eh
   gradient norm :     0.0321940 Eh/α   predicted     0.0000000E+00 (-100.00%)
   displ. norm   :     0.2565485 α      lambda       -0.1446741E-02
   maximum displ.:     0.2186057 α      in ANC's #3, #5, #7, ...

........................................................................
.............................. CYCLE   44 ..............................
........................................................................

 iter      E             dE          RMSdq      gap      omega  full diag
   1    -42.6807649 -0.426808E+02  0.343E-01    1.79       0.0  T
   2    -42.6802097  0.555217E-03  0.248E-01    1.67       1.0  T
   3    -42.6753133  0.489638E-02  0.368E-01    2.02       1.0  T
   4    -42.6808538 -0.554055E-02  0.270E-02    1.76       1.0  T
   5    -42.6808793 -0.254292E-04  0.477E-03    1.76       4.2  T
   6    -42.6808800 -0.692843E-06  0.177E-03    1.75      11.3  T
   7    -42.6808800 -0.221483E-08  0.114E-03    1.75      17.5  T
   8    -42.6808800 -0.185140E-07  0.486E-04    1.75      41.1  T
   9    -42.6808800 -0.728812E-08  0.837E-05    1.75     238.9  T
     SCC iter.                  ...        0 min,  0.013 sec
     gradient                   ...        0 min,  0.011 sec
 * total energy  :   -42.1594704 Eh     change       -0.1225733E-02 Eh
   gradient norm :     0.0115560 Eh/α   predicted    -0.7768295E-03 ( -36.62%)
   displ. norm   :     0.5453520 α      lambda       -0.2318507E-02
   maximum displ.:     0.5003498 α      in ANC's #3, #7, #13, ...

........................................................................
.............................. CYCLE   45 ..............................
........................................................................

 iter      E             dE          RMSdq      gap      omega  full diag
   1    -42.6787621 -0.426788E+02  0.582E-01    2.00       0.0  T
   2    -42.6725248  0.623726E-02  0.541E-01    1.58       1.0  T
   3    -42.6739799 -0.145509E-02  0.447E-01    2.17       1.0  T
   4    -42.6799509 -0.597103E-02  0.570E-02    1.90       1.0  T
   5    -42.6800788 -0.127864E-03  0.147E-02    1.89       1.4  T
   6    -42.6800867 -0.791830E-05  0.405E-03    1.88       4.9  T
   7    -42.6800868 -0.995656E-07  0.231E-03    1.88       8.7  T
   8    -42.6800868 -0.275122E-07  0.129E-03    1.88      15.5  T
   9    -42.6800869 -0.566857E-07  0.253E-04    1.88      79.1  T
  10    -42.6800869 -0.221839E-09  0.133E-04    1.88     150.9  T
     SCC iter.                  ...        0 min,  0.014 sec
     gradient                   ...        0 min,  0.011 sec
 * total energy  :   -42.1615930 Eh     change       -0.2122659E-02 Eh
   gradient norm :     0.0238548 Eh/α   predicted    -0.1504046E-02 ( -29.14%)
   displ. norm   :     0.7102670 α      lambda       -0.3226458E-02
   maximum displ.:     0.6125964 α      in ANC's #3, #7, #13, ...

........................................................................
.............................. CYCLE   46 ..............................
........................................................................

 iter      E             dE          RMSdq      gap      omega  full diag
   1    -42.6729010 -0.426729E+02  0.556E-01    2.44       0.0  T
   2    -42.6573010  0.156000E-01  0.752E-01    1.63       1.0  T
   3    -42.6774427 -0.201417E-01  0.261E-01    2.25       1.0  T
   4    -42.6778323 -0.389595E-03  0.745E-02    2.16       1.0  T
   5    -42.6779934 -0.161170E-03  0.242E-02    2.16       1.0  T
   6    -42.6780062 -0.127507E-04  0.101E-02    2.15       2.0  T
   7    -42.6780084 -0.218808E-05  0.315E-03    2.16       6.4  T
   8    -42.6780085 -0.114703E-06  0.113E-03    2.16      17.7  T
   9    -42.6780085 -0.183352E-07  0.540E-04    2.16      37.0  T
  10    -42.6780085  0.239673E-09  0.269E-04    2.16      74.2  T
     SCC iter.                  ...        0 min,  0.014 sec
     gradient                   ...        0 min,  0.011 sec
 * total energy  :   -42.1648124 Eh     change       -0.3219384E-02 Eh
   gradient norm :     0.0468131 Eh/α   predicted    -0.2427112E-02 ( -24.61%)
   displ. norm   :     0.9131772 α      lambda       -0.4890246E-02
   maximum displ.:     0.7672431 α      in ANC's #3, #7, #13, ...

........................................................................
.............................. CYCLE   47 ..............................
........................................................................

 iter      E             dE          RMSdq      gap      omega  full diag
   1    -42.6613104 -0.426613E+02  0.628E-01    2.78       0.0  T
   2    -42.6567088  0.460165E-02  0.713E-01    2.27       1.0  T
   3    -42.6722729 -0.155641E-01  0.258E-01    2.83       1.0  T
   4    -42.6721536  0.119206E-03  0.103E-01    2.74       1.0  T
   5    -42.6723341 -0.180480E-03  0.439E-02    2.79       1.0  T
   6    -42.6723737 -0.395629E-04  0.209E-02    2.79       1.0  T
   7    -42.6723788 -0.507946E-05  0.868E-03    2.81       2.3  T
   8    -42.6723813 -0.251790E-05  0.374E-03    2.81       5.3  T
   9    -42.6723818 -0.509709E-06  0.140E-03    2.81      14.3  T
  10    -42.6723818  0.392213E-07  0.111E-03    2.81      18.0  T
  11    -42.6723818 -0.471635E-07  0.266E-04    2.81      75.1  T
  12    -42.6723818 -0.301933E-08  0.958E-05    2.81     208.8  T
     SCC iter.                  ...        0 min,  0.017 sec
     gradient                   ...        0 min,  0.011 sec
 * total energy  :   -42.1691606 Eh     change       -0.4348170E-02 Eh
   gradient norm :     0.0891178 Eh/α   predicted    -0.4484221E-02 (   3.13%)
   displ. norm   :     0.6346946 α      lambda       -0.8152748E-02
   maximum displ.:     0.3757008 α      in ANC's #3, #7, #13, ...

........................................................................
.............................. CYCLE   48 ..............................
........................................................................

 iter      E             dE          RMSdq      gap      omega  full diag
   1    -42.6713729 -0.426714E+02  0.468E-01    2.75       0.0  T
   2    -42.6737038 -0.233090E-02  0.337E-01    2.84       1.0  T
   3    -42.6740531 -0.349281E-03  0.198E-01    2.78       1.0  T
   4    -42.6739327  0.120434E-03  0.103E-01    2.86       1.0  T
   5    -42.6741989 -0.266249E-03  0.311E-02    2.80       1.0  T
   6    -42.6742055 -0.660490E-05  0.176E-02    2.81       1.1  T
   7    -42.6742067 -0.113358E-05  0.739E-03    2.81       2.7  T
   8    -42.6742076 -0.964626E-06  0.296E-03    2.81       6.8  T
   9    -42.6742076 -0.495048E-08  0.165E-03    2.81      12.1  T
  10    -42.6742077 -0.456684E-07  0.314E-04    2.81      63.8  T
  11    -42.6742077 -0.282327E-09  0.157E-04    2.81     127.1  T
     SCC iter.                  ...        0 min,  0.015 sec
     gradient                   ...        0 min,  0.011 sec
 * total energy  :   -42.1738385 Eh     change       -0.4677917E-02 Eh
   gradient norm :     0.1354891 Eh/α   predicted    -0.5718549E-02 (  22.25%)
[...]
C           -1.31272086902195        0.71461765342695       -0.00980017710666
O           -2.64310615776053        0.60317749917418       -0.02418982305411
N           -0.80182154090642       -0.62518197254363       -0.00090555638470
C           -1.61309995608639       -1.82676309836239        0.00076848664067
H            4.45422826613823        0.41853300936211        0.96671365755747
H            4.58717346502511        0.23259297149824       -0.79193146237532
H            3.68186512593299        1.60445629557638       -0.10469843242254
H            3.41652344543415       -2.24175969027591        0.00512115658612
H           -3.83612448579090        2.38502048080122        0.00214728147225
H           -4.47798026933344        0.96795422518611       -0.90477994055600
H           -4.46238130329959        0.95758017973297        0.89999575213116
H           -1.40743376496889       -2.41709196698695        0.89565359160010
H           -1.40748017085766       -2.42043081476086       -0.89191034042467
H           -2.66227711405311       -1.54925086269881       -0.00030912628558
H            0.93974533578373       -2.83795060545594       -0.00045118863833

 Bond Distances (Angstroems)
 ---------------------------
C1-N2=1.4369         C1-H15=1.0917        C1-H16=1.0901        C1-H17=1.0896        N2-C1=1.4369         N2-C3=1.3363         
N2-C6=1.3762         C3-N2=1.3363         C3-N4=1.3593         C3-H18=1.0704        N4-C3=1.3593         N4-C5=1.3661         
N4-H25=1.0084        C5-N4=1.3661         C5-C6=1.3913         C5-N13=1.3526        C6-N2=1.3762         C6-C5=1.3913         
C6-C7=1.4417         C7-C6=1.4417         C7-O8=1.2007         C7-N9=1.4630         O8-C7=1.2007         N9-C7=1.4630         
N9-C11=1.2928        C10-O12=1.5041       C10-H19=1.0883       C10-H20=1.0855       C10-H21=1.0861       C11-N9=1.2928        
C11-O12=1.3351       C11-N13=1.4339       O12-C10=1.5041       O12-C11=1.3351       N13-C5=1.3526        N13-C11=1.4339       
N13-C14=1.4498       C14-N13=1.4498       C14-H22=1.0916       C14-H23=1.0916       C14-H24=1.0853       H15-C1=1.0917        
H16-C1=1.0901        H17-C1=1.0896        H18-C3=1.0704        H19-C10=1.0883       H20-C10=1.0855       H21-C10=1.0861       
H22-C14=1.0916       H23-C14=1.0916       H24-C14=1.0853       H25-N4=1.0084        
 C  H  Rav=1.0870 sigma=0.0060  Rmin=1.0704  Rmax=1.0917    10
 C  C  Rav=1.4165 sigma=0.0252  Rmin=1.3913  Rmax=1.4417     2
 N  H  Rav=1.0084 sigma=0.0000  Rmin=1.0084  Rmax=1.0084     1
 N  C  Rav=1.3867 sigma=0.0532  Rmin=1.2928  Rmax=1.4630    10
 O  C  Rav=1.3466 sigma=0.1241  Rmin=1.2007  Rmax=1.5041     3

 selected bond angles (degree)
 --------------------
H15-C1-N2=110.43               H16-C1-N2=110.35               H16-C1-H15=108.75              H17-C1-N2=108.72               
H17-C1-H15=108.93              H17-C1-H16=109.64              C3-N2-C1=126.97                C6-N2-C1=125.12                
C6-N2-C3=107.91                N4-C3-N2=109.51                H18-C3-N2=125.73               H18-C3-N4=124.76               
C5-N4-C3=108.22                H25-N4-C3=124.93               H25-N4-C5=126.85               C6-C5-N4=106.79                
N13-C5-N4=128.02               N13-C5-C6=125.19               C5-C6-N2=107.58                C7-C6-N2=131.11                
C7-C6-C5=121.30                O8-C7-C6=128.97                N9-C7-C6=108.97                N9-C7-O8=122.06                
C11-N9-C7=129.92               H19-C10-O12=110.61             H20-C10-O12=104.81             H20-C10-H19=111.87             
H21-C10-O12=105.04             H21-C10-H19=111.64             H21-C10-H20=112.43             

 selected dihedral angles (degree)
 ---------------------------------
C3-N2-C1-H15=292.82           C3-N2-C1-H16= 53.09           C3-N2-C1-H17=173.36           C6-N2-C1-H15=112.18           
C6-N2-C1-H16=232.45           C6-N2-C1-H17=352.73           N4-C3-N2-C1=179.45            N4-C3-N2-C6=  0.00            
H18-C3-N2-C1=359.40           H18-C3-N2-C6=179.95           C5-N4-C3-N2=  0.00            C5-N4-C3-H18=180.05           
H25-N4-C3-N2=179.77           H25-N4-C3-H18=359.82          C6-C5-N4-C3=  0.00            C6-C5-N4-H25=180.24           
N13-C5-N4-C3=179.89           N13-C5-N4-H25=  0.13          C5-C6-N2-C1=180.54            C5-C6-N2-C3=  0.00            
C7-C6-N2-C1=  1.24            C7-C6-N2-C3=180.71            N2-C6-C5-N4=  0.00            N2-C6-C5-N13=180.10           
C7-C6-C5-N4=179.38            C7-C6-C5-N13=359.48           O8-C7-C6-N2=359.80            O8-C7-C6-C5=180.59            
N9-C7-C6-N2=179.67            N9-C7-C6-C5=  0.45            C11-N9-C7-C6=359.75           C11-N9-C7-O8=179.62           
           -------------------------------------------------
          |                Final Singlepoint                |
           -------------------------------------------------

          ...................................................
          :                      SETUP                      :
          :.................................................:
          :  # basis functions                  67          :
          :  # atomic orbitals                  67          :
          :  # shells                           39          :
          :  # electrons                        74          :
          :  max. iterations                   250          :
          :  Hamiltonian                  GFN2-xTB          :
          :  restarted?                      false          :
          :  GBSA solvation                  false          :
          :  PC potential                    false          :
          :  electronic temp.         7500.0000000     K    :
          :  accuracy                    1.0000000          :
          :  -> integral cutoff          0.2500000E+02      :
          :  -> integral neglect         0.1000000E-07      :
          :  -> SCF convergence          0.1000000E-05 Eh   :
          :  -> wf. convergence          0.1000000E-03 e    :
          :  Broyden damping             0.4000000          :
          ...................................................

 iter      E             dE          RMSdq      gap      omega  full diag
   1    -42.6992859 -0.426993E+02  0.128E-04    2.91       0.0  T
   2    -42.6992859 -0.106319E-09  0.861E-05    2.91     232.4  T
   3    -42.6992859 -0.110063E-09  0.486E-05    2.91     411.8  T

   *** convergence criteria satisfied after 3 iterations ***

         #    Occupation            Energy/Eh            Energy/eV
      -------------------------------------------------------------
         1        2.0000           -0.8952750             -24.3617
       ...           ...                  ...                  ...
        31        1.9946           -0.6094769             -16.5847
        32        1.9933           -0.6044234             -16.4472
        33        1.9904           -0.5959017             -16.2153
        34        1.9635           -0.5638717             -15.3437
        35        1.9517           -0.5570835             -15.1590
        36        1.9209           -0.5450183             -14.8307
        37        1.8495           -0.5288320             -14.3903 (HOMO)
        38        0.2405           -0.4219853             -11.4828 (LUMO)
        39        0.0670           -0.3894070             -10.5963
        40        0.0390           -0.3761740             -10.2362
        41        0.0006           -0.2746113              -7.4726
        42        0.0005           -0.2727444              -7.4218
       ...           ...                  ...                  ...
        67                          0.5781725              15.7329
      -------------------------------------------------------------
                  HL-Gap            0.1068467 Eh            2.9074 eV
             Fermi-level           -0.4692467 Eh          -12.7689 eV

 SCC (total)                   0 d,  0 h,  0 min,  0.021 sec
 SCC setup                      ...        0 min,  0.000 sec (  0.845%)
 Dispersion                     ...        0 min,  0.000 sec (  0.947%)
 classical contributions        ...        0 min,  0.000 sec (  0.320%)
 integral evaluation            ...        0 min,  0.004 sec ( 21.038%)
 iterations                     ...        0 min,  0.005 sec ( 22.721%)
 molecular gradient             ...        0 min,  0.011 sec ( 53.507%)
 printout                       ...        0 min,  0.000 sec (  0.544%)

         :::::::::::::::::::::::::::::::::::::::::::::::::::::
         ::                     SUMMARY                     ::
         :::::::::::::::::::::::::::::::::::::::::::::::::::::
         :: total energy             -42.197810443485 Eh    ::
         :: gradient norm              0.002055451500 Eh/a0 ::
         :: HOMO-LUMO gap              2.907447262005 eV    ::
         ::.................................................::
         :: SCC energy               -42.699285888942 Eh    ::
         :: -> isotropic ES            0.128044981941 Eh    ::
         :: -> anisotropic ES         -0.005565025209 Eh    ::
         :: -> anisotropic XC          0.015802505116 Eh    ::
         :: -> dispersion             -0.021647480343 Eh    ::
         :: repulsion energy           0.500487607679 Eh    ::
         :: add. restraining           0.000963291073 Eh    ::
         :: total charge               1.000000000000 e     ::
         :::::::::::::::::::::::::::::::::::::::::::::::::::::

           -------------------------------------------------
          |                Property Printout                |
           -------------------------------------------------

    * Orbital Energies and Occupations

         #    Occupation            Energy/Eh            Energy/eV
      -------------------------------------------------------------
         1        2.0000           -0.8952750             -24.3617
       ...           ...                  ...                  ...
        25        1.9995           -0.6652431             -18.1022
        26        1.9994           -0.6609507             -17.9854
        27        1.9989           -0.6466326             -17.5958
        28        1.9979           -0.6326487             -17.2152
        29        1.9979           -0.6316463             -17.1880
        30        1.9967           -0.6213083             -16.9067
        31        1.9946           -0.6094769             -16.5847
        32        1.9933           -0.6044234             -16.4472
        33        1.9904           -0.5959017             -16.2153
        34        1.9635           -0.5638717             -15.3437
        35        1.9517           -0.5570835             -15.1590
        36        1.9209           -0.5450183             -14.8307
        37        1.8495           -0.5288320             -14.3903 (HOMO)
        38        0.2405           -0.4219853             -11.4828 (LUMO)
        39        0.0670           -0.3894070             -10.5963
        40        0.0390           -0.3761740             -10.2362
        41        0.0006           -0.2746113              -7.4726
        42        0.0005           -0.2727444              -7.4218
        43        0.0000           -0.1879312              -5.1139
        44        0.0000           -0.1722788              -4.6879
        45        0.0000           -0.1521562              -4.1404
        46        0.0000           -0.1078102              -2.9337
        47                         -0.0502398              -1.3671
        48                         -0.0356702              -0.9706
       ...                                ...                  ...
        67                          0.5781725              15.7329
      -------------------------------------------------------------
                  HL-Gap            0.1068467 Eh            2.9074 eV
             Fermi-level           -0.4692467 Eh          -12.7689 eV

     #   Z          covCN         q      C6AA      α(0)
     1   6 C        3.691    -0.089    22.397     6.772
     2   7 N        2.823     0.068    20.057     6.652
     3   6 C        3.034     0.040    27.064     8.533
     4   7 N        2.789    -0.069    22.580     7.057
     5   6 C        3.033     0.112    25.505     8.284
     6   6 C        3.104    -0.014    28.235     8.707
     7   6 C        2.752     0.289    22.109     7.699
     8   8 O        0.857    -0.308    19.923     5.984
     9   7 N        1.834    -0.268    27.802     7.814
    10   6 C        3.608     0.014    20.874     6.600
    11   6 C        2.705     0.303    21.855     7.652
    12   8 O        1.692    -0.246    18.078     5.740
    13   7 N        2.741    -0.051    22.222     7.001
    14   6 C        3.696    -0.072    22.061     6.719
    15   1 H        0.924     0.105     1.738     2.062
    16   1 H        0.925     0.103     1.758     2.073
    17   1 H        0.925     0.132     1.518     1.927
    18   1 H        0.926     0.117     1.638     2.001
    19   1 H        0.925     0.105     1.737     2.061
    20   1 H        0.925     0.114     1.664     2.017
    21   1 H        0.925     0.113     1.674     2.024
    22   1 H        0.924     0.083     1.953     2.185
    23   1 H        0.924     0.083     1.952     2.185
    24   1 H        0.925     0.116     1.650     2.009
    25   1 H        0.860     0.222     1.001     1.567

 Mol. C6AA /au·bohr⁶  :       6535.361591
 Mol. C8AA /au·bohr⁸  :     149939.500808
 Mol. α(0) /au        :        123.325222


Wiberg/Mayer (AO) data.
largest (>0.10) Wiberg bond orders for each atom

 ---------------------------------------------------------------------------
     #   Z sym  total        # sym  WBO       # sym  WBO       # sym  WBO
 ---------------------------------------------------------------------------
     1   6 C    3.913 --     2 N    0.990    16 H    0.961    17 H    0.960
                            15 H    0.956
     2   7 N    3.611 --     3 C    1.343     6 C    1.150     1 C    0.990
     3   6 C    3.738 --     2 N    1.343     4 N    1.244    18 H    0.955
     4   7 N    3.538 --     3 C    1.244     5 C    1.185    25 H    0.922
     5   6 C    3.896 --     6 C    1.334    13 N    1.202     4 N    1.185
     6   6 C    3.847 --     5 C    1.334     2 N    1.150     7 C    1.079
     7   6 C    3.887 --     8 O    1.722     6 C    1.079     9 N    1.011
     8   8 O    1.997 --     7 C    1.722     9 N    0.105
     9   7 N    2.936 --    11 C    1.552     7 C    1.011    12 O    0.121
                             8 O    0.105
    10   6 C    3.841 --    19 H    0.976    21 H    0.966    20 H    0.966
                            12 O    0.885
    11   6 C    3.879 --     9 N    1.552    12 O    1.178    13 N    1.024
    12   8 O    2.291 --    11 C    1.178    10 C    0.885     9 N    0.121
    13   7 N    3.496 --     5 C    1.202    11 C    1.024    14 C    0.981
    14   6 C    3.928 --    13 N    0.981    22 H    0.967    23 H    0.967
                            24 H    0.966
    15   1 H    0.980 --     1 C    0.956
    16   1 H    0.982 --     1 C    0.961
    17   1 H    0.980 --     1 C    0.960
    18   1 H    0.985 --     3 C    0.955
    19   1 H    0.984 --    10 C    0.976
    20   1 H    0.980 --    10 C    0.966
    21   1 H    0.980 --    10 C    0.966
    22   1 H    0.986 --    14 C    0.967
    23   1 H    0.986 --    14 C    0.967
    24   1 H    0.984 --    14 C    0.966
    25   1 H    0.950 --     4 N    0.922
 ---------------------------------------------------------------------------

Topologies differ in total number of bonds
Writing topology from bond orders to xtbtopo.mol

molecular dipole:
                 x           y           z       tot (Debye)
 q only:        0.442      -2.556       0.027
   full:        0.413      -3.155       0.037       8.088
molecular quadrupole (traceless):
                xx          xy          yy          xz          yz          zz
 q only:       38.986     -13.074     -14.578       0.146       0.087     -24.408
  q+dip:       36.351     -16.266     -14.860       0.167       0.137     -21.490
   full:       36.156     -16.383     -16.077       0.151       0.161     -20.079

           -------------------------------------------------
          |                Geometry Summary                 |
           -------------------------------------------------

      molecular mass/u    :      195.1988581
   center of mass at/Å    :        0.2679600       0.1988132      -0.0033037
  moments of inertia/u·Å² :        0.3883935E+03   0.9729534E+03   0.1351653E+04
rotational constants/cm⁻¹ :        0.4340348E-01   0.1732625E-01   0.1247186E-01

 * 23 selected distances

     #   Z          #   Z                                           value/Å
     1   6 C        2   7 N                                       1.4369134
     2   7 N        3   6 C                                       1.3363422
     3   6 C        4   7 N                                       1.3593395
     4   7 N        5   6 C                                       1.3661187
     2   7 N        6   6 C                                       1.3762253
     5   6 C        6   6 C                                       1.3912538
     6   6 C        7   6 C                                       1.4417274
     7   6 C        8   8 O                                       1.2006658
     9   7 N       11   6 C                                       1.2928282
    11   6 C       12   8 O                                       1.3351222
     5   6 C       13   7 N                                       1.3526042
    13   7 N       14   6 C                                       1.4498183 (max)
     1   6 C       15   1 H                                       1.0917044
     1   6 C       16   1 H                                       1.0900643
     1   6 C       17   1 H                                       1.0896398
     3   6 C       18   1 H                                       1.0703538
    10   6 C       19   1 H                                       1.0883011
    10   6 C       20   1 H                                       1.0854614
    10   6 C       21   1 H                                       1.0861237
    14   6 C       22   1 H                                       1.0916072
    14   6 C       23   1 H                                       1.0916027
    14   6 C       24   1 H                                       1.0852590
     4   7 N       25   1 H                                       1.0084023 (min)

 * 5 distinct bonds (by element types)

   Z      Z             #   av. dist./Å        max./Å        min./Å
   1 H    6 C          10     1.0870117     1.0917044     1.0703538
   6 C    6 C           2     1.4164906     1.4417274     1.3912538
   1 H    7 N           1     1.0084023     1.0084023     1.0084023
   6 C    7 N           8     1.3712737     1.4498183     1.2928282
   6 C    8 O           2     1.2678940     1.3351222     1.2006658


optimized geometry written to: xtbopt.xyz


           -------------------------------------------------
          | TOTAL ENERGY              -42.197810443485 Eh   |
          | GRADIENT NORM               0.002055451500 Eh/α |
          | HOMO-LUMO GAP               2.907447262005 eV   |
           -------------------------------------------------

------------------------------------------------------------------------
 * finished run on 2024/06/05 at 19:58:50.579     
------------------------------------------------------------------------
 total:
 * wall-time:     0 d,  0 h,  0 min,  1.952 sec
 *  cpu-time:     0 d,  0 h,  0 min,  1.934 sec
 * ratio c/w:     0.991 speedup
 SCF:
 * wall-time:     0 d,  0 h,  0 min,  0.036 sec
 *  cpu-time:     0 d,  0 h,  0 min,  0.036 sec
 * ratio c/w:     0.998 speedup
 ANC optimizer:
 * wall-time:     0 d,  0 h,  0 min,  1.891 sec
 *  cpu-time:     0 d,  0 h,  0 min,  1.887 sec
 * ratio c/w:     0.998 speedup

