      -----------------------------------------------------------      
     |                   =====================                   |     
     |                           x T B                           |     
     |                   =====================                   |     
     |                         S. Grimme                         |     
     |          Mulliken Center for Theoretical Chemistry        |     
     |                    University of Bonn                     |     
      -----------------------------------------------------------      

   * xtb version 6.6.1 (8d0f1dd) compiled by 'conda@1efc2f54142f' on 2023-08-01

   xtb is free software: you can redistribute it and/or modify it under
   the terms of the GNU Lesser General Public License as published by
   the Free Software Foundation, either version 3 of the License, or
   (at your option) any later version.
   
   xtb is distributed in the hope that it will be useful,
   but WITHOUT ANY WARRANTY; without even the implied warranty of
   MERCHANTABILITY or FITNESS FOR A PARTICULAR PURPOSE.  See the
   GNU Lesser General Public License for more details.
   
   Cite this work as:
   * C. Bannwarth, E. Caldeweyher, S. Ehlert, A. Hansen, P. Pracht,
     J. Seibert, S. Spicher, S. Grimme, WIREs Comput. Mol. Sci., 2020, 11,
     e01493. DOI: 10.1002/wcms.1493
   
   for GFN2-xTB:
   * C. Bannwarth, S. Ehlert and S. Grimme., J. Chem. Theory Comput., 2019,
     15, 1652-1671. DOI: 10.1021/acs.jctc.8b01176
   for GFN1-xTB:
   * S. Grimme, C. Bannwarth, P. Shushkov, J. Chem. Theory Comput., 2017,
     13, 1989-2009. DOI: 10.1021/acs.jctc.7b00118
   for GFN0-xTB:
   * P. Pracht, E. Caldeweyher, S. Ehlert, S. Grimme, ChemRxiv, 2019, preprint.
     DOI: 10.26434/chemrxiv.8326202.v1
   for GFN-FF:
   * S. Spicher and S. Grimme, Angew. Chem. Int. Ed., 2020, 59, 15665-15673.
     DOI: 10.1002/anie.202004239
   
   for ALPB and GBSA implicit solvation:
   * S. Ehlert, M. Stahn, S. Spicher, S. Grimme, J. Chem. Theory Comput.,
     2021, 17, 4250-4261. DOI: 10.1021/acs.jctc.1c00471
   
   for DFT-D4:
   * E. Caldeweyher, C. Bannwarth and S. Grimme, J. Chem. Phys., 2017,
     147, 034112. DOI: 10.1063/1.4993215
   * E. Caldeweyher, S. Ehlert, A. Hansen, H. Neugebauer, S. Spicher,
     C. Bannwarth and S. Grimme, J. Chem. Phys., 2019, 150, 154122.
     DOI: 10.1063/1.5090222
   * E. Caldeweyher, J.-M. Mewes, S. Ehlert and S. Grimme, Phys. Chem. Chem. Phys.
     2020, 22, 8499-8512. DOI: 10.1039/D0CP00502A
   
   for sTDA-xTB:
   * S. Grimme and C. Bannwarth, J. Chem. Phys., 2016, 145, 054103.
     DOI: 10.1063/1.4959605
   
   in the mass-spec context:
   * V. Asgeirsson, C. Bauer and S. Grimme, Chem. Sci., 2017, 8, 4879.
     DOI: 10.1039/c7sc00601b
   * J. Koopman and S. Grimme, ACS Omega 2019, 4, 12, 15120-15133.
     DOI: 10.1021/acsomega.9b02011
   
   for metadynamics refer to:
   * S. Grimme, J. Chem. Theory Comput., 2019, 155, 2847-2862
     DOI: 10.1021/acs.jctc.9b00143
   
   for SPH calculations refer to:
   * S. Spicher and S. Grimme, J. Chem. Theory Comput., 2021, 17, 1701-1714
     DOI: 10.1021/acs.jctc.0c01306
   
   with help from (in alphabetical order)
   P. Atkinson, C. Bannwarth, F. Bohle, G. Brandenburg, E. Caldeweyher
   M. Checinski, S. Dohm, S. Ehlert, S. Ehrlich, I. Gerasimov, C. Hölzer
   A. Katbashev, J. Koopman, C. Lavigne, S. Lehtola, F. März, M. Müller,
   F. Musil, H. Neugebauer, J. Pisarek, C. Plett, P. Pracht, F. Pultar,
   J. Seibert, P. Shushkov, S. Spicher, M. Stahn, M. Steiner, T. Strunk,
   J. Stückrath, T. Rose, and J. Unsleber
   
 * started run on 2024/04/06 at 11:13:47.092     

           -------------------------------------------------
          |                Calculation Setup                |
           -------------------------------------------------

          program call               : xtb xtbopt.xyz --opt crude --input .xc2 --gfn2
          hostname                   : n-62-30-23
          coordinate file            : xtbopt.xyz
          omp threads                :                     1

   ID    Z sym.   atoms
    1    7 N      1, 17
    2    6 C      2-6, 8, 9, 11-16, 18-23, 25, 26, 28-33
    3    8 O      7, 10, 24, 27
    4    1 H      34-72

molecular fragmentation (1/2 indicates fragments):
111111111111111111122222222221111111111111111111111122222222211111111111
# atoms in fragment 1/2:    53    19
 fragment masses (1/2) :      318.45      137.16
CMA distance (Bohr)    :  18.936
constraining FC (au)   :  0.0500
########################################################################
[WARNING] Please study the warnings concerning your input carefully
-1- readin_getIntValue: could not parse ''
########################################################################

           -------------------------------------------------
          |                 G F N 2 - x T B                 |
           -------------------------------------------------

        Reference                      10.1021/acs.jctc.8b01176
      * Hamiltonian:
        H0-scaling (s, p, d)           1.850000    2.230000    2.230000
        zeta-weighting                 0.500000
      * Dispersion:
        s8                             2.700000
        a1                             0.520000
        a2                             5.000000
        s9                             5.000000
      * Repulsion:
        kExp                           1.500000    1.000000
        rExp                           1.000000
      * Coulomb:
        alpha                          2.000000
        third order                    shell-resolved
        anisotropic                    true
        a3                             3.000000
        a5                             4.000000
        cn-shift                       1.200000
        cn-exp                         4.000000
        max-rad                        5.000000

q/qsh data taken from xtbrestart
CAMM data taken from xtbrestart

          ...................................................
          :                      SETUP                      :
          :.................................................:
          :  # basis functions                 171          :
          :  # atomic orbitals                 171          :
          :  # shells                          105          :
          :  # electrons                       180          :
          :  max. iterations                   250          :
          :  Hamiltonian                  GFN2-xTB          :
          :  restarted?                       true          :
          :  GBSA solvation                  false          :
          :  PC potential                    false          :
          :  electronic temp.         5000.0000000     K    :
          :  accuracy                    1.0000000          :
          :  -> integral cutoff          0.2500000E+02      :
          :  -> integral neglect         0.1000000E-07      :
          :  -> SCF convergence          0.1000000E-05 Eh   :
          :  -> wf. convergence          0.1000000E-03 e    :
          :  Broyden damping             0.4000000          :
          ...................................................

 iter      E             dE          RMSdq      gap      omega  full diag
   1   -100.6286724 -0.100629E+03  0.351E-05    0.23       0.0  T
   2   -100.6286724  0.189075E-09  0.479E-05    0.23     246.1  T
   3   -100.6286724 -0.720490E-10  0.455E-05    0.23     258.7  T

   *** convergence criteria satisfied after 3 iterations ***

         #    Occupation            Energy/Eh            Energy/eV
      -------------------------------------------------------------
         1        2.0000           -0.8108759             -22.0651
       ...           ...                  ...                  ...
        84        1.9935           -0.5104905             -13.8912
        85        1.9793           -0.4920055             -13.3882
        86        1.9713           -0.4867915             -13.2463
        87        1.9280           -0.4718546             -12.8398
        88        1.8615           -0.4609381             -12.5428
        89        1.8027           -0.4548310             -12.3766
        90        1.2542           -0.4280292             -11.6473 (HOMO)
        91        0.9900           -0.4194824             -11.4147 (LUMO)
        92        0.2286           -0.3873808             -10.5412
        93        0.0123           -0.3393196              -9.2334
        94        0.0033           -0.3182587              -8.6603
        95        0.0027           -0.3151668              -8.5761
       ...           ...                  ...                  ...
       171                          0.5773268              15.7099
      -------------------------------------------------------------
                  HL-Gap            0.0085469 Eh            0.2326 eV
             Fermi-level           -0.4197984 Eh          -11.4233 eV

 SCC (total)                   0 d,  0 h,  0 min,  0.119 sec
 SCC setup                      ...        0 min,  0.001 sec (  1.247%)
 Dispersion                     ...        0 min,  0.002 sec (  1.679%)
 classical contributions        ...        0 min,  0.001 sec (  0.582%)
 integral evaluation            ...        0 min,  0.018 sec ( 15.025%)
 iterations                     ...        0 min,  0.027 sec ( 22.540%)
 molecular gradient             ...        0 min,  0.069 sec ( 58.357%)
 printout                       ...        0 min,  0.001 sec (  0.556%)

         :::::::::::::::::::::::::::::::::::::::::::::::::::::
         ::                     SUMMARY                     ::
         :::::::::::::::::::::::::::::::::::::::::::::::::::::
         :: total energy             -99.246590340045 Eh    ::
         :: gradient norm              0.002676596127 Eh/a0 ::
         :: HOMO-LUMO gap              0.232572203579 eV    ::
         ::.................................................::
         :: SCC energy              -100.628672354632 Eh    ::
         :: -> isotropic ES            0.107821847863 Eh    ::
         :: -> anisotropic ES          0.004611536194 Eh    ::
         :: -> anisotropic XC          0.047256121325 Eh    ::
         :: -> dispersion             -0.072594885833 Eh    ::
         :: repulsion energy           1.380640012563 Eh    ::
         :: add. restraining           0.000000000000 Eh    ::
         :: total charge               1.000000000002 e     ::
         :::::::::::::::::::::::::::::::::::::::::::::::::::::

      ----------------------------------------------------------- 
     |                   =====================                   |
     |                        A N C O P T                        |
     |                   =====================                   |
     |               Approximate Normal Coordinate               |
     |                Rational Function Optimizer                |
      ----------------------------------------------------------- 

          ...................................................
          :                      SETUP                      :
          :.................................................:
          :   optimization level             crude          :
          :   max. optcycles                   200          :
          :   ANC micro-cycles                  20          :
          :   degrees of freedom               210          :
          :.................................................:
          :   RF solver                   davidson          :
          :   write xtbopt.log                true          :
          :   linear?                        false          :
          :   energy convergence         0.5000000E-03 Eh   :
          :   grad. convergence          0.1000000E-01 Eh/α :
          :   maxmium RF displ.          1.0000000          :
          :   Hlow (freq-cutoff)         0.1000000E-01      :
          :   Hmax (freq-cutoff)         5.0000000          :
          :   S6 in model hess.         20.0000000          :
          ...................................................

generating ANC from model Hessian ...
Using Lindh-Hessian (1995)
 Shifting diagonal of input Hessian by    1.0039832365575966E-002
 Lowest  eigenvalues of input Hessian
    0.010000    0.010012    0.000000    0.000000    0.000000    0.000000
    0.000000    0.000000    0.010113    0.010137    0.010159    0.010174
    0.010344    0.010354    0.010514    0.010691    0.010829    0.010976
 Highest eigenvalues
    2.013278    2.041033    2.046275    2.108604    2.157704    2.180662


........................................................................
.............................. CYCLE    1 ..............................
........................................................................

 iter      E             dE          RMSdq      gap      omega  full diag
   1   -100.6286724 -0.100629E+03  0.158E-05    0.23       0.0  T
   2   -100.6286724  0.200657E-10  0.186E-05    0.23     634.6  T
   3   -100.6286724 -0.129603E-10  0.143E-05    0.23     821.6  T
     SCC iter.                  ...        0 min,  0.026 sec
     gradient                   ...        0 min,  0.068 sec
 * total energy  :   -99.2465903 Eh     change       -0.1611227E-09 Eh
   gradient norm :     0.0026768 Eh/α   predicted     0.0000000E+00 (-100.00%)
   displ. norm   :     0.0421532 α      lambda       -0.4575662E-04
   maximum displ.:     0.0186827 α      in ANC's #7, #9, #6, ...

   *** GEOMETRY OPTIMIZATION CONVERGED AFTER 1 ITERATIONS ***

------------------------------------------------------------------------
 total energy gain   :        -0.0000000 Eh       -0.0000 kcal/mol
 total RMSD          :         0.0000000 a0        0.0000 Å
 total power (kW/mol):        -0.0000004 (step)   -0.0000 (real)
------------------------------------------------------------------------

 ANCopt (total)                0 d,  0 h,  0 min,  0.178 sec
 optimizer setup                ...        0 min,  0.000 sec (  0.138%)
 model hessian                  ...        0 min,  0.053 sec ( 29.973%)
 ANC generation                 ...        0 min,  0.006 sec (  3.630%)
 coordinate transformation      ...        0 min,  0.000 sec (  0.027%)
 single point calculation       ...        0 min,  0.115 sec ( 64.775%)
 optimization log               ...        0 min,  0.002 sec (  1.107%)
 hessian update                 ...        0 min,  0.000 sec (  0.001%)
 rational function              ...        0 min,  0.000 sec (  0.107%)

================
 final structure:
================
72
 xtb: 6.6.1 (8d0f1dd)
N           -1.72111773518910        2.77764726359171        2.09489498881707
C           -1.81582684856402        1.99825337844959        1.12365477539827
C           -3.03369025650330        1.86482430901513        0.25007138650351
C           -3.58834985016519        0.45480723116392        0.36674035197336
C           -4.53507393316182       -0.00297973657664       -0.55205856798008
C           -5.07382017223319       -1.27613905101637       -0.46172449484850
O           -5.98460825331648       -1.79975039074896       -1.30746639556500
C           -6.50842487206726       -1.00102917841702       -2.34188775341506
C           -4.65951874607141       -2.13917488238670        0.58936260585613
O           -5.22742095954959       -3.36135010636469        0.59371676905005
C           -4.92171721118483       -4.25627037327445        1.63785811282385
C           -3.73160937432877       -1.67236811221163        1.50707940146260
C           -3.20449636419036       -0.39192080510033        1.39570706835481
C           -2.53749426955695        2.14240461918863       -1.19437229133720
C           -1.75471677785641        0.98878476815821       -1.84718053333355
C           -0.41607804568399        0.75108442314003       -1.25641594025587
N            0.07414726936655       -0.42054754093174       -0.92122665139374
C            1.53377976789364       -0.61624155697980       -0.72826414137680
C            2.06993953683766       -1.26530133538530       -1.92946186623228
C            4.91308734756175        0.72017625692613       -0.67598246973986
C            5.64984024610029        1.85971954752841       -0.78896605665166
C            6.97907501309606        1.80054949495373       -0.36044331284358
C            7.50228877705695        0.62119324735390        0.15225315968795
O            8.76557269003320        0.45498163419104        0.59551812322798
C            9.66258653294819        1.54027352529858        0.54162228721085
C            6.68738660125098       -0.54345066573179        0.24102980813557
O            7.28785292046214       -1.63596672440537        0.74641371229156
C            6.55827774568324       -2.83286202297633        0.86873495848056
C            5.36000110145917       -0.47408848038119       -0.18935179153519
C           -0.72512991835377       -1.62288917963240       -0.94399124707188
C           -4.17382344431541        2.86023235548808        0.61856642427288
C           -4.71216684625462        2.59717729301911        2.02301251269001
C           -3.75981688958006        4.32366728484461        0.49276573572331
H           -4.86517918149871        0.65212893921225       -1.34134311098944
H           -7.01459724454417       -0.11461160490444       -1.94787775033474
H           -7.23263256062253       -1.62951351449140       -2.85640527123074
H           -5.73014453480382       -0.69553961800362       -3.04899379159170
H           -5.19692000878420       -3.84370673992559        2.61309089704293
H           -5.51578698696473       -5.14688483284136        1.44243847641916
H           -3.85977718953905       -4.52301333269336        1.63997470651266
H           -3.41523168790766       -2.29620341214121        2.32696936197696
H           -2.50363988007370       -0.05380552258555        2.14318703146550
H           -3.39990724835405        2.35814975001669       -1.82446747844624
H           -1.91004120650614        3.03432382714918       -1.17979062035719
H           -2.35995434991098        0.08434722500537       -1.83820429806559
H           -1.59243446927183        1.27571755352247       -2.89393308272420
H           -0.99004008139996        1.35269848910473        0.77011308706345
H            0.26305668648523        1.59134285110676       -1.21879060789120
H            1.65609767508011       -1.22957692288891        0.16930895389011
H            1.98539255260162        0.36444113927355       -0.56052408355725
H            2.31538710383923       -0.67297798997727       -2.78956172721540
H            2.02337966395621       -2.33065500488594       -2.04136275054089
H            5.24985135763340        2.77688203045270       -1.18998428503633
H            7.58451764159961        2.68890009165523       -0.43995476845819
H            9.31305779469220        2.37986143625408        1.15048185760172
H            9.82335048958410        1.87547251266368       -0.48754840820512
H           10.59870336205379        1.16355986993764        0.94944002871466
H            7.25382788825091       -3.55865674752005        1.28666581870318
H            5.70791834514633       -2.71410082872226        1.54777521991966
H            6.20510868410966       -3.18887381743438       -0.10449127507042
H            4.71666618557941       -1.33826010776005       -0.14519023828586
H           -1.01466987686238       -1.89773597393124       -1.95982666958398
H           -1.62666618922082       -1.48189938183596       -0.34421131552053
H           -0.14563920049425       -2.43897058190978       -0.51954998131602
H           -4.98676427635054        2.67342550184483       -0.09293138245214
H           -3.93719999214753        2.78401335700152        2.75952715794151
H           -5.05998211275668        1.57222036437448        2.12654707197170
H           -5.54698626438972        3.26316135456620        2.22370500207892
H           -2.92844381843977        4.53750138708328        1.15733337495402
H           -3.48233823940951        4.58264812567963       -0.52544009565329
H           -4.59604261142047        4.95556333396977        0.78050075175544
H           -0.83771540358020        2.80931982721281        2.59438036866594

 Bond Distances (Angstroems)
 ---------------------------
N1-C2=1.2489         N1-H72=1.0153        C2-N1=1.2489         C2-C3=1.5047         C2-H47=1.1062        C3-C2=1.5047         
C3-C4=1.5197         C3-C14=1.5523        C3-C31=1.5577        C4-C3=1.5197         C4-C5=1.3964         C4-C13=1.3867        
C5-C4=1.3964         C5-C6=1.3854         C5-H34=1.0775        C6-C5=1.3854         C6-O7=1.3487         C6-C9=1.4217         
O7-C6=1.3487         O7-C8=1.4080         C8-O7=1.4080         C8-H35=1.0942        C8-H36=1.0882        C8-H37=1.0950        
C9-C6=1.4217         C9-O10=1.3477        C9-C12=1.3860        O10-C9=1.3477        O10-C11=1.4087       C11-O10=1.4087       
C11-H38=1.0941       C11-H39=1.0883       C11-H40=1.0949       C12-C9=1.3860        C12-C13=1.3892       C12-H41=1.0777       
C13-C4=1.3867        C13-C12=1.3892       C13-H42=1.0790       C14-C3=1.5523        C14-C15=1.5394       C14-H43=1.0896       
C14-H44=1.0906       C15-C14=1.5394       C15-C16=1.4824       C15-H45=1.0883       C15-H46=1.0974       C16-C15=1.4824       
C16-N17=1.3135       C16-H48=1.0811       N17-C16=1.3135       N17-C18=1.4853       N17-C30=1.4439       C18-N17=1.4853       
C18-C19=1.4668       C18-H49=1.0940       C18-H50=1.0926       C19-C18=1.4668       C19-H51=1.0728       C19-H52=1.0722       
C20-C21=1.3617       C20-C29=1.3648       C21-C20=1.3617       C21-C22=1.3979       C21-H53=1.0780       C22-C21=1.3979       
C22-C23=1.3883       C22-H54=1.0780       C23-C22=1.3883       C23-O24=1.3491       C23-C26=1.4242       O24-C23=1.3491       
O24-C25=1.4090       C25-O24=1.4090       C25-H55=1.0944       C25-H56=1.0943       C25-H57=1.0884       C26-C23=1.4242       
C26-O27=1.3452       C26-C29=1.3971       O27-C26=1.3452       O27-C28=1.4071       C28-O27=1.4071       C28-H58=1.0887       
C28-H59=1.0947       C28-H60=1.0948       C29-C20=1.3648       C29-C26=1.3971       C29-H61=1.0782       C30-N17=1.4439       
C30-H62=1.0915       C30-H63=1.0920       C30-H64=1.0872       C31-C3=1.5577        C31-C32=1.5269       C31-C33=1.5261       
C31-H65=1.0964       C32-C31=1.5269       C32-H66=1.0853       C32-H67=1.0873       C32-H68=1.0866       C33-C31=1.5261       
C33-H69=1.0856       C33-H70=1.0867       C33-H71=1.0869       H34-C5=1.0775        H35-C8=1.0942        H36-C8=1.0882        
H37-C8=1.0950        H38-C11=1.0941       H39-C11=1.0883       H40-C11=1.0949       H41-C12=1.0777       H42-C13=1.0790       
H43-C14=1.0896       H44-C14=1.0906       H45-C15=1.0883       H46-C15=1.0974       H47-C2=1.1062        H48-C16=1.0811       
H49-C18=1.0940       H50-C18=1.0926       H51-C19=1.0728       H52-C19=1.0722       H53-C21=1.0780       H54-C22=1.0780       
H55-C25=1.0944       H56-C25=1.0943       H57-C25=1.0884       H58-C28=1.0887       H59-C28=1.0947       H60-C28=1.0948       
H61-C29=1.0782       H62-C30=1.0915       H63-C30=1.0920       H64-C30=1.0872       H65-C31=1.0964       H66-C32=1.0853       
H67-C32=1.0873       H68-C32=1.0866       H69-C33=1.0856       H70-C33=1.0867       H71-C33=1.0869       H72-N1=1.0153        
 C  H  Rav=1.0881 sigma=0.0074  Rmin=1.0722  Rmax=1.1062    38
 C  C  Rav=1.4465 sigma=0.0674  Rmin=1.3617  Rmax=1.5577    21
 N  H  Rav=1.0153 sigma=0.0000  Rmin=1.0153  Rmax=1.0153     1
 N  C  Rav=1.3729 sigma=0.0956  Rmin=1.2489  Rmax=1.4853     4
 O  C  Rav=1.3779 sigma=0.0303  Rmin=1.3452  Rmax=1.4090     8

 selected bond angles (degree)
 --------------------
H72-N1-C2=117.91               C3-C2-N1=124.63                H47-C2-N1=123.79               H47-C2-C3=111.52               
C4-C3-C2=109.46                C14-C3-C2=105.41               C14-C3-C4=110.73               C31-C3-C2=113.48               
C31-C3-C4=107.91               C31-C3-C14=109.87              C5-C4-C3=120.07                C13-C4-C3=121.50               
C13-C4-C5=118.40               C6-C5-C4=121.47                H34-C5-C4=119.36               H34-C5-C6=119.17               
O7-C6-C5=125.35                C9-C6-C5=119.52                C9-C6-O7=115.13                C8-O7-C6=119.45                
H35-C8-O7=111.54               H36-C8-O7=105.51               H36-C8-H35=109.29              H37-C8-O7=111.61               
H37-C8-H35=109.59              H37-C8-H36=109.20              O10-C9-C6=115.47               C12-C9-C6=118.70               
C12-C9-O10=125.83              C11-O10-C9=119.15              

 selected dihedral angles (degree)
 ---------------------------------
C3-C2-N1-H72=182.23           H47-C2-N1-H72=359.16          C4-C3-C2-N1=242.54            C4-C3-C2-H47= 65.29           
C14-C3-C2-N1=123.41           C14-C3-C2-H47=306.16          C31-C3-C2-N1=  3.15           C31-C3-C2-H47=185.89          
C5-C4-C3-C2=193.67            C5-C4-C3-C14=309.45           C5-C4-C3-C31= 69.73           C13-C4-C3-C2= 15.50           
C13-C4-C3-C14=131.29          C13-C4-C3-C31=251.57          C6-C5-C4-C3=180.92            C6-C5-C4-C13=359.15           
H34-C5-C4-C3=  0.06           H34-C5-C4-C13=178.28          O7-C6-C5-C4=180.37            O7-C6-C5-H34=  1.23           
C9-C6-C5-C4=  0.14            C9-C6-C5-H34=181.00           C8-O7-C6-C5=356.60            C8-O7-C6-C9=176.82            
H35-C8-O7-C6=300.28           H36-C8-O7-C6=181.73           H37-C8-O7-C6= 63.25           O10-C9-C6-C5=180.49           
O10-C9-C6-O7=  0.28           C12-C9-C6-C5=  0.64           C12-C9-C6-O7=180.43           C11-O10-C9-C6=183.05          
C11-O10-C9-C12=  2.89         

 CMA Distance (Angstroems)
 ---------------------------
R(CMA): 10.0207
           -------------------------------------------------
          |                Final Singlepoint                |
           -------------------------------------------------

          ...................................................
          :                      SETUP                      :
          :.................................................:
          :  # basis functions                 171          :
          :  # atomic orbitals                 171          :
          :  # shells                          105          :
          :  # electrons                       180          :
          :  max. iterations                   250          :
          :  Hamiltonian                  GFN2-xTB          :
          :  restarted?                      false          :
          :  GBSA solvation                  false          :
          :  PC potential                    false          :
          :  electronic temp.         5000.0000000     K    :
          :  accuracy                    1.0000000          :
          :  -> integral cutoff          0.2500000E+02      :
          :  -> integral neglect         0.1000000E-07      :
          :  -> SCF convergence          0.1000000E-05 Eh   :
          :  -> wf. convergence          0.1000000E-03 e    :
          :  Broyden damping             0.4000000          :
          ...................................................

 iter      E             dE          RMSdq      gap      omega  full diag
   1   -100.6286724 -0.100629E+03  0.134E-05    0.23       0.0  T
   2   -100.6286724  0.248448E-09  0.503E-05    0.23     234.4  T
   3   -100.6286724 -0.261835E-09  0.555E-06    0.23    2121.8  T

   *** convergence criteria satisfied after 3 iterations ***

         #    Occupation            Energy/Eh            Energy/eV
      -------------------------------------------------------------
         1        2.0000           -0.8108759             -22.0651
       ...           ...                  ...                  ...
        84        1.9935           -0.5104905             -13.8912
        85        1.9793           -0.4920055             -13.3882
        86        1.9713           -0.4867913             -13.2463
        87        1.9280           -0.4718546             -12.8398
        88        1.8615           -0.4609381             -12.5428
        89        1.8027           -0.4548308             -12.3766
        90        1.2542           -0.4280298             -11.6473 (HOMO)
        91        0.9900           -0.4194819             -11.4147 (LUMO)
        92        0.2286           -0.3873810             -10.5412
        93        0.0123           -0.3393196              -9.2334
        94        0.0033           -0.3182587              -8.6603
        95        0.0027           -0.3151669              -8.5761
       ...           ...                  ...                  ...
       171                          0.5773271              15.7099
      -------------------------------------------------------------
                  HL-Gap            0.0085479 Eh            0.2326 eV
             Fermi-level           -0.4197984 Eh          -11.4233 eV

 SCC (total)                   0 d,  0 h,  0 min,  0.114 sec
 SCC setup                      ...        0 min,  0.001 sec (  0.766%)
 Dispersion                     ...        0 min,  0.001 sec (  1.079%)
 classical contributions        ...        0 min,  0.000 sec (  0.386%)
 integral evaluation            ...        0 min,  0.017 sec ( 14.659%)
 iterations                     ...        0 min,  0.026 sec ( 22.659%)
 molecular gradient             ...        0 min,  0.068 sec ( 59.862%)
 printout                       ...        0 min,  0.001 sec (  0.575%)

         :::::::::::::::::::::::::::::::::::::::::::::::::::::
         ::                     SUMMARY                     ::
         :::::::::::::::::::::::::::::::::::::::::::::::::::::
         :: total energy             -99.246590340222 Eh    ::
         :: gradient norm              0.002676772291 Eh/a0 ::
         :: HOMO-LUMO gap              0.232601379181 eV    ::
         ::.................................................::
         :: SCC energy              -100.628672354809 Eh    ::
         :: -> isotropic ES            0.107821584204 Eh    ::
         :: -> anisotropic ES          0.004611592654 Eh    ::
         :: -> anisotropic XC          0.047256100593 Eh    ::
         :: -> dispersion             -0.072594883025 Eh    ::
         :: repulsion energy           1.380640012563 Eh    ::
         :: add. restraining           0.000000000000 Eh    ::
         :: total charge               1.000000000002 e     ::
         :::::::::::::::::::::::::::::::::::::::::::::::::::::

           -------------------------------------------------
          |                Property Printout                |
           -------------------------------------------------

    * Orbital Energies and Occupations

         #    Occupation            Energy/Eh            Energy/eV
      -------------------------------------------------------------
         1        2.0000           -0.8108759             -22.0651
       ...           ...                  ...                  ...
        78        1.9981           -0.5297361             -14.4149
        79        1.9979           -0.5284709             -14.3804
        80        1.9971           -0.5235010             -14.2452
        81        1.9968           -0.5217227             -14.1968
        82        1.9953           -0.5155824             -14.0297
        83        1.9945           -0.5131288             -13.9629
        84        1.9935           -0.5104905             -13.8912
        85        1.9793           -0.4920055             -13.3882
        86        1.9713           -0.4867913             -13.2463
        87        1.9280           -0.4718546             -12.8398
        88        1.8615           -0.4609381             -12.5428
        89        1.8027           -0.4548308             -12.3766
        90        1.2542           -0.4280298             -11.6473 (HOMO)
        91        0.9900           -0.4194819             -11.4147 (LUMO)
        92        0.2286           -0.3873810             -10.5412
        93        0.0123           -0.3393196              -9.2334
        94        0.0033           -0.3182587              -8.6603
        95        0.0027           -0.3151669              -8.5761
        96        0.0024           -0.3130477              -8.5185
        97        0.0010           -0.2990643              -8.1380
        98        0.0000           -0.1926674              -5.2427
        99        0.0000           -0.1782739              -4.8511
       100                         -0.1374377              -3.7399
       101                         -0.0684247              -1.8619
       ...                                ...                  ...
       171                          0.5773271              15.7099
      -------------------------------------------------------------
                  HL-Gap            0.0085479 Eh            0.2326 eV
             Fermi-level           -0.4197984 Eh          -11.4233 eV

     #   Z          covCN         q      C6AA      α(0)
     1   7 N        1.774    -0.267    27.758     7.802
     2   6 C        2.828     0.101    25.748     8.315
     3   6 C        3.907     0.006    20.413     6.422
     4   6 C        2.974     0.002    27.984     8.677
     5   6 C        2.920    -0.081    30.015     8.984
     6   6 C        2.862     0.129    25.169     8.223
     7   8 O        1.706    -0.229    17.797     5.696
     8   6 C        3.644     0.027    20.453     6.501
     9   6 C        2.864     0.129    25.181     8.225
    10   8 O        1.706    -0.227    17.769     5.691
    11   6 C        3.645     0.026    20.467     6.502
    12   6 C        2.913    -0.074    29.848     8.959
    13   6 C        2.921    -0.052    29.295     8.876
    14   6 C        3.812    -0.064    21.718     6.633
    15   6 C        3.802    -0.070    21.846     6.654
    16   6 C        2.839     0.017    27.632     8.615
    17   7 N        2.732     0.014    21.016     6.809
    18   6 C        3.747    -0.007    20.773     6.501
    19   6 C        2.838    -0.135    31.447     9.190
    20   6 C        2.018    -0.069    32.891     9.262
    21   6 C        2.911    -0.026    28.650     8.777
    22   6 C        2.927    -0.061    29.521     8.910
    23   6 C        2.861     0.131    25.127     8.216
    24   8 O        1.706    -0.224    17.710     5.682
    25   6 C        3.644     0.025    20.490     6.506
    26   6 C        2.874     0.138    24.991     8.195
    27   8 O        1.706    -0.217    17.605     5.665
    28   6 C        3.645     0.027    20.455     6.500
    29   6 C        2.909    -0.059    29.462     8.900
    30   6 C        3.700    -0.069    21.980     6.705
    31   6 C        3.853    -0.007    20.668     6.466
    32   6 C        3.756    -0.118    22.823     6.812
    33   6 C        3.755    -0.120    22.849     6.816
    34   1 H        0.926     0.052     2.290     2.366
    35   1 H        0.924     0.055     2.264     2.353
    36   1 H        0.925     0.082     1.960     2.189
    37   1 H        0.924     0.047     2.358     2.401
    38   1 H        0.924     0.056     2.246     2.344
    39   1 H        0.925     0.082     1.960     2.189
    40   1 H        0.924     0.049     2.332     2.388
    41   1 H        0.926     0.054     2.272     2.357
    42   1 H        0.926     0.042     2.428     2.437
    43   1 H        0.925     0.062     2.180     2.309
    44   1 H        0.924     0.055     2.260     2.351
    45   1 H        0.925     0.066     2.128     2.281
    46   1 H        0.924     0.082     1.961     2.190
    47   1 H        0.922     0.007     2.939     2.681
    48   1 H        0.926     0.073     2.049     2.238
    49   1 H        0.924     0.064     2.158     2.297
    50   1 H        0.924     0.069     2.094     2.263
    51   1 H        0.926     0.045     2.380     2.412
    52   1 H        0.926     0.044     2.392     2.419
    53   1 H        0.926     0.062     2.173     2.305
    54   1 H        0.926     0.067     2.120     2.277
    55   1 H        0.924     0.056     2.252     2.347
    56   1 H        0.924     0.057     2.240     2.341
    57   1 H        0.925     0.083     1.947     2.182
    58   1 H        0.925     0.083     1.944     2.181
    59   1 H        0.924     0.052     2.295     2.369
    60   1 H        0.924     0.055     2.256     2.349
    61   1 H        0.926     0.060     2.202     2.321
    62   1 H        0.924     0.076     2.017     2.221
    63   1 H        0.924     0.078     1.996     2.209
    64   1 H        0.925     0.084     1.937     2.176
    65   1 H        0.924     0.038     2.481     2.463
    66   1 H        0.925     0.068     2.107     2.270
    67   1 H        0.925     0.036     2.509     2.477
    68   1 H        0.925     0.052     2.295     2.369
    69   1 H        0.925     0.063     2.161     2.299
    70   1 H        0.925     0.036     2.507     2.476
    71   1 H        0.925     0.055     2.258     2.350
    72   1 H        0.860     0.158     1.347     1.818

 Mol. C6AA /au·bohr⁶  :      47895.439377
 Mol. C8AA /au·bohr⁸  :    1093989.962359
 Mol. α(0) /au        :        336.953690


Wiberg/Mayer (AO) data.
largest (>0.10) Wiberg bond orders for each atom

 ---------------------------------------------------------------------------
     #   Z sym  total        # sym  WBO       # sym  WBO       # sym  WBO
 ---------------------------------------------------------------------------
     1   7 N    3.035 --     2 C    1.957    72 H    0.941
     2   6 C    3.933 --     1 N    1.957     3 C    0.993    47 H    0.905
     3   6 C    3.975 --     2 C    0.993     4 C    0.973    14 C    0.955
                            31 C    0.942
     4   6 C    3.947 --    13 C    1.411     5 C    1.369     3 C    0.973
     5   6 C    3.961 --     6 C    1.399     4 C    1.369    34 H    0.958
     6   6 C    3.903 --     5 C    1.399     9 C    1.221     7 O    1.100
     7   8 O    2.254 --     6 C    1.100     8 C    0.978
     8   6 C    3.931 --     7 O    0.978    36 H    0.977    37 H    0.973
                            35 H    0.973
     9   6 C    3.899 --    12 C    1.390     6 C    1.221    10 O    1.103
    10   8 O    2.253 --     9 C    1.103    11 C    0.977
    11   6 C    3.930 --    10 O    0.977    39 H    0.977    40 H    0.973
                            38 H    0.973
    12   6 C    3.961 --    13 C    1.404     9 C    1.390    41 H    0.963
    13   6 C    3.952 --     4 C    1.411    12 C    1.404    42 H    0.962
    14   6 C    3.975 --    15 C    0.981    44 H    0.972    43 H    0.968
                             3 C    0.955
    15   6 C    3.983 --    16 C    1.053    14 C    0.981    45 H    0.962
                            46 H    0.928
    16   6 C    3.689 --    17 N    1.476    15 C    1.053    48 H    0.955
    17   7 N    3.496 --    16 C    1.476    30 C    0.998    18 C    0.905
    18   6 C    3.945 --    19 C    1.072    49 H    0.961    50 H    0.961
                            17 N    0.905
    19   6 C    3.152 --    18 C    1.072    52 H    0.984    51 H    0.984
    20   6 C    3.053 --    21 C    1.458    29 C    1.446
    21   6 C    3.898 --    20 C    1.458    22 C    1.352    53 H    0.958
    22   6 C    3.895 --    23 C    1.392    21 C    1.352    54 H    0.953
    23   6 C    3.884 --    22 C    1.392    26 C    1.220    24 O    1.103
    24   8 O    2.236 --    23 C    1.103    25 C    0.976
    25   6 C    3.926 --    57 H    0.976    24 O    0.976    55 H    0.972
                            56 H    0.972
    26   6 C    3.837 --    29 C    1.333    23 C    1.220    27 O    1.106
    27   8 O    2.250 --    26 C    1.106    28 C    0.976
    28   6 C    3.927 --    27 O    0.976    58 H    0.976    59 H    0.973
                            60 H    0.972
    29   6 C    3.924 --    20 C    1.446    26 C    1.333    61 H    0.949
    30   6 C    3.955 --    17 N    0.998    64 H    0.976    62 H    0.966
                            63 H    0.961
    31   6 C    3.971 --    33 C    1.008    32 C    1.008    65 H    0.960
                             3 C    0.942
    32   6 C    3.978 --    31 C    1.008    67 H    0.982    68 H    0.981
                            66 H    0.974
    33   6 C    3.980 --    31 C    1.008    70 H    0.983    71 H    0.980
                            69 H    0.975
    34   1 H    0.996 --     5 C    0.958
    35   1 H    0.993 --     8 C    0.973
    36   1 H    0.993 --     8 C    0.977
    37   1 H    0.994 --     8 C    0.973
    38   1 H    0.992 --    11 C    0.973
    39   1 H    0.993 --    11 C    0.977
    40   1 H    0.993 --    11 C    0.973
    41   1 H    0.995 --    12 C    0.963
    42   1 H    0.998 --    13 C    0.962
    43   1 H    0.995 --    14 C    0.968
    44   1 H    0.996 --    14 C    0.972
    45   1 H    0.995 --    15 C    0.962
    46   1 H    0.975 --    15 C    0.928
    47   1 H    0.985 --     2 C    0.905
    48   1 H    0.994 --    16 C    0.955
    49   1 H    0.985 --    18 C    0.961
    50   1 H    0.986 --    18 C    0.961
    51   1 H    0.997 --    19 C    0.984
    52   1 H    0.997 --    19 C    0.984
    53   1 H    0.984 --    21 C    0.958
    54   1 H    0.983 --    22 C    0.953
    55   1 H    0.990 --    25 C    0.972
    56   1 H    0.990 --    25 C    0.972
    57   1 H    0.992 --    25 C    0.976
    58   1 H    0.992 --    28 C    0.976
    59   1 H    0.992 --    28 C    0.973
    60   1 H    0.991 --    28 C    0.972
    61   1 H    0.981 --    29 C    0.949
    62   1 H    0.986 --    30 C    0.966
    63   1 H    0.990 --    30 C    0.961
    64   1 H    0.992 --    30 C    0.976
    65   1 H    0.992 --    31 C    0.960
    66   1 H    0.991 --    32 C    0.974
    67   1 H    0.996 --    32 C    0.982
    68   1 H    0.994 --    32 C    0.981
    69   1 H    0.992 --    33 C    0.975
    70   1 H    0.997 --    33 C    0.983
    71   1 H    0.993 --    33 C    0.980
    72   1 H    0.969 --     1 N    0.941
 ---------------------------------------------------------------------------

Topologies differ in total number of bonds
Writing topology from bond orders to xtbtopo.mol

molecular dipole:
                 x           y           z       tot (Debye)
 q only:        0.558      -0.101      -0.640
   full:        0.924      -0.174      -0.795       3.130
molecular quadrupole (traceless):
                xx          xy          yy          xz          yz          zz
 q only:       65.873      10.308     -21.616      10.164      -9.738     -44.257
  q+dip:       63.041      15.429     -21.673      12.728     -13.688     -41.368
   full:       63.165      14.996     -23.072      10.628     -13.352     -40.093

           -------------------------------------------------
          |                Geometry Summary                 |
           -------------------------------------------------

      molecular mass/u    :      455.6105846
   center of mass at/Å    :        0.0271482       0.0405015       0.0159175
  moments of inertia/u·Å² :        0.2469406E+04   0.1225987E+05   0.1346191E+05
rotational constants/cm⁻¹ :        0.6826594E-02   0.1375025E-02   0.1252246E-02

 * 65 selected distances

     #   Z          #   Z                                           value/Å
     1   7 N        2   6 C                                       1.2488925
     4   6 C        5   6 C                                       1.3964409
     5   6 C        6   6 C                                       1.3854035
     6   6 C        7   8 O                                       1.3486970
     7   8 O        8   6 C                                       1.4079657
     6   6 C        9   6 C                                       1.4217106
     9   6 C       10   8 O                                       1.3476812
    10   8 O       11   6 C                                       1.4087472
     9   6 C       12   6 C                                       1.3860479
     4   6 C       13   6 C                                       1.3867461
    12   6 C       13   6 C                                       1.3891715
    14   6 C       15   6 C                                       1.5393955 (max)
    15   6 C       16   6 C                                       1.4823827
    16   6 C       17   7 N                                       1.3135427
    18   6 C       19   6 C                                       1.4668409
    20   6 C       21   6 C                                       1.3616642
    21   6 C       22   6 C                                       1.3978549
    22   6 C       23   6 C                                       1.3883414
    23   6 C       24   8 O                                       1.3490725
    24   8 O       25   6 C                                       1.4090413
    23   6 C       26   6 C                                       1.4241990
    26   6 C       27   8 O                                       1.3452005
    27   8 O       28   6 C                                       1.4070541
    20   6 C       29   6 C                                       1.3648480
    26   6 C       29   6 C                                       1.3971371
    17   7 N       30   6 C                                       1.4439488
    31   6 C       32   6 C                                       1.5269187
    31   6 C       33   6 C                                       1.5260634
     5   6 C       34   1 H                                       1.0775468
     8   6 C       35   1 H                                       1.0941621
     8   6 C       36   1 H                                       1.0882085
     8   6 C       37   1 H                                       1.0950084
    11   6 C       38   1 H                                       1.0940862
    11   6 C       39   1 H                                       1.0882564
    11   6 C       40   1 H                                       1.0949306
    12   6 C       41   1 H                                       1.0777222
    13   6 C       42   1 H                                       1.0790034
    14   6 C       43   1 H                                       1.0896432
    14   6 C       44   1 H                                       1.0906100
    15   6 C       45   1 H                                       1.0883017
    15   6 C       46   1 H                                       1.0974320
    16   6 C       48   1 H                                       1.0810523
    18   6 C       49   1 H                                       1.0939742
    18   6 C       50   1 H                                       1.0926251
    19   6 C       51   1 H                                       1.0727830
    19   6 C       52   1 H                                       1.0722259 (min)
    21   6 C       53   1 H                                       1.0779582
    22   6 C       54   1 H                                       1.0779842
    25   6 C       55   1 H                                       1.0944352
    25   6 C       56   1 H                                       1.0942559
    25   6 C       57   1 H                                       1.0883673
    28   6 C       58   1 H                                       1.0886847
    28   6 C       59   1 H                                       1.0946740
    28   6 C       60   1 H                                       1.0948252
    29   6 C       61   1 H                                       1.0782499
    30   6 C       62   1 H                                       1.0914651
    30   6 C       63   1 H                                       1.0919624
    30   6 C       64   1 H                                       1.0871748
    31   6 C       65   1 H                                       1.0963571
    32   6 C       66   1 H                                       1.0853273
    32   6 C       67   1 H                                       1.0873048
    32   6 C       68   1 H                                       1.0866167
    33   6 C       69   1 H                                       1.0856135
    33   6 C       70   1 H                                       1.0866503
    33   6 C       71   1 H                                       1.0869028

 * 4 distinct bonds (by element types)

   Z      Z             #   av. dist./Å        max./Å        min./Å
   1 H    6 C          37     1.0876319     1.0974320     1.0722259
   6 C    6 C          17     1.4259509     1.5393955     1.3616642
   6 C    7 N           3     1.3354613     1.4439488     1.2488925
   6 C    8 O           8     1.3779324     1.4090413     1.3452005


optimized geometry written to: xtbopt.xyz


           -------------------------------------------------
          | TOTAL ENERGY              -99.246590340222 Eh   |
          | GRADIENT NORM               0.002676772291 Eh/α |
          | HOMO-LUMO GAP               0.232601379181 eV   |
           -------------------------------------------------

------------------------------------------------------------------------
 * finished run on 2024/04/06 at 11:13:47.557     
------------------------------------------------------------------------
 total:
 * wall-time:     0 d,  0 h,  0 min,  0.465 sec
 *  cpu-time:     0 d,  0 h,  0 min,  0.437 sec
 * ratio c/w:     0.940 speedup
 SCF:
 * wall-time:     0 d,  0 h,  0 min,  0.119 sec
 *  cpu-time:     0 d,  0 h,  0 min,  0.119 sec
 * ratio c/w:     1.000 speedup
 ANC optimizer:
 * wall-time:     0 d,  0 h,  0 min,  0.299 sec
 *  cpu-time:     0 d,  0 h,  0 min,  0.292 sec
 * ratio c/w:     0.978 speedup

