72
 energy: -99.246590340206 gnorm: 0.002676848470 xtb: 6.6.1 (8d0f1dd)
N           -1.72111773518910        2.77764726359171        2.09489498881707
C           -1.81582684856402        1.99825337844959        1.12365477539827
C           -3.03369025650330        1.86482430901513        0.25007138650351
C           -3.58834985016519        0.45480723116392        0.36674035197336
C           -4.53507393316182       -0.00297973657664       -0.55205856798008
C           -5.07382017223319       -1.27613905101637       -0.46172449484850
O           -5.98460825331648       -1.79975039074896       -1.30746639556500
C           -6.50842487206726       -1.00102917841702       -2.34188775341506
C           -4.65951874607141       -2.13917488238670        0.58936260585613
O           -5.22742095954959       -3.36135010636469        0.59371676905005
C           -4.92171721118483       -4.25627037327445        1.63785811282385
C           -3.73160937432877       -1.67236811221163        1.50707940146260
C           -3.20449636419036       -0.39192080510033        1.39570706835481
C           -2.53749426955695        2.14240461918863       -1.19437229133720
C           -1.75471677785641        0.98878476815821       -1.84718053333355
C           -0.41607804568399        0.75108442314003       -1.25641594025587
N            0.07414726936655       -0.42054754093174       -0.92122665139374
C            1.53377976789364       -0.61624155697980       -0.72826414137680
C            2.06993953683766       -1.26530133538530       -1.92946186623228
C            4.91308734756175        0.72017625692613       -0.67598246973986
C            5.64984024610029        1.85971954752841       -0.78896605665166
C            6.97907501309606        1.80054949495373       -0.36044331284358
C            7.50228877705695        0.62119324735390        0.15225315968795
O            8.76557269003320        0.45498163419104        0.59551812322798
C            9.66258653294819        1.54027352529858        0.54162228721085
C            6.68738660125098       -0.54345066573179        0.24102980813557
O            7.28785292046214       -1.63596672440537        0.74641371229156
C            6.55827774568324       -2.83286202297633        0.86873495848056
C            5.36000110145917       -0.47408848038119       -0.18935179153519
C           -0.72512991835377       -1.62288917963240       -0.94399124707188
C           -4.17382344431541        2.86023235548808        0.61856642427288
C           -4.71216684625462        2.59717729301911        2.02301251269001
C           -3.75981688958006        4.32366728484461        0.49276573572331
H           -4.86517918149871        0.65212893921225       -1.34134311098944
H           -7.01459724454417       -0.11461160490444       -1.94787775033474
H           -7.23263256062253       -1.62951351449140       -2.85640527123074
H           -5.73014453480382       -0.69553961800362       -3.04899379159170
H           -5.19692000878420       -3.84370673992559        2.61309089704293
H           -5.51578698696473       -5.14688483284136        1.44243847641916
H           -3.85977718953905       -4.52301333269336        1.63997470651266
H           -3.41523168790766       -2.29620341214121        2.32696936197696
H           -2.50363988007370       -0.05380552258555        2.14318703146550
H           -3.39990724835405        2.35814975001669       -1.82446747844624
H           -1.91004120650614        3.03432382714918       -1.17979062035719
H           -2.35995434991098        0.08434722500537       -1.83820429806559
H           -1.59243446927183        1.27571755352247       -2.89393308272420
H           -0.99004008139996        1.35269848910473        0.77011308706345
H            0.26305668648523        1.59134285110676       -1.21879060789120
H            1.65609767508011       -1.22957692288891        0.16930895389011
H            1.98539255260162        0.36444113927355       -0.56052408355725
H            2.31538710383923       -0.67297798997727       -2.78956172721540
H            2.02337966395621       -2.33065500488594       -2.04136275054089
H            5.24985135763340        2.77688203045270       -1.18998428503633
H            7.58451764159961        2.68890009165523       -0.43995476845819
H            9.31305779469220        2.37986143625408        1.15048185760172
H            9.82335048958410        1.87547251266368       -0.48754840820512
H           10.59870336205379        1.16355986993764        0.94944002871466
H            7.25382788825091       -3.55865674752005        1.28666581870318
H            5.70791834514633       -2.71410082872226        1.54777521991966
H            6.20510868410966       -3.18887381743438       -0.10449127507042
H            4.71666618557941       -1.33826010776005       -0.14519023828586
H           -1.01466987686238       -1.89773597393124       -1.95982666958398
H           -1.62666618922082       -1.48189938183596       -0.34421131552053
H           -0.14563920049425       -2.43897058190978       -0.51954998131602
H           -4.98676427635054        2.67342550184483       -0.09293138245214
H           -3.93719999214753        2.78401335700152        2.75952715794151
H           -5.05998211275668        1.57222036437448        2.12654707197170
H           -5.54698626438972        3.26316135456620        2.22370500207892
H           -2.92844381843977        4.53750138708328        1.15733337495402
H           -3.48233823940951        4.58264812567963       -0.52544009565329
H           -4.59604261142047        4.95556333396977        0.78050075175544
H           -0.83771540358020        2.80931982721281        2.59438036866594
