25
 energy: 0.000000000000 xtb: 6.6.1 (8d0f1dd)
C            3.23720163006194        1.16630919979326        0.08434469647475
N            2.29877817382611        0.07527477071623        0.03981603040599
C            2.58028210190900       -1.21425402444508        0.03006176031096
N            1.43813958087363       -1.93419271955128        0.00098261760884
C            0.39035688448383       -1.05887472636071       -0.00790371836672
C            0.93510056364412        0.21347819449412        0.01709077491437
C            0.09450143893243        1.40504303904423       -0.00410947031874
O            0.49712751527797        2.54126714362870       -0.00342325688240
N           -1.25076640035757        1.06271879480407       -0.03085478223738
C           -2.21907211982101        2.15522099834493       -0.05001256985998
C           -1.81739487048744       -0.20012725993278       -0.04692818574614
O           -2.99983886758376       -0.37846417018721       -0.07008878229737
N           -0.92618586207120       -1.30210215599479       -0.03682761578324
C           -1.46982264913417       -2.64643102187190       -0.06029820460571
H            3.71247264356769        1.21471455160235        1.06488849150277
H            4.00791497605742        1.03430808813993       -0.67357694370751
H            2.69910007168542        2.09770118228144       -0.09130154882931
H            3.56654120610678       -1.63682992603973        0.04233140067262
H           -1.67107961066214        3.09322851271934       -0.02552706933167
H           -2.82428953597071        2.09428624779827       -0.95318082946668
H           -2.87644029173232        2.07745725625962        0.81450067533302
H           -1.17061996399332       -3.19584890659852        0.83242232437030
H           -1.14560257411436       -3.17511610292205       -0.95688275822323
H           -2.55549792440841       -2.55659984320617       -0.07459039797972
H            1.38130855184625       -2.94313852034425       -0.01389874181052
25
 energy: -3.905289703311 xtb: 6.6.1 (8d0f1dd)
C            3.23692984188139        1.19602905672527        0.07009233186969
N            2.30181770132997        0.10025535430416        0.03080944800612
C            2.59328191779721       -1.23305770605001        0.03614252667375
N            1.42287785620584       -1.94577127822070        0.00233840405856
C            0.39109900048564       -1.06376323913868       -0.00994613777604
C            0.92460576740124        0.21612568517822        0.01048331390389
C            0.09907978012900        1.38789819954843       -0.00289193932892
O            0.49811372628801        2.55239860939537        0.00279986362919
N           -1.26200453775363        1.04358026085289       -0.02733776861739
C           -2.21798936744794        2.14260023216288       -0.04012993223388
C           -1.82690428906168       -0.20701590849509       -0.04748715063006
O           -3.02367601399595       -0.38705612562371       -0.07061943030693
N           -0.93971209001336       -1.30913631278198       -0.03938128222517
C           -1.48151133448873       -2.65029247272179       -0.06520182037872
H            3.66840817808359        1.27742411840818        1.05520427666122
H            4.05345642384362        0.99822396407998       -0.62421741578083
H            2.80254562924034        2.19327188552917       -0.14487902853697
H            3.56946219059027       -1.66535521772735        0.04970144173646
H           -1.65294543525774        3.07189973390932       -0.01225062688780
H           -2.82377481344274        2.09424796499410       -0.94432291332819
H           -2.87402501268398        2.07024935685258        0.82643711232886
H           -1.17996862591995       -3.20537588682650        0.82513671033917
H           -1.15658753992916       -3.18037097246439       -0.96266084302902
H           -2.56682823023022       -2.55715851423964       -0.07840576553163
H            1.35646394488518       -2.95082218547872       -0.01237947846802
25
 energy: 1.576087169902 xtb: 6.6.1 (8d0f1dd)
C            3.24387225460474        1.23111413299416        0.04478881164294
N            2.30234643933304        0.13385731320583        0.00905626876203
C            2.60243651385593       -1.24459201731868        0.04486907919348
N            1.40375915304819       -1.94916473590260        0.00478789742044
C            0.38918331761212       -1.06921058071749       -0.01468037000185
C            0.90972704746929        0.21901435621254       -0.00319017056662
C            0.10277551481608        1.36103196626981        0.00012650070503
O            0.48364800207961        2.54657418396714        0.01549716825585
N           -1.27944429598469        1.01830936313113       -0.01954707696260
C           -2.21643732307640        2.12693374283108       -0.01987186339034
C           -1.83530781759787       -0.21841824420542       -0.04703936411667
O           -3.04052867588954       -0.40249626144560       -0.07061339860102
N           -0.95639270946221       -1.31874026198089       -0.04385113188899
C           -1.49899637096783       -2.65667563554927       -0.07473821052036
H            3.56967635913899        1.39775980658083        1.06027534245096
H            4.14715754727696        0.91778663822523       -0.52672690058985
H            2.97297615890450        2.31503854758618       -0.27336084766012
H            3.56407015708238       -1.69497235615703        0.05921111034851
H           -1.62575845479893        3.04205196168481        0.01474533721500
H           -2.82411997175510        2.09804812449598       -0.92418044719020
H           -2.86992384287434        2.05922701469711        0.84919099693874
H           -1.19877330980105       -3.22305049990243        0.81098402354267
H           -1.17914500257075       -3.18925545137955       -0.97460380101573
H           -2.58438248613956       -2.55835247697371       -0.08533489752715
H            1.32979646363275       -2.95279002817716       -0.00876016029684
25
 energy: 11.594473160860 xtb: 6.6.1 (8d0f1dd)
C            3.25869370683466        1.25751088831705        0.01900774690451
N            2.30654977228972        0.15725152752571       -0.02479442284838
C            2.60748581694175       -1.25005594223222        0.04412163168663
N            1.39489033757358       -1.95046788992834        0.00654628308252
C            0.38760753300332       -1.07651760019491       -0.02168648346284
C            0.90348771717075        0.21712538166684       -0.02195490654290
C            0.10334938907572        1.34463559467953        0.00384315931158
O            0.46619293558641        2.53788657344791        0.02752946371910
N           -1.29350111087836        1.00138608372690       -0.01018894438393
C           -2.21516362129110        2.11677175012650        0.00288137298445
C           -1.84134654039115       -0.23023908457333       -0.04570989260560
O           -3.04939513281522       -0.41881025205577       -0.06987548088993
N           -0.96617208325746       -1.32878734981972       -0.04764688988736
C           -1.51634088415127       -2.66361227808469       -0.08340780766655
H            3.43770960212136        1.53941132587404        1.07071920443888
H            4.24380471813215        0.84280772376615       -0.40007470365083
H            3.13403977261158        2.39014406670515       -0.42240535734030
H            3.55711674516335       -1.72096768601540        0.06236148939728
H           -1.60303984061246        3.01849888736082        0.04454642001662
H           -2.82446283002306        2.10562351584685       -0.90075993590331
H           -2.86530177179138        2.05025287605872        0.87419579623279
H           -1.22174190119088       -3.24081112002120        0.79801280221612
H           -1.20678347342336       -3.19807837156528       -0.98661688992302
H           -2.60206552002385       -2.55690759686935       -0.09073638117121
H            1.31660133128154       -2.95502242156995       -0.00087337756696
25
 energy: 19.056575264808 xtb: 6.6.1 (8d0f1dd)
C            3.27378405948620        1.27493722854507        0.00283101571832
N            2.31534248863880        0.16648074621195       -0.06399663700788
C            2.61010702686570       -1.25347927369723        0.02976761157978
N            1.39546321727724       -1.95281492387474        0.00847793311066
C            0.38690092466111       -1.08538010863443       -0.02743742232144
C            0.90670509492251        0.20913465135752       -0.03898143733485
C            0.10449192168810        1.33610116171316        0.00807849012127
O            0.45448916282895        2.52401114350379        0.03659064229530
N           -1.30020645872339        0.99219682121254       -0.00258363096755
C           -2.21175327019893        2.11176454962844        0.01905342967979
C           -1.84397819696064       -0.24054331919717       -0.04472287058876
O           -3.05014233623134       -0.43114933341137       -0.07169076622244
N           -0.96911757231748       -1.33816574298628       -0.04843369478477
C           -1.53229879117216       -2.66992571439258       -0.08754258622095
H            3.31787452730471        1.65972566231888        1.04984463448321
H            4.29003969659623        0.81691247066672       -0.27461713294716
H            3.26844519434914        2.42602159803000       -0.51821541867666
H            3.54990093449902       -1.74568936132020        0.05953621053136
H           -1.58608608874343        3.00339404382176        0.06601819100985
H           -2.82127984943632        2.11374259106124       -0.88395849035609
H           -2.86031799448622        2.04562492476995        0.89097346242432
H           -1.24712286177821       -3.25507382781518        0.79137531803895
H           -1.23482428895170       -3.20689099828147       -0.99319199186963
H           -2.61829466669345       -2.55227771247005       -0.09277834202211
H            1.31409279451198       -2.95962867458827        0.01263737847486
25
 energy: 21.692962243140 xtb: 6.6.1 (8d0f1dd)
C            3.28846113215097        1.28537567666453       -0.00371817248041
N            2.32749311434276        0.16255862162902       -0.10960164875426
C            2.60831897780494       -1.24999378596872        0.00084131147961
N            1.40634759332652       -1.95297095775155        0.00912100692760
C            0.38576451533024       -1.09331114299418       -0.03099677051225
C            0.91869778115892        0.19691986278818       -0.05343774565303
C            0.10705226497862        1.33627410940678        0.01027535711839
O            0.44908732967565        2.50525566733956        0.04527858829011
N           -1.29791168589786        0.99044333292060        0.00292530095093
C           -2.20632518001210        2.11090759788932        0.02928266226012
C           -1.84373490546319       -0.24916790140339       -0.04351244555685
O           -3.04309898431487       -0.43763453927828       -0.07465836433130
N           -0.96477336013056       -1.34596368502853       -0.04524244868859
C           -1.54426189692220       -2.67564789096785       -0.08695607823144
H            3.19651064252779        1.75068614397033        0.98220572818027
H            4.27829130276647        0.82312171250169       -0.13049228506278
H            3.39070322159044        2.42384424708265       -0.56855206404934
H            3.53998250980589       -1.76487103022646        0.05455643728290
H           -1.57757028393734        2.99722047798921        0.07936234804403
H           -2.81547160192868        2.12060939163167       -0.87265538672559
H           -2.85478998932948        2.04386593042242        0.90055851016830
H           -1.27036757706321       -3.26499559008308        0.79089827280802
H           -1.25890688672328       -3.21390297325810       -0.99428652336129
H           -2.63036846042698       -2.54638258534438       -0.09119388776565
H            1.32308509462696       -2.96321208775940        0.02703219380992
25
 energy: 23.573816007134 xtb: 6.6.1 (8d0f1dd)
C            3.28674434366590        1.29317536336875       -0.01266902074477
N            2.33541209393114        0.15214873118055       -0.16660600523281
C            2.60798163256312       -1.24312359032055       -0.04031355890702
N            1.42005408807890       -1.95341086405808       -0.00214339024055
C            0.38645601755028       -1.09686969750268       -0.03835672972772
C            0.92903097095290        0.18843146258178       -0.07793591558118
C            0.11587192677077        1.33762678232395        0.00078719908645
O            0.46048366903730        2.49905602864743        0.05570695187032
N           -1.28504676207698        0.99005900446874        0.00710999704297
C           -2.19839169722395        2.11048028781229        0.04179401701704
C           -1.84014413310515       -0.25215346681104       -0.03809477434851
O           -3.03731653431151       -0.43278282573112       -0.06661723980465
N           -0.95773795946207       -1.34970912798571       -0.03873779288298
C           -1.54718097358167       -2.67795422922792       -0.08022777129250
H            3.00260003041666        1.83310011126593        0.92032764106623
H            4.30081027069433        0.78720745958460        0.07017651350662
H            3.47582332650262        2.39270608497999       -0.64944405055296
H            3.53468625180176       -1.76782846610863        0.04210737845034
H           -1.57962331391736        3.00176288144539        0.09241948859431
H           -2.81188499389484        2.12346502268684       -0.85706750860668
H           -2.84527992481496        2.04093129895943        0.91441680527130
H           -1.27591184003981       -3.26809920178836        0.79624402183979
H           -1.26991089823514       -3.21439809395363       -0.98987232810410
H           -2.63237338611044       -2.54078024504319       -0.08105644088589
H            1.33706246274468       -2.96401210860272        0.02508640931437
25
 energy: 18.130317476007 xtb: 6.6.1 (8d0f1dd)
C            3.27765615430401        1.28585515687099       -0.00443731366039
N            2.34126415000217        0.12834980504248       -0.20138827283688
C            2.60558687634859       -1.23176368559751       -0.07900492528350
N            1.43412667573857       -1.95064294764094       -0.01061611239117
C            0.38854386914395       -1.09273703685539       -0.03799667533525
C            0.94024899207854        0.18624421275869       -0.08640915087684
C            0.12503218707531        1.34266760253081       -0.01227587253849
O            0.48157478144741        2.50366109749936        0.06458929696550
N           -1.26275533661924        0.99397748925334        0.00454330116462
C           -2.18913193390421        2.11176679640022        0.04035113951012
C           -1.83287151829691       -0.24842321668315       -0.03397489587753
O           -3.02871794657602       -0.41804969391169       -0.06058277538473
N           -0.94730455801886       -1.34691887155853       -0.02862236830614
C           -1.54017273932218       -2.67534061958628       -0.07044030245612
H            2.88680722749603        1.83397021612321        0.82157550138869
H            4.23776054271647        0.79925730053933        0.20493850343725
H            3.49308400861912        2.31204497678591       -0.63988303673341
H            3.53405906851731       -1.75069140322106        0.03734934202467
H           -1.58698231805901        3.01518466725496        0.09003738693404
H           -2.80659014750520        2.11940503079795       -0.85670831149272
H           -2.83609024469857        2.03874254490270        0.91368926916926
H           -1.26790546989179       -3.26286585268789        0.80622365130501
H           -1.26292575942358       -3.20882172248850       -0.98056718880632
H           -2.62393581988395       -2.53639194307320       -0.07092203488770
H            1.35185392664848       -2.95945130128377        0.01756574111548
25
 energy: 17.383572363729 xtb: 6.6.1 (8d0f1dd)
C            3.27210631729224        1.28093885721723       -0.00159744302842
N            2.35006256110954        0.11425546154866       -0.24955330260029
C            2.61226459538375       -1.24182892331461       -0.11707664586348
N            1.43469405250950       -1.95723727820224       -0.02131055352608
C            0.39473056020356       -1.09380657697397       -0.04421701901782
C            0.94656566861042        0.18500361021766       -0.10612930126987
C            0.13647084589327        1.33638657866833       -0.01696468919105
O            0.50044234078705        2.50387464467553        0.07030139191198
N           -1.25043573576447        0.99314017070347        0.00747674080175
C           -2.17830560360152        2.11120084244660        0.04503952891515
C           -1.82490765260741       -0.24390392997885       -0.02765341110454
O           -3.02367229841981       -0.40848720697296       -0.05040043434189
N           -0.94456311918029       -1.34602208540479       -0.02050372825045
C           -1.53896417319590       -2.67253538652542       -0.06222365380418
H            2.72016893003206        1.90068264399352        0.77052692545929
H            4.21281113944313        0.81624533247320        0.34661570627385
H            3.55423914428764        2.26333491283106       -0.67926151252593
H            3.53915602146107       -1.75699789679483        0.03019443028754
H           -1.57784725057926        3.01804366289759        0.09497526581984
H           -2.79858837368804        2.11629537104974       -0.85070487194788
H           -2.82278291045298        2.03462431707028        0.92016359799290
H           -1.26357718899361       -3.26246664523384        0.81274111816955
H           -1.26345702322833       -3.20620319450054       -0.97369825411566
H           -2.62205012232409       -2.53143305864660       -0.05982118720334
H            1.34765394295898       -2.96407562107221        0.01011519830644
25
 energy: 15.807823402496 xtb: 6.6.1 (8d0f1dd)
C            3.25851080374521        1.28322116832793        0.00537021021414
N            2.34736388993657        0.11741952121943       -0.25388220523414
C            2.61672495811355       -1.24917073146782       -0.12184934086670
N            1.42891164068283       -1.95945178562063       -0.02278921216435
C            0.39895498009057       -1.09245127006679       -0.04597846844358
C            0.94229596303296        0.19051474882357       -0.10928620715226
C            0.13519312448797        1.33345157437970       -0.01350247429007
O            0.50118714263670        2.50642316126797        0.06526140415828
N           -1.25302711183822        0.99411826948908        0.00835867850146
C           -2.17776704676420        2.11218422863447        0.04263064750350
C           -1.82172425918564       -0.24006253089147       -0.02620413408296
O           -3.02288017032292       -0.40823062622457       -0.04754999970260
N           -0.94608625578885       -1.34393574300090       -0.01858771903501
C           -1.53558860669246       -2.66996356301519       -0.06019359405357
H            2.72464949334654        1.88116502770593        0.74601224750656
H            4.19487662161996        0.82636175217819        0.36460213026963
H            3.55751614179255        2.25938836051627       -0.66718693009413
H            3.54581555476909       -1.75393363661248        0.03399865643865
H           -1.57238954792876        3.01696527992118        0.09184696578118
H           -2.79636434003305        2.11344264622568       -0.85412086734894
H           -2.82111532983535        2.03447177365190        0.91802567855339
H           -1.25724325292505       -3.26117216933098        0.81436475519555
H           -1.25756175494657       -3.20470961275020       -0.97156073821787
H           -2.61893415600046       -2.53145507678378       -0.05747845569847
H            1.34089618594352       -2.96556216440446        0.00673286840976
25
 energy: 14.411959297389 xtb: 6.6.1 (8d0f1dd)
C            3.24611150473690        1.27991165755832        0.01318530442905
N            2.34994306445020        0.11313446028749       -0.26029947880573
C            2.62231283406280       -1.26142442678346       -0.13403006839248
N            1.42608500400924       -1.96418958707937       -0.02908163298782
C            0.40523405006346       -1.09267974759937       -0.04897595903813
C            0.94424558153858        0.19195753412580       -0.11485978207376
C            0.13747426415685        1.33164876800154       -0.01096286493335
O            0.50644813804801        2.50692443306943        0.05751308429864
N           -1.25138562071167        0.99775715366032        0.01100595059167
C           -2.17508082928704        2.11569889756183        0.04247341337451
C           -1.81612977824057       -0.23544045414716       -0.02239915649567
O           -3.01911713660253       -0.40660840084984       -0.04165602137334
N           -0.94401736932237       -1.34091410607903       -0.01585241836841
C           -1.53023189427282       -2.66610292347116       -0.05751163594061
H            2.68502523573613        1.89052514571365        0.70671341736355
H            4.16197063027028        0.83823146693907        0.40747732310674
H            3.56712299945986        2.23090780980522       -0.65887016472881
H            3.55317942587367       -1.75364442630531        0.04091048557419
H           -1.56891394027300        3.01963291773853        0.08851207562814
H           -2.79340161469352        2.11307139866013       -0.85436017576525
H           -2.81835814831044        2.03924756010943        0.91772489064902
H           -1.24875534568994       -3.25723985058569        0.81673468504434
H           -1.25023795434895       -3.20098039024864       -0.96884087159306
H           -2.61390474402899       -2.53065858729525       -0.05381864243837
H            1.33659631131231       -2.96973770061446       -0.00369786097758
25
 energy: 14.433451531799 xtb: 6.6.1 (8d0f1dd)
C            3.23853003084861        1.27865513886127        0.01799065091793
N            2.35147546938800        0.11151739194388       -0.26610316520064
C            2.62403359794188       -1.26738450138038       -0.14818879320422
N            1.42575671354723       -1.96623226219016       -0.03563333322236
C            0.40763903520581       -1.09342861489614       -0.05281018575614
C            0.94623751222332        0.19086280863506       -0.12172116426205
C            0.13805042488891        1.33174623785933       -0.01249708422146
O            0.50659892923905        2.50637270105984        0.05235556634711
N           -1.25087355273105        1.00013585897429        0.01289798154556
C           -2.17415588366526        2.11814281819150        0.04467159247044
C           -1.81394562887057       -0.23439559913022       -0.01964311446235
O           -3.01696393050500       -0.40738054254598       -0.03614510720526
N           -0.94218226639351       -1.33949050688091       -0.01498008869090
C           -1.52703199939422       -2.66473658539405       -0.05529518518070
H            2.64392053284132        1.90185700466072        0.66840323427244
H            4.14828330159457        0.83827907647290        0.46419734927167
H            3.59542885853985        2.21422968906128       -0.66535179239771
H            3.55543212747484       -1.75159873774685        0.04772726226819
H           -1.56851000019745        3.02168064702015        0.08764439403536
H           -2.79372996801876        2.11416870470983       -0.85134954352082
H           -2.81688947467340        2.04363236264700        0.92045987603697
H           -1.24373481439977       -3.25460542980356        0.81908365270803
H           -1.24712869193354       -3.19952339965762       -0.96659093764716
H           -2.61100699317513       -2.53133547133980       -0.05031420170651
H            1.33698133816073       -2.97214018695939       -0.01177396704799
25
 energy: 13.928409775364 xtb: 6.6.1 (8d0f1dd)
C            3.23953952123365        1.27499350493779        0.02152645185454
N            2.35334031841711        0.11060339972580       -0.25747237742153
C            2.62411179252373       -1.27104208825906       -0.15229805004677
N            1.42585835431205       -1.96740389397824       -0.03798962109453
C            0.40774478811879       -1.09409733071096       -0.05400524863662
C            0.94851075866408        0.18871921608254       -0.12149686807023
C            0.13856630489667        1.33227290466009       -0.01440112066758
O            0.50564833190759        2.50570017189784        0.04973535924778
N           -1.25059856070339        1.00128091042227        0.01278140487834
C           -2.17393119817897        2.11952400788115        0.04548054627635
C           -1.81404605676729       -0.23467265296902       -0.01963421954758
O           -3.01660992688474       -0.40814316514998       -0.03460003832349
N           -0.94121543210187       -1.33851562274875       -0.01676351087539
C           -1.52589472638466       -2.66425077694576       -0.05570372897893
H            2.63941404572500        1.91036998970360        0.65989727996758
H            4.13751284845551        0.84317762577567        0.46444979961700
H            3.59999284786911        2.20284838930639       -0.66268649932125
H            3.55533256918470       -1.75084942750018        0.05531219547037
H           -1.56922557805495        3.02311512743711        0.08668511220224
H           -2.79489556472850        2.11588547438431       -0.84980649362702
H           -2.81650148207227        2.04692032731861        0.92169716867395
H           -1.24231340904019       -3.25260630622815        0.81931030659689
H           -1.24609168186285       -3.19906841255984       -0.96664232810050
H           -2.61011882350383       -2.53196190180159       -0.05053152411410
H            1.33808462691205       -2.97377086850961       -0.01581009981206
25
 energy: 13.922984561646 xtb: 6.6.1 (8d0f1dd)
C            3.24119991386028        1.27511094743911        0.02140432080592
N            2.35364061422491        0.11154307540670       -0.25234831750316
C            2.62324665754635       -1.27081448922516       -0.15690278826109
N            1.42587332961716       -1.96713055101579       -0.03809646663448
C            0.40625558287898       -1.09428234669303       -0.05403790352517
C            0.94885940603171        0.18747689381953       -0.12004765243028
C            0.13852096488182        1.33214730938410       -0.01530770757956
O            0.50465319327659        2.50486707612667        0.04989947046819
N           -1.25069812572732        1.00063851783349        0.01207005485410
C           -2.17397860352336        2.11901764706928        0.04563636298459
C           -1.81545138707494       -0.23563236181284       -0.02017425646500
O           -3.01757119642556       -0.40824052414416       -0.03472202406889
N           -0.94166378355438       -1.33852896233897       -0.01825410423927
C           -1.52687446094207       -2.66479289494936       -0.05621765690273
H            2.64470326698884        1.91271910656777        0.65710088455084
H            4.14140418699746        0.84585631021434        0.46337489940055
H            3.60106533239346        2.20146681101895       -0.66260048584157
H            3.55341655226372       -1.74965585795234        0.06004943047693
H           -1.56939129571891        3.02285320125575        0.08692712858106
H           -2.79587630236324        2.11621258416115       -0.84910681748539
H           -2.81586878052008        2.04655697147455        0.92245959648369
H           -1.24354918783258       -3.25250740585162        0.81918844545429
H           -1.24758890357278       -3.19991371673065       -0.96693598250279
H           -2.61113418500810       -2.53222403022370       -0.05104812253809
H            1.33902187923852       -2.97371470866177       -0.01527641193523
25
 energy: 13.955527614531 xtb: 6.6.1 (8d0f1dd)
C            3.24374361746567        1.27550555104138        0.02152148915698
N            2.35422681512554        0.11301060075736       -0.24338212601470
C            2.62237911834686       -1.27129633806599       -0.16966292037919
N            1.42547513108252       -1.96704358177746       -0.03885290561624
C            0.40417914345829       -1.09444828493279       -0.05331719759772
C            0.94936057870385        0.18593663495328       -0.11616509057616
C            0.13890494722483        1.33146998619229       -0.01495154399151
O            0.50393711430316        2.50374505380168        0.05190767602589
N           -1.25044051105393        0.99923306963169        0.01116922782141
C           -2.17361215518085        2.11769683002313        0.04601004711855
C           -1.81736307187275       -0.23691546596610       -0.02088364084145
O           -3.01906158949833       -0.40772149419358       -0.03501747455978
N           -0.94245651880138       -1.33857097834480       -0.02042418885459
C           -1.52862526045359       -2.66557847777506       -0.05717873414539
H            2.64721179680606        1.92009358145365        0.65026606686111
H            4.14589440021262        0.85060333840717        0.46573794171250
H            3.60781196493622        2.19786872235992       -0.66912289986826
H            3.54953181377170       -1.74756377652778        0.07210468850145
H           -1.56912954416364        3.02206057458306        0.08794150231760
H           -2.79666094479870        2.11601377998981       -0.84794224921881
H           -2.81429449428061        2.04464759339819        0.92376816423078
H           -1.24566316262530       -3.25273949830093        0.81864895430595
H           -1.25009676770362       -3.20117861498606       -0.96763263512654
H           -2.61283179706192       -2.53208550812721       -0.05202205590578
H            1.33979404399378       -2.97371469542282       -0.01548619920866
25