      -----------------------------------------------------------      
     |                   =====================                   |     
     |                           x T B                           |     
     |                   =====================                   |     
     |                         S. Grimme                         |     
     |          Mulliken Center for Theoretical Chemistry        |     
     |                    University of Bonn                     |     
      -----------------------------------------------------------      

   * xtb version 6.6.1 (8d0f1dd) compiled by 'conda@1efc2f54142f' on 2023-08-01

   xtb is free software: you can redistribute it and/or modify it under
   the terms of the GNU Lesser General Public License as published by
   the Free Software Foundation, either version 3 of the License, or
   (at your option) any later version.
   
   xtb is distributed in the hope that it will be useful,
   but WITHOUT ANY WARRANTY; without even the implied warranty of
   MERCHANTABILITY or FITNESS FOR A PARTICULAR PURPOSE.  See the
   GNU Lesser General Public License for more details.
   
   Cite this work as:
   * C. Bannwarth, E. Caldeweyher, S. Ehlert, A. Hansen, P. Pracht,
     J. Seibert, S. Spicher, S. Grimme, WIREs Comput. Mol. Sci., 2020, 11,
     e01493. DOI: 10.1002/wcms.1493
   
   for GFN2-xTB:
   * C. Bannwarth, S. Ehlert and S. Grimme., J. Chem. Theory Comput., 2019,
     15, 1652-1671. DOI: 10.1021/acs.jctc.8b01176
   for GFN1-xTB:
   * S. Grimme, C. Bannwarth, P. Shushkov, J. Chem. Theory Comput., 2017,
     13, 1989-2009. DOI: 10.1021/acs.jctc.7b00118
   for GFN0-xTB:
   * P. Pracht, E. Caldeweyher, S. Ehlert, S. Grimme, ChemRxiv, 2019, preprint.
     DOI: 10.26434/chemrxiv.8326202.v1
   for GFN-FF:
   * S. Spicher and S. Grimme, Angew. Chem. Int. Ed., 2020, 59, 15665-15673.
     DOI: 10.1002/anie.202004239
   
   for ALPB and GBSA implicit solvation:
   * S. Ehlert, M. Stahn, S. Spicher, S. Grimme, J. Chem. Theory Comput.,
     2021, 17, 4250-4261. DOI: 10.1021/acs.jctc.1c00471
   
   for DFT-D4:
   * E. Caldeweyher, C. Bannwarth and S. Grimme, J. Chem. Phys., 2017,
     147, 034112. DOI: 10.1063/1.4993215
   * E. Caldeweyher, S. Ehlert, A. Hansen, H. Neugebauer, S. Spicher,
     C. Bannwarth and S. Grimme, J. Chem. Phys., 2019, 150, 154122.
     DOI: 10.1063/1.5090222
   * E. Caldeweyher, J.-M. Mewes, S. Ehlert and S. Grimme, Phys. Chem. Chem. Phys.
     2020, 22, 8499-8512. DOI: 10.1039/D0CP00502A
   
   for sTDA-xTB:
   * S. Grimme and C. Bannwarth, J. Chem. Phys., 2016, 145, 054103.
     DOI: 10.1063/1.4959605
   
   in the mass-spec context:
   * V. Asgeirsson, C. Bauer and S. Grimme, Chem. Sci., 2017, 8, 4879.
     DOI: 10.1039/c7sc00601b
   * J. Koopman and S. Grimme, ACS Omega 2019, 4, 12, 15120-15133.
     DOI: 10.1021/acsomega.9b02011
   
   for metadynamics refer to:
   * S. Grimme, J. Chem. Theory Comput., 2019, 155, 2847-2862
     DOI: 10.1021/acs.jctc.9b00143
   
   for SPH calculations refer to:
   * S. Spicher and S. Grimme, J. Chem. Theory Comput., 2021, 17, 1701-1714
     DOI: 10.1021/acs.jctc.0c01306
   
   with help from (in alphabetical order)
   P. Atkinson, C. Bannwarth, F. Bohle, G. Brandenburg, E. Caldeweyher
   M. Checinski, S. Dohm, S. Ehlert, S. Ehrlich, I. Gerasimov, C. Hölzer
   A. Katbashev, J. Koopman, C. Lavigne, S. Lehtola, F. März, M. Müller,
   F. Musil, H. Neugebauer, J. Pisarek, C. Plett, P. Pracht, F. Pultar,
   J. Seibert, P. Shushkov, S. Spicher, M. Stahn, M. Steiner, T. Strunk,
   J. Stückrath, T. Rose, and J. Unsleber
   
 * started run on 2024/04/06 at 11:12:58.559     

           -------------------------------------------------
          |                Calculation Setup                |
           -------------------------------------------------

          program call               : xtb xtbopt.xyz --opt crude --input .xc2 --gfn2
          hostname                   : n-62-30-23
          coordinate file            : xtbopt.xyz
          omp threads                :                     1

   ID    Z sym.   atoms
    1    7 N      1, 17
    2    6 C      2-6, 8, 9, 11-16, 18-23, 25, 26, 28-33
    3    8 O      7, 10, 24, 27
    4    1 H      34-72

molecular fragmentation (1/2 indicates fragments):
111111111121111111111111111111111111122211111111111111111111111111111111
# atoms in fragment 1/2:    68     4
 fragment masses (1/2) :      440.58       15.03
CMA distance (Bohr)    :  17.678
constraining FC (au)   :  0.0500
########################################################################
[WARNING] Please study the warnings concerning your input carefully
-1- readin_getIntValue: could not parse ''
########################################################################

           -------------------------------------------------
          |                 G F N 2 - x T B                 |
           -------------------------------------------------

        Reference                      10.1021/acs.jctc.8b01176
      * Hamiltonian:
        H0-scaling (s, p, d)           1.850000    2.230000    2.230000
        zeta-weighting                 0.500000
      * Dispersion:
        s8                             2.700000
        a1                             0.520000
        a2                             5.000000
        s9                             5.000000
      * Repulsion:
        kExp                           1.500000    1.000000
        rExp                           1.000000
      * Coulomb:
        alpha                          2.000000
        third order                    shell-resolved
        anisotropic                    true
        a3                             3.000000
        a5                             4.000000
        cn-shift                       1.200000
        cn-exp                         4.000000
        max-rad                        5.000000

q/qsh data taken from xtbrestart
CAMM data taken from xtbrestart

          ...................................................
          :                      SETUP                      :
          :.................................................:
          :  # basis functions                 171          :
          :  # atomic orbitals                 171          :
          :  # shells                          105          :
          :  # electrons                       180          :
          :  max. iterations                   250          :
          :  Hamiltonian                  GFN2-xTB          :
          :  restarted?                       true          :
          :  GBSA solvation                  false          :
          :  PC potential                    false          :
          :  electronic temp.         5000.0000000     K    :
          :  accuracy                    1.0000000          :
          :  -> integral cutoff          0.2500000E+02      :
          :  -> integral neglect         0.1000000E-07      :
          :  -> SCF convergence          0.1000000E-05 Eh   :
          :  -> wf. convergence          0.1000000E-03 e    :
          :  Broyden damping             0.4000000          :
          ...................................................

 iter      E             dE          RMSdq      gap      omega  full diag
   1   -100.6799295 -0.100680E+03  0.239E-05    0.42       0.0  T
   2   -100.6799295  0.576406E-09  0.789E-05    0.42     149.4  T
   3   -100.6799295 -0.577487E-09  0.206E-05    0.42     573.4  T

   *** convergence criteria satisfied after 3 iterations ***

         #    Occupation            Energy/Eh            Energy/eV
      -------------------------------------------------------------
         1        2.0000           -0.8109432             -22.0669
       ...           ...                  ...                  ...
        84        1.9924           -0.5117643             -13.9258
        85        1.9755           -0.4930473             -13.4165
        86        1.9655           -0.4875398             -13.2666
        87        1.9251           -0.4749502             -12.9241
        88        1.8370           -0.4618908             -12.5687
        89        1.8198           -0.4601552             -12.5215
        90        1.3080           -0.4336218             -11.7994 (HOMO)
        91        0.8367           -0.4183232             -11.3832 (LUMO)
        92        0.3559           -0.3993111             -10.8658
        93        0.0121           -0.3427777              -9.3275
        94        0.0024           -0.3169509              -8.6247
        95        0.0021           -0.3149190              -8.5694
       ...           ...                  ...                  ...
       171                          0.6005183              16.3409
      -------------------------------------------------------------
                  HL-Gap            0.0152986 Eh            0.4163 eV
             Fermi-level           -0.4235405 Eh          -11.5251 eV

 SCC (total)                   0 d,  0 h,  0 min,  0.119 sec
 SCC setup                      ...        0 min,  0.001 sec (  0.810%)
 Dispersion                     ...        0 min,  0.002 sec (  1.466%)
 classical contributions        ...        0 min,  0.000 sec (  0.361%)
 integral evaluation            ...        0 min,  0.018 sec ( 15.135%)
 iterations                     ...        0 min,  0.028 sec ( 23.278%)
 molecular gradient             ...        0 min,  0.069 sec ( 58.357%)
 printout                       ...        0 min,  0.001 sec (  0.579%)

         :::::::::::::::::::::::::::::::::::::::::::::::::::::
         ::                     SUMMARY                     ::
         :::::::::::::::::::::::::::::::::::::::::::::::::::::
         :: total energy             -99.294614953384 Eh    ::
         :: gradient norm              0.001810478464 Eh/a0 ::
         :: HOMO-LUMO gap              0.416297361448 eV    ::
         ::.................................................::
         :: SCC energy              -100.679929482616 Eh    ::
         :: -> isotropic ES            0.123249370467 Eh    ::
         :: -> anisotropic ES          0.003399858865 Eh    ::
         :: -> anisotropic XC          0.049546792516 Eh    ::
         :: -> dispersion             -0.073028054122 Eh    ::
         :: repulsion energy           1.384029096361 Eh    ::
         :: add. restraining           0.000000000000 Eh    ::
         :: total charge               1.000000000000 e     ::
         :::::::::::::::::::::::::::::::::::::::::::::::::::::

      ----------------------------------------------------------- 
     |                   =====================                   |
     |                        A N C O P T                        |
     |                   =====================                   |
     |               Approximate Normal Coordinate               |
     |                Rational Function Optimizer                |
      ----------------------------------------------------------- 

          ...................................................
          :                      SETUP                      :
          :.................................................:
          :   optimization level             crude          :
          :   max. optcycles                   200          :
          :   ANC micro-cycles                  20          :
          :   degrees of freedom               210          :
          :.................................................:
          :   RF solver                   davidson          :
          :   write xtbopt.log                true          :
          :   linear?                        false          :
          :   energy convergence         0.5000000E-03 Eh   :
          :   grad. convergence          0.1000000E-01 Eh/α :
          :   maxmium RF displ.          1.0000000          :
          :   Hlow (freq-cutoff)         0.1000000E-01      :
          :   Hmax (freq-cutoff)         5.0000000          :
          :   S6 in model hess.         20.0000000          :
          ...................................................

generating ANC from model Hessian ...
Using Lindh-Hessian (1995)
 Shifting diagonal of input Hessian by    1.0017554061591957E-002
 Lowest  eigenvalues of input Hessian
    0.010000    0.010012    0.000000    0.000000    0.000000    0.000000
    0.000000    0.000000    0.010052    0.010068    0.010088    0.010182
    0.010286    0.010347    0.010542    0.010569    0.010584    0.010595
 Highest eigenvalues
    2.007568    2.048382    2.048776    2.113788    2.185508    2.252621


........................................................................
.............................. CYCLE    1 ..............................
........................................................................

 iter      E             dE          RMSdq      gap      omega  full diag
   1   -100.6799295 -0.100680E+03  0.106E-05    0.42       0.0  T
   2   -100.6799295  0.107150E-09  0.324E-05    0.42     364.0  T
   3   -100.6799295 -0.104762E-09  0.109E-05    0.42    1078.0  T
     SCC iter.                  ...        0 min,  0.026 sec
     gradient                   ...        0 min,  0.069 sec
 * total energy  :   -99.2946150 Eh     change       -0.3342393E-10 Eh
   gradient norm :     0.0018104 Eh/α   predicted     0.0000000E+00 (-100.00%)
   displ. norm   :     0.0798382 α      lambda       -0.3380792E-05
   maximum displ.:     0.0524655 α      in ANC's #8, #4, #16, ...

   *** GEOMETRY OPTIMIZATION CONVERGED AFTER 1 ITERATIONS ***

------------------------------------------------------------------------
 total energy gain   :        -0.0000000 Eh       -0.0000 kcal/mol
 total RMSD          :         0.0000000 a0        0.0000 Å
 total power (kW/mol):        -0.0000001 (step)   -0.0000 (real)
------------------------------------------------------------------------

 ANCopt (total)                0 d,  0 h,  0 min,  0.183 sec
 optimizer setup                ...        0 min,  0.000 sec (  0.146%)
 model hessian                  ...        0 min,  0.053 sec ( 29.291%)
 ANC generation                 ...        0 min,  0.006 sec (  3.528%)
 coordinate transformation      ...        0 min,  0.000 sec (  0.027%)
 single point calculation       ...        0 min,  0.120 sec ( 65.486%)
 optimization log               ...        0 min,  0.002 sec (  1.057%)
 hessian update                 ...        0 min,  0.000 sec (  0.001%)
 rational function              ...        0 min,  0.000 sec (  0.090%)

================
 final structure:
================
72
 xtb: 6.6.1 (8d0f1dd)
N           -1.79742554874711        3.21565969821452        2.10165387637015
C           -1.74024122576493        2.47225490980092        1.10089652157979
C           -2.89849487692361        2.17836949148479        0.18656460372735
C           -3.31804625104151        0.72975359376511        0.36455319727714
C           -4.25956452745167        0.16012975480892       -0.49561137916561
C           -4.64141164129767       -1.16382810955372       -0.38746555769093
O           -5.55479239334378       -1.77329227103410       -1.15514389249231
C           -6.29016780218528       -1.03004739252188       -2.09735934384686
C           -4.03398562353137       -2.04289435629807        0.61934328382899
O           -4.30345087762109       -3.24969648353977        0.68696368451139
C           -5.52219369867178       -6.88759919936479        1.64537576559974
C           -3.11166665651580       -1.39436818524463        1.50405023995172
C           -2.77938914910948       -0.07085212543488        1.38011800047463
C           -2.37684472056101        2.40104656237147       -1.25909714606668
C           -1.46305237086538        1.28429826355141       -1.79679552231422
C           -0.13002593368532        1.24272591980796       -1.15735462854740
N            0.48497838326658        0.15130761245100       -0.73179382250630
C            1.85826419642052        0.21007411724811       -0.28869984366902
C            2.82759337076031       -0.30591602046265       -1.36967943602767
C            4.24814874434589       -0.11460973768135       -0.91712800153863
C            4.89683677278472        1.09136226248872       -1.13301426758201
C            6.19867449177478        1.28538373769440       -0.69982059423078
C            6.87988675283784        0.27449035259949       -0.03591620598505
O            8.14152690805239        0.34837192071478        0.42220957884573
C            8.88209183378710        1.52956518366989        0.21553515878114
C            6.22046322013546       -0.96577039009269        0.19536868344065
O            6.95374358234818       -1.89073219701657        0.84217030733303
C            6.40285043830751       -3.16296693188782        1.08861548397477
C            4.91644375201917       -1.13461513211532       -0.24529957172145
C           -0.14071992700443       -1.14973597979830       -0.76390820444464
C           -4.12982717623306        3.09828789052844        0.44710232535505
C           -4.75845658610695        2.81232120389890        1.80811150760435
C           -3.80456076957659        4.58452720109534        0.32903913894386
H           -4.70858414429551        0.77383411154769       -1.26135013644179
H           -6.83380256464277       -0.20926115742914       -1.61994480404520
H           -7.00105302883931       -1.72827879269990       -2.53475859255984
H           -5.64365330331453       -0.63173590746925       -2.88615581797952
H           -5.86921598228380       -6.53823312822646        2.59425532891930
H           -6.19439528069829       -6.93146388121355        0.81438201789450
H           -4.49715929105742       -7.16284792858213        1.51585323764257
H           -2.68790917482098       -2.00314489169713        2.28743262299085
H           -2.09289608417461        0.36273499859411        2.09271870647843
H           -3.23212451233454        2.48128863558962       -1.92946046994759
H           -1.83957398899736        3.34958197879634       -1.29582834945067
H           -1.97315796975030        0.32586015414705       -1.72477004874241
H           -1.30432135541633        1.50094098206195       -2.86080431898281
H           -0.81535247470943        1.96808396138328        0.75891437423645
H            0.44675947314334        2.15665307659411       -1.15356209849323
H            1.96810789399243       -0.39167596994050        0.61729877491702
H            2.11777707778217        1.24287804261969       -0.04683855721563
H            2.65428386267638        0.25396162786801       -2.29052817558509
H            2.63318566080177       -1.36081553012976       -1.56488131725369
H            4.39295791534732        1.88953596401547       -1.65674657720705
H            6.67923537466024        2.23090445003809       -0.88995324699261
H            8.41751541288672        2.38584653324972        0.71374041159542
H            9.00042423646742        1.74602183721691       -0.85034015360768
H            9.85919501436678        1.34233301703618        0.65649527902289
H            7.18540717533377       -3.72722085150804        1.59204447534601
H            5.52594370429638       -3.10098734946767        1.74080625537413
H            6.13295781365303       -3.67029207399128        0.15736916122551
H            4.41074853594593       -2.07320672956255       -0.08117999389117
H           -0.31339842069784       -1.47856251882113       -1.79049743316118
H           -1.09603078805294       -1.13140648856972       -0.23405491608925
H            0.50634648480181       -1.87189707154666       -0.27345870665963
H           -4.86912215026974        2.85327672469692       -0.32445958971087
H           -4.04802661340084        3.02900920685866        2.60011504811445
H           -5.06814802559327        1.77249288892106        1.88708223743654
H           -5.63275513514618        3.44263933840185        1.94554554086818
H           -3.08600803990339        4.87551289286637        1.08936465761721
H           -3.41139205709502        4.83938685813925       -0.65102738874700
H           -4.71282462503237        5.16041206423638        0.48257898835794
H           -0.95060971922446        3.35897528431911        2.64228447755359

 Bond Distances (Angstroems)
 ---------------------------
N1-C2=1.2480         N1-H72=1.0148        C2-N1=1.2480         C2-C3=1.5046         C2-H47=1.1075        C3-C2=1.5046         
C3-C4=1.5186         C3-C14=1.5529        C3-C31=1.5589        C4-C3=1.5186         C4-C5=1.3967         C4-C13=1.4009        
C5-C4=1.3967         C5-C6=1.3822         C5-H34=1.0792        C6-C5=1.3822         C6-O7=1.3398         C6-C9=1.4681         
O7-C6=1.3398         O7-C8=1.4075         C8-O7=1.4075         C8-H35=1.0941        C8-H36=1.0882        C8-H37=1.0949        
C9-C6=1.4681         C9-O10=1.2384        C9-C12=1.4332        O10-C9=1.2384        C11-H38=1.0690       C11-H39=1.0697       
C11-H40=1.0692       C12-C9=1.4332        C12-C13=1.3702       C12-H41=1.0788       C13-C4=1.4009        C13-C12=1.3702       
C13-H42=1.0803       C14-C3=1.5529        C14-C15=1.5399       C14-H43=1.0896       C14-H44=1.0907       C15-C14=1.5399       
C15-C16=1.4790       C15-H45=1.0881       C15-H46=1.0974       C16-C15=1.4790       C16-N17=1.3231       C16-H48=1.0807       
N17-C16=1.3231       N17-C18=1.4442       N17-C30=1.4440       C18-N17=1.4442       C18-C19=1.5409       C18-H49=1.0932       
C18-H50=1.0920       C19-C18=1.5409       C19-C20=1.5031       C19-H51=1.0915       C19-H52=1.0903       C20-C19=1.5031       
C20-C21=1.3863       C20-C29=1.3923       C21-C20=1.3863       C21-C22=1.3857       C21-H53=1.0795       C22-C21=1.3857       
C22-C23=1.3881       C22-H54=1.0775       C23-C22=1.3881       C23-O24=1.3443       C23-C26=1.4236       O24-C23=1.3443       
O24-C25=1.4094       C25-O24=1.4094       C25-H55=1.0942       C25-H56=1.0941       C25-H57=1.0882       C26-C23=1.4236       
C26-O27=1.3460       C26-C29=1.3868       O27-C26=1.3460       O27-C28=1.4081       C28-O27=1.4081       C28-H58=1.0882       
C28-H59=1.0946       C28-H60=1.0943       C29-C20=1.3923       C29-C26=1.3868       C29-H61=1.0787       C30-N17=1.4440       
C30-H62=1.0917       C30-H63=1.0926       C30-H64=1.0866       C31-C3=1.5589        C31-C32=1.5262       C31-C33=1.5260       
C31-H65=1.0963       C32-C31=1.5262       C32-H66=1.0858       C32-H67=1.0878       C32-H68=1.0865       C33-C31=1.5260       
C33-H69=1.0859       C33-H70=1.0863       C33-H71=1.0864       H34-C5=1.0792        H35-C8=1.0941        H36-C8=1.0882        
H37-C8=1.0949        H38-C11=1.0690       H39-C11=1.0697       H40-C11=1.0692       H41-C12=1.0788       H42-C13=1.0803       
H43-C14=1.0896       H44-C14=1.0907       H45-C15=1.0881       H46-C15=1.0974       H47-C2=1.1075        H48-C16=1.0807       
H49-C18=1.0932       H50-C18=1.0920       H51-C19=1.0915       H52-C19=1.0903       H53-C21=1.0795       H54-C22=1.0775       
H55-C25=1.0942       H56-C25=1.0941       H57-C25=1.0882       H58-C28=1.0882       H59-C28=1.0946       H60-C28=1.0943       
H61-C29=1.0787       H62-C30=1.0917       H63-C30=1.0926       H64-C30=1.0866       H65-C31=1.0963       H66-C32=1.0858       
H67-C32=1.0878       H68-C32=1.0865       H69-C33=1.0859       H70-C33=1.0863       H71-C33=1.0864       H72-N1=1.0148        
 C  H  Rav=1.0874 sigma=0.0081  Rmin=1.0690  Rmax=1.1075    38
 C  C  Rav=1.4575 sigma=0.0665  Rmin=1.3702  Rmax=1.5589    22
 N  H  Rav=1.0148 sigma=0.0000  Rmin=1.0148  Rmax=1.0148     1
 N  C  Rav=1.3648 sigma=0.0836  Rmin=1.2480  Rmax=1.4442     4
 O  C  Rav=1.3562 sigma=0.0568  Rmin=1.2384  Rmax=1.4094     7

 selected bond angles (degree)
 --------------------
H72-N1-C2=118.23               C3-C2-N1=124.64                H47-C2-N1=123.85               H47-C2-C3=111.49               
C4-C3-C2=109.13                C14-C3-C2=106.21               C14-C3-C4=109.80               C31-C3-C2=113.03               
C31-C3-C4=108.97               C31-C3-C14=109.65              C5-C4-C3=120.20                C13-C4-C3=121.59               
C13-C4-C5=118.20               C6-C5-C4=121.92                H34-C5-C4=119.05               H34-C5-C6=119.03               
O7-C6-C5=125.40                C9-C6-C5=120.86                C9-C6-O7=113.74                C8-O7-C6=119.97                
H35-C8-O7=111.32               H36-C8-O7=105.76               H36-C8-H35=109.40              H37-C8-O7=111.46               
H37-C8-H35=109.56              H37-C8-H36=109.24              O10-C9-C6=122.07               C12-C9-C6=114.75               
C12-C9-O10=123.18              

 selected dihedral angles (degree)
 ---------------------------------
C3-C2-N1-H72=181.06           H47-C2-N1-H72=359.20          C4-C3-C2-N1=249.26            C4-C3-C2-H47= 70.92           
C14-C3-C2-N1=130.95           C14-C3-C2-H47=312.61          C31-C3-C2-N1= 10.68           C31-C3-C2-H47=192.34          
C5-C4-C3-C2=188.31            C5-C4-C3-C14=304.35           C5-C4-C3-C31= 64.46           C13-C4-C3-C2=  8.15           
C13-C4-C3-C14=124.18          C13-C4-C3-C31=244.29          C6-C5-C4-C3=178.31            C6-C5-C4-C13=358.47           
H34-C5-C4-C3=357.75           H34-C5-C4-C13=177.91          O7-C6-C5-C4=178.58            O7-C6-C5-H34=359.14           
C9-C6-C5-C4=358.02            C9-C6-C5-H34=178.58           C8-O7-C6-C5=354.79            C8-O7-C6-C9=175.32            
H35-C8-O7-C6=302.55           H36-C8-O7-C6=183.83           H37-C8-O7-C6= 65.21           O10-C9-C6-C5=184.16           
O10-C9-C6-O7=  3.66           C12-C9-C6-C5=  4.01           C12-C9-C6-O7=183.51           

 CMA Distance (Angstroems)
 ---------------------------
R(CMA):  9.3546
           -------------------------------------------------
          |                Final Singlepoint                |
           -------------------------------------------------

          ...................................................
          :                      SETUP                      :
          :.................................................:
          :  # basis functions                 171          :
          :  # atomic orbitals                 171          :
          :  # shells                          105          :
          :  # electrons                       180          :
          :  max. iterations                   250          :
          :  Hamiltonian                  GFN2-xTB          :
          :  restarted?                      false          :
          :  GBSA solvation                  false          :
          :  PC potential                    false          :
          :  electronic temp.         5000.0000000     K    :
          :  accuracy                    1.0000000          :
          :  -> integral cutoff          0.2500000E+02      :
          :  -> integral neglect         0.1000000E-07      :
          :  -> SCF convergence          0.1000000E-05 Eh   :
          :  -> wf. convergence          0.1000000E-03 e    :
          :  Broyden damping             0.4000000          :
          ...................................................

 iter      E             dE          RMSdq      gap      omega  full diag
   1   -100.6799295 -0.100680E+03  0.428E-06    0.42       0.0  T
   2   -100.6799295  0.491696E-11  0.773E-06    0.42    1524.2  T
   3   -100.6799295 -0.521538E-11  0.359E-06    0.42    3281.7  T

   *** convergence criteria satisfied after 3 iterations ***

         #    Occupation            Energy/Eh            Energy/eV
      -------------------------------------------------------------
         1        2.0000           -0.8109431             -22.0669
       ...           ...                  ...                  ...
        84        1.9924           -0.5117643             -13.9258
        85        1.9755           -0.4930471             -13.4165
        86        1.9655           -0.4875399             -13.2666
        87        1.9251           -0.4749502             -12.9241
        88        1.8370           -0.4618911             -12.5687
        89        1.8198           -0.4601551             -12.5215
        90        1.3080           -0.4336220             -11.7995 (HOMO)
        91        0.8367           -0.4183235             -11.3832 (LUMO)
        92        0.3559           -0.3993109             -10.8658
        93        0.0121           -0.3427776              -9.3275
        94        0.0024           -0.3169508              -8.6247
        95        0.0021           -0.3149189              -8.5694
       ...           ...                  ...                  ...
       171                          0.6005181              16.3409
      -------------------------------------------------------------
                  HL-Gap            0.0152985 Eh            0.4163 eV
             Fermi-level           -0.4235406 Eh          -11.5251 eV

 SCC (total)                   0 d,  0 h,  0 min,  0.117 sec
 SCC setup                      ...        0 min,  0.001 sec (  0.756%)
 Dispersion                     ...        0 min,  0.002 sec (  1.361%)
 classical contributions        ...        0 min,  0.000 sec (  0.366%)
 integral evaluation            ...        0 min,  0.018 sec ( 15.179%)
 iterations                     ...        0 min,  0.027 sec ( 22.622%)
 molecular gradient             ...        0 min,  0.069 sec ( 59.130%)
 printout                       ...        0 min,  0.001 sec (  0.571%)

         :::::::::::::::::::::::::::::::::::::::::::::::::::::
         ::                     SUMMARY                     ::
         :::::::::::::::::::::::::::::::::::::::::::::::::::::
         :: total energy             -99.294614953428 Eh    ::
         :: gradient norm              0.001810422740 Eh/a0 ::
         :: HOMO-LUMO gap              0.416294224286 eV    ::
         ::.................................................::
         :: SCC energy              -100.679929482660 Eh    ::
         :: -> isotropic ES            0.123250267703 Eh    ::
         :: -> anisotropic ES          0.003399810152 Eh    ::
         :: -> anisotropic XC          0.049546783773 Eh    ::
         :: -> dispersion             -0.073028042971 Eh    ::
         :: repulsion energy           1.384029096361 Eh    ::
         :: add. restraining           0.000000000000 Eh    ::
         :: total charge               1.000000000000 e     ::
         :::::::::::::::::::::::::::::::::::::::::::::::::::::

           -------------------------------------------------
          |                Property Printout                |
           -------------------------------------------------

    * Orbital Energies and Occupations

         #    Occupation            Energy/Eh            Energy/eV
      -------------------------------------------------------------
         1        2.0000           -0.8109431             -22.0669
       ...           ...                  ...                  ...
        78        1.9980           -0.5327533             -14.4970
        79        1.9976           -0.5302449             -14.4287
        80        1.9973           -0.5279513             -14.3663
        81        1.9966           -0.5243534             -14.2684
        82        1.9943           -0.5162667             -14.0483
        83        1.9938           -0.5149988             -14.0138
        84        1.9924           -0.5117643             -13.9258
        85        1.9755           -0.4930471             -13.4165
        86        1.9655           -0.4875399             -13.2666
        87        1.9251           -0.4749502             -12.9241
        88        1.8370           -0.4618911             -12.5687
        89        1.8198           -0.4601551             -12.5215
        90        1.3080           -0.4336220             -11.7995 (HOMO)
        91        0.8367           -0.4183235             -11.3832 (LUMO)
        92        0.3559           -0.3993109             -10.8658
        93        0.0121           -0.3427776              -9.3275
        94        0.0024           -0.3169508              -8.6247
        95        0.0021           -0.3149189              -8.5694
        96        0.0015           -0.3091494              -8.4124
        97        0.0008           -0.3002696              -8.1708
        98        0.0000           -0.1923526              -5.2342
        99        0.0000           -0.1860685              -5.0632
       100                         -0.1396887              -3.8011
       101                         -0.0723879              -1.9698
       ...                                ...                  ...
       171                          0.6005181              16.3409
      -------------------------------------------------------------
                  HL-Gap            0.0152985 Eh            0.4163 eV
             Fermi-level           -0.4235406 Eh          -11.5251 eV

     #   Z          covCN         q      C6AA      α(0)
     1   7 N        1.774    -0.264    27.667     7.789
     2   6 C        2.827     0.103    25.721     8.310
     3   6 C        3.907     0.007    20.399     6.420
     4   6 C        2.974     0.004    27.937     8.670
     5   6 C        2.911    -0.080    30.000     8.981
     6   6 C        2.856     0.122    25.311     8.246
     7   8 O        1.706    -0.205    17.415     5.634
     8   6 C        3.645     0.026    20.476     6.504
     9   6 C        2.828     0.195    23.842     8.001
    10   8 O        0.858    -0.377    21.222     6.176
    11   6 C        2.780    -0.106    30.659     9.069
    12   6 C        2.909    -0.071    29.776     8.948
    13   6 C        2.912    -0.047    29.171     8.856
    14   6 C        3.811    -0.064    21.719     6.634
    15   6 C        3.802    -0.070    21.833     6.652
    16   6 C        2.844     0.011    27.752     8.634
    17   7 N        2.729     0.020    20.907     6.791
    18   6 C        3.757    -0.018    20.944     6.525
    19   6 C        3.808    -0.071    21.849     6.654
    20   6 C        2.969     0.001    28.000     8.680
    21   6 C        2.922    -0.048    29.196     8.861
    22   6 C        2.913    -0.067    29.665     8.931
    23   6 C        2.865     0.135    25.055     8.205
    24   8 O        1.706    -0.218    17.620     5.667
    25   6 C        3.645     0.024    20.507     6.508
    26   6 C        2.863     0.135    25.057     8.205
    27   8 O        1.706    -0.221    17.662     5.674
    28   6 C        3.645     0.026    20.480     6.504
    29   6 C        2.919    -0.079    29.966     8.977
    30   6 C        3.700    -0.074    22.088     6.721
    31   6 C        3.852    -0.006    20.654     6.464
    32   6 C        3.756    -0.118    22.816     6.811
    33   6 C        3.755    -0.119    22.836     6.814
    34   1 H        0.926     0.047     2.351     2.398
    35   1 H        0.924     0.058     2.223     2.332
    36   1 H        0.925     0.084     1.939     2.177
    37   1 H        0.924     0.051     2.304     2.374
    38   1 H        0.927     0.090     1.874     2.141
    39   1 H        0.927     0.091     1.869     2.138
    40   1 H        0.927     0.089     1.887     2.148
    41   1 H        0.926     0.063     2.162     2.300
    42   1 H        0.926     0.038     2.469     2.457
    43   1 H        0.925     0.062     2.178     2.308
    44   1 H        0.924     0.053     2.280     2.361
    45   1 H        0.925     0.069     2.102     2.267
    46   1 H        0.924     0.083     1.952     2.185
    47   1 H        0.922     0.007     2.944     2.683
    48   1 H        0.926     0.072     2.062     2.246
    49   1 H        0.924     0.071     2.074     2.252
    50   1 H        0.924     0.068     2.106     2.270
    51   1 H        0.924     0.056     2.242     2.341
    52   1 H        0.924     0.058     2.223     2.331
    53   1 H        0.926     0.046     2.370     2.407
    54   1 H        0.926     0.060     2.198     2.318
    55   1 H        0.924     0.056     2.248     2.345
    56   1 H        0.924     0.058     2.228     2.334
    57   1 H        0.925     0.084     1.937     2.177
    58   1 H        0.925     0.084     1.940     2.178
    59   1 H        0.924     0.051     2.303     2.373
    60   1 H        0.924     0.055     2.264     2.353
    61   1 H        0.926     0.050     2.318     2.381
    62   1 H        0.924     0.080     1.983     2.202
    63   1 H        0.924     0.085     1.925     2.170
    64   1 H        0.925     0.084     1.940     2.178
    65   1 H        0.924     0.038     2.472     2.459
    66   1 H        0.925     0.069     2.094     2.263
    67   1 H        0.925     0.038     2.476     2.461
    68   1 H        0.925     0.053     2.282     2.362
    69   1 H        0.925     0.062     2.170     2.304
    70   1 H        0.925     0.035     2.517     2.481
    71   1 H        0.925     0.055     2.253     2.347
    72   1 H        0.860     0.159     1.339     1.813

 Mol. C6AA /au·bohr⁶  :      47694.409898
 Mol. C8AA /au·bohr⁸  :    1089887.226513
 Mol. α(0) /au        :        336.133090


Wiberg/Mayer (AO) data.
largest (>0.10) Wiberg bond orders for each atom

 ---------------------------------------------------------------------------
     #   Z sym  total        # sym  WBO       # sym  WBO       # sym  WBO
 ---------------------------------------------------------------------------
     1   7 N    3.041 --     2 C    1.959    72 H    0.940
     2   6 C    3.931 --     1 N    1.959     3 C    0.993    47 H    0.900
     3   6 C    3.972 --     2 C    0.993     4 C    0.974    14 C    0.955
                            31 C    0.939
     4   6 C    3.807 --     5 C    1.363    13 C    1.324     3 C    0.974
     5   6 C    3.947 --     6 C    1.415     4 C    1.363    34 H    0.954
     6   6 C    3.750 --     5 C    1.415     7 O    1.133     9 C    1.055
     7   8 O    2.248 --     6 C    1.133     8 C    0.976
     8   6 C    3.927 --    36 H    0.976     7 O    0.976    35 H    0.971
                            37 H    0.971
     9   6 C    3.886 --    10 O    1.574    12 C    1.161     6 C    1.055
    10   8 O    1.716 --     9 C    1.574
    11   6 C    2.969 --    40 H    0.990    38 H    0.990    39 H    0.990
    12   6 C    3.800 --    13 C    1.520     9 C    1.161    41 H    0.964
    13   6 C    3.943 --    12 C    1.520     4 C    1.324    42 H    0.957
    14   6 C    3.967 --    15 C    0.979    44 H    0.972    43 H    0.969
                             3 C    0.955
    15   6 C    3.986 --    16 C    1.061    14 C    0.979    45 H    0.961
                            46 H    0.926
    16   6 C    3.624 --    17 N    1.426    15 C    1.061    48 H    0.956
    17   7 N    3.502 --    16 C    1.426    30 C    0.996    18 C    0.987
    18   6 C    3.954 --    17 N    0.987    50 H    0.968    19 C    0.966
                            49 H    0.963
    19   6 C    3.976 --    20 C    1.008    52 H    0.972    51 H    0.971
                            18 C    0.966
    20   6 C    3.940 --    21 C    1.404    29 C    1.383    19 C    1.008
    21   6 C    3.945 --    22 C    1.420    20 C    1.404    53 H    0.968
    22   6 C    3.956 --    21 C    1.420    23 C    1.380    54 H    0.963
    23   6 C    3.890 --    22 C    1.380    26 C    1.215    24 O    1.115
    24   8 O    2.255 --    23 C    1.115    25 C    0.975
    25   6 C    3.926 --    57 H    0.976    24 O    0.975    55 H    0.972
                            56 H    0.972
    26   6 C    3.894 --    29 C    1.391    23 C    1.215    27 O    1.109
    27   8 O    2.256 --    26 C    1.109    28 C    0.977
    28   6 C    3.929 --    27 O    0.977    58 H    0.976    59 H    0.973
                            60 H    0.973
    29   6 C    3.956 --    26 C    1.391    20 C    1.383    61 H    0.962
    30   6 C    3.953 --    17 N    0.996    64 H    0.977    62 H    0.965
                            63 H    0.956
    31   6 C    3.963 --    33 C    1.009    32 C    1.008    65 H    0.958
                             3 C    0.939
    32   6 C    3.974 --    31 C    1.008    67 H    0.981    68 H    0.980
                            66 H    0.973
    33   6 C    3.980 --    31 C    1.009    70 H    0.982    71 H    0.979
                            69 H    0.975
    34   1 H    0.992 --     5 C    0.954
    35   1 H    0.989 --     8 C    0.971
    36   1 H    0.992 --     8 C    0.976
    37   1 H    0.989 --     8 C    0.971
    38   1 H    0.991 --    11 C    0.990
    39   1 H    0.991 --    11 C    0.990
    40   1 H    0.992 --    11 C    0.990
    41   1 H    0.991 --    12 C    0.964
    42   1 H    0.993 --    13 C    0.957
    43   1 H    0.995 --    14 C    0.969
    44   1 H    0.996 --    14 C    0.972
    45   1 H    0.995 --    15 C    0.961
    46   1 H    0.972 --    15 C    0.926
    47   1 H    0.984 --     2 C    0.900
    48   1 H    0.994 --    16 C    0.956
    49   1 H    0.990 --    18 C    0.963
    50   1 H    0.994 --    18 C    0.968
    51   1 H    0.995 --    19 C    0.971
    52   1 H    0.996 --    19 C    0.972
    53   1 H    0.997 --    21 C    0.968
    54   1 H    0.995 --    22 C    0.963
    55   1 H    0.991 --    25 C    0.972
    56   1 H    0.991 --    25 C    0.972
    57   1 H    0.992 --    25 C    0.976
    58   1 H    0.992 --    28 C    0.976
    59   1 H    0.992 --    28 C    0.973
    60   1 H    0.992 --    28 C    0.973
    61   1 H    0.996 --    29 C    0.962
    62   1 H    0.985 --    30 C    0.965
    63   1 H    0.986 --    30 C    0.956
    64   1 H    0.993 --    30 C    0.977
    65   1 H    0.991 --    31 C    0.958
    66   1 H    0.990 --    32 C    0.973
    67   1 H    0.996 --    32 C    0.981
    68   1 H    0.993 --    32 C    0.980
    69   1 H    0.992 --    33 C    0.975
    70   1 H    0.997 --    33 C    0.982
    71   1 H    0.993 --    33 C    0.979
    72   1 H    0.969 --     1 N    0.940
 ---------------------------------------------------------------------------

Topologies differ in total number of bonds
Writing topology from bond orders to xtbtopo.mol

molecular dipole:
                 x           y           z       tot (Debye)
 q only:        1.126       0.374      -1.176
   full:        1.367       0.566      -1.471       5.304
molecular quadrupole (traceless):
                xx          xy          yy          xz          yz          zz
 q only:       55.132       8.194      -9.215       9.530     -10.095     -45.918
  q+dip:       51.530      10.250     -10.973      13.944     -12.514     -40.557
   full:       51.329       9.990     -11.600      11.104     -12.061     -39.729

           -------------------------------------------------
          |                Geometry Summary                 |
           -------------------------------------------------

      molecular mass/u    :      455.6105846
   center of mass at/Å    :        0.0537696       0.0499637       0.0197784
  moments of inertia/u·Å² :        0.2968929E+04   0.1074155E+05   0.1258159E+05
rotational constants/cm⁻¹ :        0.5678019E-02   0.1569386E-02   0.1339865E-02

 * 63 selected distances

     #   Z          #   Z                                           value/Å
     1   7 N        2   6 C                                       1.2479729
     4   6 C        5   6 C                                       1.3967145
     5   6 C        6   6 C                                       1.3821605
     6   6 C        7   8 O                                       1.3397915
     7   8 O        8   6 C                                       1.4074659
     9   6 C       10   8 O                                       1.2383682
     4   6 C       13   6 C                                       1.4008902
    12   6 C       13   6 C                                       1.3702053
    14   6 C       15   6 C                                       1.5398906
    15   6 C       16   6 C                                       1.4790446
    16   6 C       17   7 N                                       1.3230747
    17   7 N       18   6 C                                       1.4441953
    18   6 C       19   6 C                                       1.5408966 (max)
    20   6 C       21   6 C                                       1.3862799
    21   6 C       22   6 C                                       1.3856706
    22   6 C       23   6 C                                       1.3880652
    23   6 C       24   8 O                                       1.3442745
    24   8 O       25   6 C                                       1.4093859
    23   6 C       26   6 C                                       1.4235797
    26   6 C       27   8 O                                       1.3459596
    27   8 O       28   6 C                                       1.4081193
    20   6 C       29   6 C                                       1.3922582
    26   6 C       29   6 C                                       1.3867820
    17   7 N       30   6 C                                       1.4440376
    31   6 C       32   6 C                                       1.5262039
    31   6 C       33   6 C                                       1.5259898
     5   6 C       34   1 H                                       1.0791699
     8   6 C       35   1 H                                       1.0941452
     8   6 C       36   1 H                                       1.0882110
     8   6 C       37   1 H                                       1.0949124
    11   6 C       38   1 H                                       1.0690434 (min)
    11   6 C       39   1 H                                       1.0697336
    11   6 C       40   1 H                                       1.0692211
    12   6 C       41   1 H                                       1.0788270
    13   6 C       42   1 H                                       1.0803104
    14   6 C       43   1 H                                       1.0896465
    14   6 C       44   1 H                                       1.0907468
    15   6 C       45   1 H                                       1.0881173
    15   6 C       46   1 H                                       1.0973808
    16   6 C       48   1 H                                       1.0807215
    18   6 C       49   1 H                                       1.0931617
    18   6 C       50   1 H                                       1.0920293
    19   6 C       51   1 H                                       1.0915410
    19   6 C       52   1 H                                       1.0902804
    21   6 C       53   1 H                                       1.0794771
    22   6 C       54   1 H                                       1.0775430
    25   6 C       55   1 H                                       1.0941927
    25   6 C       56   1 H                                       1.0940505
    25   6 C       57   1 H                                       1.0882245
    28   6 C       58   1 H                                       1.0882180
    28   6 C       59   1 H                                       1.0946049
    28   6 C       60   1 H                                       1.0942764
    29   6 C       61   1 H                                       1.0787109
    30   6 C       62   1 H                                       1.0917099
    30   6 C       63   1 H                                       1.0925656
    30   6 C       64   1 H                                       1.0866244
    31   6 C       65   1 H                                       1.0963100
    32   6 C       66   1 H                                       1.0857874
    32   6 C       67   1 H                                       1.0878365
    32   6 C       68   1 H                                       1.0865483
    33   6 C       69   1 H                                       1.0858572
    33   6 C       70   1 H                                       1.0863083
    33   6 C       71   1 H                                       1.0863523

 * 4 distinct bonds (by element types)

   Z      Z             #   av. dist./Å        max./Å        min./Å
   1 H    6 C          37     1.0868215     1.0973808     1.0690434
   6 C    6 C          15     1.4349754     1.5408966     1.3702053
   6 C    7 N           4     1.3648201     1.4441953     1.2479729
   6 C    8 O           7     1.3561950     1.4093859     1.2383682


optimized geometry written to: xtbopt.xyz


           -------------------------------------------------
          | TOTAL ENERGY              -99.294614953428 Eh   |
          | GRADIENT NORM               0.001810422740 Eh/α |
          | HOMO-LUMO GAP               0.416294224286 eV   |
           -------------------------------------------------

------------------------------------------------------------------------
 * finished run on 2024/04/06 at 11:12:59.032     
------------------------------------------------------------------------
 total:
 * wall-time:     0 d,  0 h,  0 min,  0.472 sec
 *  cpu-time:     0 d,  0 h,  0 min,  0.443 sec
 * ratio c/w:     0.938 speedup
 SCF:
 * wall-time:     0 d,  0 h,  0 min,  0.119 sec
 *  cpu-time:     0 d,  0 h,  0 min,  0.119 sec
 * ratio c/w:     0.997 speedup
 ANC optimizer:
 * wall-time:     0 d,  0 h,  0 min,  0.307 sec
 *  cpu-time:     0 d,  0 h,  0 min,  0.299 sec
 * ratio c/w:     0.975 speedup

