72
 energy: -99.294614953428 gnorm: 0.001810422740 xtb: 6.6.1 (8d0f1dd)
N           -1.79742554874711        3.21565969821452        2.10165387637015
C           -1.74024122576493        2.47225490980092        1.10089652157979
C           -2.89849487692361        2.17836949148479        0.18656460372735
C           -3.31804625104151        0.72975359376511        0.36455319727714
C           -4.25956452745167        0.16012975480892       -0.49561137916561
C           -4.64141164129767       -1.16382810955372       -0.38746555769093
O           -5.55479239334378       -1.77329227103410       -1.15514389249231
C           -6.29016780218528       -1.03004739252188       -2.09735934384686
C           -4.03398562353137       -2.04289435629807        0.61934328382899
O           -4.30345087762109       -3.24969648353977        0.68696368451139
C           -5.52219369867178       -6.88759919936479        1.64537576559974
C           -3.11166665651580       -1.39436818524463        1.50405023995172
C           -2.77938914910948       -0.07085212543488        1.38011800047463
C           -2.37684472056101        2.40104656237147       -1.25909714606668
C           -1.46305237086538        1.28429826355141       -1.79679552231422
C           -0.13002593368532        1.24272591980796       -1.15735462854740
N            0.48497838326658        0.15130761245100       -0.73179382250630
C            1.85826419642052        0.21007411724811       -0.28869984366902
C            2.82759337076031       -0.30591602046265       -1.36967943602767
C            4.24814874434589       -0.11460973768135       -0.91712800153863
C            4.89683677278472        1.09136226248872       -1.13301426758201
C            6.19867449177478        1.28538373769440       -0.69982059423078
C            6.87988675283784        0.27449035259949       -0.03591620598505
O            8.14152690805239        0.34837192071478        0.42220957884573
C            8.88209183378710        1.52956518366989        0.21553515878114
C            6.22046322013546       -0.96577039009269        0.19536868344065
O            6.95374358234818       -1.89073219701657        0.84217030733303
C            6.40285043830751       -3.16296693188782        1.08861548397477
C            4.91644375201917       -1.13461513211532       -0.24529957172145
C           -0.14071992700443       -1.14973597979830       -0.76390820444464
C           -4.12982717623306        3.09828789052844        0.44710232535505
C           -4.75845658610695        2.81232120389890        1.80811150760435
C           -3.80456076957659        4.58452720109534        0.32903913894386
H           -4.70858414429551        0.77383411154769       -1.26135013644179
H           -6.83380256464277       -0.20926115742914       -1.61994480404520
H           -7.00105302883931       -1.72827879269990       -2.53475859255984
H           -5.64365330331453       -0.63173590746925       -2.88615581797952
H           -5.86921598228380       -6.53823312822646        2.59425532891930
H           -6.19439528069829       -6.93146388121355        0.81438201789450
H           -4.49715929105742       -7.16284792858213        1.51585323764257
H           -2.68790917482098       -2.00314489169713        2.28743262299085
H           -2.09289608417461        0.36273499859411        2.09271870647843
H           -3.23212451233454        2.48128863558962       -1.92946046994759
H           -1.83957398899736        3.34958197879634       -1.29582834945067
H           -1.97315796975030        0.32586015414705       -1.72477004874241
H           -1.30432135541633        1.50094098206195       -2.86080431898281
H           -0.81535247470943        1.96808396138328        0.75891437423645
H            0.44675947314334        2.15665307659411       -1.15356209849323
H            1.96810789399243       -0.39167596994050        0.61729877491702
H            2.11777707778217        1.24287804261969       -0.04683855721563
H            2.65428386267638        0.25396162786801       -2.29052817558509
H            2.63318566080177       -1.36081553012976       -1.56488131725369
H            4.39295791534732        1.88953596401547       -1.65674657720705
H            6.67923537466024        2.23090445003809       -0.88995324699261
H            8.41751541288672        2.38584653324972        0.71374041159542
H            9.00042423646742        1.74602183721691       -0.85034015360768
H            9.85919501436678        1.34233301703618        0.65649527902289
H            7.18540717533377       -3.72722085150804        1.59204447534601
H            5.52594370429638       -3.10098734946767        1.74080625537413
H            6.13295781365303       -3.67029207399128        0.15736916122551
H            4.41074853594593       -2.07320672956255       -0.08117999389117
H           -0.31339842069784       -1.47856251882113       -1.79049743316118
H           -1.09603078805294       -1.13140648856972       -0.23405491608925
H            0.50634648480181       -1.87189707154666       -0.27345870665963
H           -4.86912215026974        2.85327672469692       -0.32445958971087
H           -4.04802661340084        3.02900920685866        2.60011504811445
H           -5.06814802559327        1.77249288892106        1.88708223743654
H           -5.63275513514618        3.44263933840185        1.94554554086818
H           -3.08600803990339        4.87551289286637        1.08936465761721
H           -3.41139205709502        4.83938685813925       -0.65102738874700
H           -4.71282462503237        5.16041206423638        0.48257898835794
H           -0.95060971922446        3.35897528431911        2.64228447755359
