72
 energy: 0.000000000000 xtb: 6.6.1 (8d0f1dd)
N           -1.47310921155849        2.74401293103706        2.22063921685122
C           -1.55658879776851        2.16490285539332        1.13274273951491
C           -2.74549199786261        2.05621232186130        0.23826248438941
C           -3.31377553111525        0.64333411542669        0.32332512650568
C           -4.30230156009016        0.24487110156316       -0.58026161703006
C           -4.85238763031941       -1.02286490450319       -0.53363588718165
O           -5.81419972815119       -1.48606034185536       -1.36157882725342
C           -6.39655633239252       -0.60827000183299       -2.29568474302620
C           -4.39972501531283       -1.94646102182611        0.44396929121966
O           -4.98748311285188       -3.16145997157803        0.41085992006324
C           -4.66362127904578       -4.10093827755394        1.40909127743729
C           -3.42072513477031       -1.54561384810496        1.33436546260297
C           -2.88302799614223       -0.26315800396994        1.27400150770375
C           -2.19303798107274        2.30467000305896       -1.18742977106749
C           -1.26651538239283        1.17243369445008       -1.65249429687285
C            0.01082524939134        1.09745454476277       -0.89354803499847
N            0.61779393476578       -0.02034948052406       -0.57705522512502
C            2.00145210352228       -0.02376006389122       -0.15611399603240
C            2.92554934655222       -0.53865282675074       -1.27700088804721
C            4.35756843073516       -0.43050757231754       -0.83075544324989
C            5.07346135469827        0.73206409086248       -1.03980965825901
C            6.38627986649936        0.84224441421807       -0.60344822702769
C            7.00047264773336       -0.20824756335880        0.05722314418200
O            8.26703657141718       -0.21011313101264        0.52410943644933
C            9.06912227848686        0.92943601033931        0.31863058007678
C            6.27039964270142       -1.40439753960823        0.28033466008274
O            6.94829939911432       -2.38012925705718        0.92751999079483
C            6.31537317745639       -3.61583200086742        1.15217711710877
C            4.96302794628964       -1.49347471867959       -0.16064430359178
C           -0.05511211367372       -1.29906247805359       -0.62085686319744
C           -3.86758037025447        3.07992600430699        0.58498060215443
C           -4.49286159663096        2.77383493050346        1.94313289484366
C           -3.39165179876499        4.52917666589254        0.54797523472093
H           -4.66030026466202        0.94509067363451       -1.31640568823548
H           -6.85037928558380        0.25803162192116       -1.80468845313260
H           -7.17287442604349       -1.18600110843259       -2.79318157561361
H           -5.66836817451085       -0.26952966318766       -3.04040255244073
H           -4.88416720672258       -3.71589460520039        2.40913542187496
H           -5.29223570620378       -4.96637458756866        1.20969236903657
H           -3.61139813139015       -4.39919835331056        1.35529357841967
H           -3.07077796610445       -2.21868765711333        2.10002662693138
H           -2.14562754426994        0.02067850696302        2.01001344383370
H           -3.02188875377605        2.38238012313952       -1.88813545054866
H           -1.65198530896729        3.25146700677685       -1.20556284570283
H           -1.81103374245520        0.23006524641044       -1.62116301628650
H           -0.99335688527853        1.37490212198123       -2.69443256973690
H           -0.67628064361333        1.65183887049447        0.61785727145403
H            0.63525841192517        1.98466369793744       -0.92314021190751
H            2.11132552493482       -0.65949692842762        0.72532613231274
H            2.30680473056284        0.98978251704176        0.11078972794250
H            2.76694198818247        0.06750735147374       -2.17075252200790
H            2.67954581369920       -1.57455627803457       -1.51167743520200
H            4.62169998552446        1.56295612048703       -1.56123579000624
H            6.92357674630170        1.75715815945204       -0.79119596719031
H            8.65159112996149        1.81001823324363        0.81701555159939
H            9.20136171144928        1.14042857828877       -0.74698991949293
H           10.03428838009630        0.69003240176163        0.76064937965836
H            7.05567174969094       -4.23621171795340        1.65347565939075
H            5.43848001056755       -3.50813558175093        1.79970565785717
H            6.02060041905269       -4.09420497120334        0.21253282636366
H            4.40102758497114       -2.40127266373392       -0.00490198249042
H           -0.22071299714579       -1.61775583601871       -1.65116008982042
H           -1.01972258008625       -1.24102717432227       -0.10935206830928
H            0.55899954147532       -2.04486085926761       -0.12333730421426
H           -4.63991875734388        2.95501092798550       -0.18098088071825
H           -3.76095216473977        2.90314704960906        2.73380821053058
H           -4.87457614030224        1.75695641518947        1.97884603101694
H           -5.31925552549014        3.45579210326349        2.12325564252114
H           -2.60025590131176        4.69225046143352        1.27368918226171
H           -3.03987406413880        4.81897652321898       -0.43870975059559
H           -4.22191740670577        5.18069648090034        0.80616693961239
H           -0.59832433787845        2.77744694953323        2.72958984441332
72
 energy: -5.883487702476 xtb: 6.6.1 (8d0f1dd)
N           -1.50150953190971        2.82253410886450        2.20572974964907
C           -1.55383520760318        2.15768871678342        1.14044684171098
C           -2.74503904709724        2.05659387130844        0.23655309068274
C           -3.31555538651734        0.64538113057479        0.32152611310156
C           -4.30330038772153        0.24090470166379       -0.57908732179303
C           -4.84989110422234       -1.02676863761298       -0.53028621379823
O           -5.82067363170092       -1.49550186642172       -1.36326645617723
C           -6.39544672658656       -0.61853246749070       -2.29741751888311
C           -4.40093405170132       -1.94480268603696        0.44565990552845
O           -4.99528073369710       -3.17004952156437        0.41512009678251
C           -4.66705518787430       -4.10085552328118        1.41433919423554
C           -3.42561130400947       -1.54368631173306        1.33790557968288
C           -2.88968113410240       -0.26159287379299        1.27541942285841
C           -2.19692818153940        2.29624996760388       -1.19395179064740
C           -1.26238084827455        1.17528425644320       -1.67374557862499
C            0.00430959882095        1.12834487788950       -0.90105839490932
N            0.63327407393032       -0.04610965069928       -0.55859259241174
C            2.00198103512853       -0.03006863388291       -0.15544035540350
C            2.93601187935067       -0.53755126701580       -1.27564735501071
C            4.36069139719056       -0.43135804378654       -0.83633614378738
C            5.07679481934496        0.73374662916496       -1.03740346610414
C            6.38800949255711        0.84340506378315       -0.59964327804528
C            6.99896157817498       -0.21001470694550        0.05652617253133
O            8.27837109758030       -0.21399060336976        0.52503924441662
C            9.07214909187095        0.92511220331017        0.31660463720872
C            6.27169889452399       -1.40159812537215        0.27796317013113
O            6.95512346524032       -2.38609127839847        0.92616306539293
C            6.31755410431504       -3.61734858968723        1.14616581654713
C            4.96629835385582       -1.49292708620967       -0.16349173827968
C           -0.04958533173070       -1.30463551677554       -0.61709134655306
C           -3.85773943059933        3.08206353942450        0.57992009273459
C           -4.50909842872207        2.76655782472144        1.92391451366147
C           -3.37615602394081        4.53257026972669        0.58237331574579
H           -4.65705901910951        0.93814335947535       -1.32074125178403
H           -6.84841231542277        0.25146068268991       -1.81049823740443
H           -7.17321981765374       -1.19586447039127       -2.79531818424744
H           -5.66629447352033       -0.28144435299789       -3.04235240583605
H           -4.88647071138130       -3.71453805841236        2.41546562570676
H           -5.29465146681953       -4.96886385645954        1.21829937561439
H           -3.61396070119877       -4.39849765720915        1.36260426028776
H           -3.07470901039686       -2.21786208769714        2.10361335654109
H           -2.14860939861413        0.02322629434241        2.00631046071827
H           -3.02863816559470        2.37707233299446       -1.89502407050980
H           -1.65363305516300        3.24231585741791       -1.21348401799554
H           -1.79854687126437        0.22744717983152       -1.63031255631474
H           -1.01145478298050        1.37548169678401       -2.72280744568809
H           -0.68649367521270        1.63564551383595        0.67369266377157
H            0.64543848792862        1.99141261294328       -0.94886179414798
H            2.12234821115839       -0.65917659524502        0.73319346116758
H            2.29646762199409        0.98896266936073        0.10894114597909
H            2.76596582000002        0.07056366416424       -2.16596391869381
H            2.67992042169660       -1.57181453723658       -1.50879610415756
H            4.62126394714601        1.56543811147156       -1.55429192073715
H            6.92584971183704        1.75904070531596       -0.78573050836490
H            8.65621545514673        1.80671787277306        0.81606432441002
H            9.20174224809755        1.13960689654543       -0.74971843390503
H           10.03980887548117        0.68712056198782        0.75544389997729
H            7.05711696983778       -4.24146207322131        1.64555648320289
H            5.44038443912070       -3.51076699711312        1.79395388690490
H            6.01943852874160       -4.09409580944865        0.20594500232939
H            4.40145377818319       -2.39923298300861       -0.00690894775475
H           -0.21163261997370       -1.63122310705234       -1.65013883997241
H           -1.01997632669590       -1.24141618281276       -0.11590032240834
H            0.55656725227645       -2.05119894892527       -0.10857827128976
H           -4.62240088717523        2.98617357499192       -0.19982014758108
H           -3.77944306292185        2.86482585169292        2.71954070357882
H           -4.90619385866859        1.75513668483652        1.93478830323439
H           -5.32527116886262        3.46113282618515        2.10805007857658
H           -2.61345169019483        4.70514011622308        1.33458176788726
H           -2.99733685554097        4.83061556590961       -0.39103647682227
H           -4.21510587779617        5.17814642222504        0.82705335958346
H           -0.60939103791494        2.82545513445175        2.69703623858752
72
 energy: -5.930043101949 xtb: 6.6.1 (8d0f1dd)
N           -1.50919737675424        2.87327038343323        2.17792986849376
C           -1.55433435041066        2.16825112130407        1.13711032145013
C           -2.74263043579133        2.05432089808636        0.23112169911228
C           -3.31620270871885        0.64372557019727        0.31875535443183
C           -4.30355715579369        0.23627581604363       -0.58138790273184
C           -4.85100985935704       -1.03119587998712       -0.53001789044867
O           -5.82197626984193       -1.50183726051226       -1.36230190016349
C           -6.39503074407149       -0.62785274116031       -2.29985708139863
C           -4.40386925401398       -1.94732237335425        0.44844795582736
O           -4.99875184606011       -3.17285544872612        0.42006637827179
C           -4.67049749593706       -4.10192301446391        1.42107030233467
C           -3.42923231945305       -1.54372075619541        1.34040195095292
C           -2.89280702935121       -0.26177787225551        1.27519231349000
C           -2.19824126006617        2.29036913594200       -1.20116863800185
C           -1.26117124693193        1.17249819115035       -1.68210931114600
C            0.00534076327824        1.12890120579995       -0.90961602545573
N            0.63272580301602       -0.04575068031751       -0.55507991327304
C            2.00154928287571       -0.02718624806996       -0.15239229304768
C            2.93728148789145       -0.53461162824003       -1.27235838698606
C            4.36217957561587       -0.42891735815750       -0.83424197005113
C            5.07819257106225        0.73637438945890       -1.03319120564461
C            6.38976573973587        0.84445382932903       -0.59644640475081
C            7.00116887959864       -0.21102761428168        0.05608896807729
O            8.28144224517752       -0.21660176953796        0.52302902092223
C            9.07562147465747        0.92197366034821        0.31390625967313
C            6.27362266906352       -1.40245696604392        0.27619523732144
O            6.95755540795366       -2.38874706362583        0.92191539603354
C            6.31919479780714       -3.61992503000127        1.13991308597467
C            4.96775125836071       -1.49233810231182       -0.16427184424057
C           -0.04732484089559       -1.30649864852891       -0.61363387426866
C           -3.84716326553059        3.08705552361457        0.57692412989700
C           -4.52313449367150        2.75787283616867        1.90433722982886
C           -3.35940010552378        4.53589162782134        0.61589762931459
H           -4.65580474960151        0.93121261258582       -1.32583016246632
H           -6.84700777392556        0.24421395691559       -1.81609212606039
H           -7.17312072565372       -1.20594068430544       -2.79676547185353
H           -5.66441927971153       -0.29413280009171       -3.04479457730833
H           -4.88984980230414       -3.71408091982324        2.42174242524785
H           -5.29754234635447       -4.97075398358552        1.22652180937961
H           -3.61722229527168       -4.39911563750074        1.37002251687615
H           -3.07944690422879       -2.21641506463404        2.10806924553870
H           -2.15133375779019        0.02414780142475        2.00479150469464
H           -3.03160891097926        2.36858075224891       -1.90140114243294
H           -1.65628353347739        3.23644953909890       -1.22396646755526
H           -1.79374733572206        0.22287089090595       -1.63839697643681
H           -1.01519971953711        1.37349901865036       -2.73267244769136
H           -0.68804946887320        1.62068363903694        0.71066821105347
H            0.64526531094452        1.99291496338315       -0.95807778575260
H            2.12562484785764       -0.65434045947856        0.73770678908442
H            2.29240470807286        0.99281616578533        0.10910756844841
H            2.76564561809706        0.07344383582096       -2.16236164476788
H            2.68025697253339       -1.56866929911374       -1.50501910100519
H            4.62143373338001        1.56929684152581       -1.54694662421854
H            6.92756157635894        1.76040220782058       -0.78104498806129
H            8.66153873187679        1.80301791694785        0.81558127481767
H            9.20232623366842        1.13824922991156       -0.75241486684072
H           10.04436104702731        0.68282133387273        0.74978436714235
H            7.05889854462159       -4.24595997567225        1.63677074235201
H            5.44291308247158       -3.51403026665727        1.78905432366901
H            6.01888954764360       -4.09423795238183        0.19913166434279
H            4.40198958620492       -2.39813814008232       -0.00810422262139
H           -0.20138569081241       -1.63924905012302       -1.64617397256173
H           -1.02170145149398       -1.24165191486390       -0.12075489765102
H            0.55489747461216       -2.05061587884098       -0.09593118230784
H           -4.60115494360847        3.01643807094350       -0.21619503850267
H           -3.80107251673544        2.82660964075507        2.70860422592569
H           -4.93779410744146        1.75406583051556        1.89082965163576
H           -5.32810267265350        3.46460846092174        2.09212137845794
H           -2.62851024374100        4.72081716967619        1.39547106740740
H           -2.95557827536405        4.84401738980065       -0.34334153615491
H           -4.20605576456678        5.17476697345960        0.84698254434052
H           -0.62006005378230        2.88244731504564        2.67413362146822
72
 energy: -5.602751075579 xtb: 6.6.1 (8d0f1dd)
N           -1.51571470800206        2.92243531311415        2.14823508313396
C           -1.55350063376545        2.17970028645844        1.13266669798277
C           -2.73976185228081        2.05204519833310        0.22566918080933
C           -3.31632879575152        0.64199185228746        0.31583981594734
C           -4.30355849193098        0.23171036578372       -0.58376424107182
C           -4.85206204369062       -1.03548529682929       -0.52972663793752
O           -5.82336572268918       -1.50798334655348       -1.36127222923254
C           -6.39477502786965       -0.63705591074295       -2.30223859366712
C           -4.40677500822814       -1.94976164199467        0.45123143554227
O           -5.00227765077650       -3.17553527782451        0.42506822568834
C           -4.67380337190534       -4.10285392428154        1.42776788066340
C           -3.43279150233390       -1.54384264689444        1.34290023333351
C           -2.89572528156608       -0.26214226993444        1.27484014071239
C           -2.19969280701709        2.28457437072406       -1.20860995433667
C           -1.26025196549716        1.16935869447436       -1.69058896594166
C            0.00658694000626        1.12908685057058       -0.91961309442149
N            0.63196517524305       -0.04534537222570       -0.55120310461267
C            2.00110210727991       -0.02394473011360       -0.14962590112302
C            2.93840124290400       -0.53143951180419       -1.26906173709121
C            4.36332538458461       -0.42646361134865       -0.83153785969669
C            5.07938371467592        0.73893794123622       -1.02856135058023
C            6.39143820290324        0.84549568201616       -0.59314999602002
C            7.00326387377943       -0.21198779059096        0.05573090219342
O            8.28443564109988       -0.21918974908454        0.52104443024690
C            9.07901370063537        0.91881047628480        0.31119411763603
C            6.27539767813678       -1.40322622873311        0.27455067178123
O            6.95994146851450       -2.39131039510752        0.91765550537892
C            6.32086442326779       -3.62238534442240        1.13376779287013
C            4.96901691429251       -1.49174383666451       -0.16477285372033
C           -0.04530414060788       -1.30804025463375       -0.61031927288625
C           -3.83597188370688        3.09222022868658        0.57494287825492
C           -4.53649391991939        2.74862962498726        1.88519146409286
C           -3.34257259928609        4.53948709789038        0.64974248766146
H           -4.65451957542234        0.92430556411193       -1.33093309890748
H           -6.84588073682404        0.23708500986249       -1.82172032422180
H           -7.17320015456232       -1.21598394076173       -2.79802682639818
H           -5.66291686142325       -0.30666854098078       -3.04738134699587
H           -4.89306647876135       -3.71364343633953        2.42803840892712
H           -5.30029198509468       -4.97247934905073        1.23467436743380
H           -3.62035296173251       -4.39964110031740        1.37730583002715
H           -3.08412546328721       -2.21506384921378        2.11254591859296
H           -2.15418466320951        0.02487587655762        2.00348348109820
H           -3.03500294321327        2.35983982546150       -1.90764887458564
H           -1.65939824655418        3.23100770883771       -1.23478395787508
H           -1.78922109287281        0.21774756108016       -1.64633788658199
H           -1.01880249921459        1.37125377024354       -2.74239486810330
H           -0.68980378728309        1.60553303141698        0.74830733470298
H            0.64531562707805        1.99388250943354       -0.96809109214401
H            2.12851114988694       -0.64900926445144        0.74177997388749
H            2.28831008417092        0.99716932597129        0.10923409712967
H            2.76567628911916        0.07645606504557       -2.15892176826891
H            2.68018593372267       -1.56524604487097       -1.50137005369577
H            4.62147239962351        1.57293788009349       -1.53945315069725
H            6.92914029440983        1.76179171721602       -0.77618592947227
H            8.66702903089377        1.79945021792682        0.81507320570660
H            9.20295677501131        1.13680662691760       -0.75511337826250
H           10.04878398627913        0.67839491295073        0.74410061750293
H            7.06076822547975       -4.25019280213067        1.62814530866695
H            5.44551186814493       -3.51726936086778        1.78432146223000
H            6.01848421196761       -4.09444813717785        0.19249104020293
H            4.40240868546907       -2.39713727190171       -0.00935023488986
H           -0.19129899403612       -1.64728472567024       -1.64236571418230
H           -1.02370078160920       -1.24167723775459       -0.12577683195654
H            0.55296151819481       -2.04915274484305       -0.08326691936358
H           -4.57900088207536        3.04678239000698       -0.23081610532447
H           -3.82309938819602        2.78778363236137        2.69822118447855
H           -4.96926282770737        1.75324292203892        1.84738312103049
H           -5.32987907854644        3.46759008727223        2.07652749575206
H           -2.64438705967232        4.73705006253151        1.45563091709280
H           -2.91402085028633        4.85702239788903       -0.29509829902478
H           -4.19693368398579        5.17139259060280        0.86684870151421
H           -0.62988940144100        2.93829221478033        2.64905934123931
72
 energy: -4.900287675257 xtb: 6.6.1 (8d0f1dd)
N           -1.52142858631256        2.96990624542718        2.11689144141846
C           -1.55181035623467        2.19085101776081        1.12773224360137
C           -2.73660639875156        2.04961663656143        0.22039174148269
C           -3.31633132083225        0.64017584697406        0.31295920648368
C           -4.30344250453642        0.22713439429494       -0.58620223657552
C           -4.85308878409687       -1.03975159169317       -0.52941867509663
O           -5.82480201841948       -1.51407607935892       -1.36019194722972
C           -6.39452684052133       -0.64626711552443       -2.30460946763195
C           -4.40970230519350       -1.95221544578293        0.45401491748627
O           -5.00588407062707       -3.17818267504149        0.43009522871025
C           -4.67712032800151       -4.10375082890999        1.43444486001980
C           -3.43636440439911       -1.54411105651909        1.34542199858042
C           -2.89862235776447       -0.26269554158311        1.27450309976238
C           -2.20122534371832        2.27871505519092       -1.21610446651468
C           -1.25946113564471        1.16586262884367       -1.69914424582506
C            0.00797097810415        1.12880345124305       -0.93026627681133
N            0.63110404000021       -0.04490117834543       -0.54688955176165
C            2.00070614053253       -0.02044575201740       -0.14697156957555
C            2.93940456264297       -0.52809466822742       -1.26581761290610
C            4.36433133570270       -0.42400372792311       -0.82867113625473
C            5.08060065790108        0.74145710534176       -1.02395966731883
C            6.39316994455945        0.84649726649126       -0.58994624627028
C            7.00540765517494       -0.21294618350551        0.05535221049806
O            8.28746808017136       -0.22181564524658        0.51894586055592
C            9.08239603207224        0.91564595119149        0.30851744732859
C            6.27718249602665       -1.40402723426798        0.27285166972384
O            6.96232382158316       -2.39389841140894        0.91326758962638
C            6.32256978940816       -3.62486352063026        1.12760082178021
C            4.97024416145540       -1.49113963993260       -0.16527107786098
C           -0.04319708401166       -1.30948624171072       -0.60685655578353
C           -3.82454036849929        3.09755437719273        0.57374096291403
C           -4.54979538412501        2.73921399663808        1.86606145844902
C           -3.32604274406243        4.54315954808322        0.68400329711124
H           -4.65323778258186        0.91737359370608       -1.33605260515824
H           -6.84481913245401        0.22995301956266       -1.82741334015831
H           -7.17326746319500       -1.22608019274514       -2.79923639293751
H           -5.66148291613933       -0.31923098135131       -3.05002026360028
H           -4.89629278392901       -3.71322303586701        2.43432283809383
H           -5.30304018904909       -4.97417019479732        1.24281428992560
H           -3.62349656228206       -4.40014662033691        1.38451472732420
H           -3.08881867133854       -2.21379518150535        2.11707116929386
H           -2.15732348197788        0.02542217634891        2.00255896169480
H           -3.03857644729453        2.35094884359506       -1.91381157224672
H           -1.66282020046089        3.22570860500308       -1.24584435576920
H           -1.78469947213201        0.21211297975929       -1.65397698375032
H           -1.02260789627346        1.36863706126891       -2.75217006684248
H           -0.69141325536399        1.59135417157712        0.78690554803180
H            0.64574439369738        1.99424382221974       -0.97854133726720
H            2.13143832496067       -0.64347699990521        0.74571866055780
H            2.28429302608525        1.00183662494301        0.10936266927499
H            2.76588262492364        0.07957759223242       -2.15563475903425
H            2.68018626518744       -1.56169676073961       -1.49783985737784
H            4.62160277469450        1.57651867549668       -1.53205737077839
H            6.93078235566476        1.76313038024296       -0.77142827071482
H            8.67251710064246        1.79586018353408        0.81466455602002
H            9.20367745207672        1.13543190380000       -0.75774163086802
H           10.05316312190953        0.67394624502362        0.73848511894647
H            7.06268551584621       -4.25438432412506        1.61952763106480
H            5.44819109761892       -3.52050679089863        1.77960642269762
H            6.01813886313118       -4.09476371573994        0.18587323130442
H            4.40284526405595       -2.39619557013000       -0.01069248352143
H           -0.18098718126053       -1.65511836947736       -1.63844514763922
H           -1.02557826097617       -1.24177616012994       -0.13077818914216
H            0.55095043533469       -2.04755993553198       -0.07053682712653
H           -4.55608660143274        3.07726769003658       -0.24415066846935
H           -3.84618004112420        2.74882836064751        2.68784274158794
H           -5.00061549109883        1.75293780548808        1.80380400608339
H           -5.33148202135958        3.47017955661022        2.06088215224991
H           -2.66135119674106        4.75307670943222        1.51520436490860
H           -2.87291962945752        4.86967265700186       -0.24593033986279
H           -4.18794102770644        5.16815671402945        0.88666860604059
H           -0.63923087709455        2.99373106073840        2.62231196113278
72
 energy: -3.817600415153 xtb: 6.6.1 (8d0f1dd)
N           -1.52651892334479        3.01403113830671        2.08426550630770
C           -1.54909714963228        2.19954080926930        1.12280150211034
C           -2.73323894314522        2.04698806171581        0.21542138528303
C           -3.31639267800454        0.63834934209895        0.31018900238582
C           -4.30320848274926        0.22253041452839       -0.58866919306263
C           -4.85403118089632       -1.04401624658244       -0.52907364152719
O           -5.82614872867224       -1.52016223612620       -1.35907465668689
C           -6.39416753773181       -0.65547552894089       -2.30693929486075
C           -4.41257787480127       -1.95465018997849        0.45685805019002
O           -5.00947816182717       -3.18076515370537        0.43516927338409
C           -4.68050355412994       -4.10467597977498        1.44107718441822
C           -3.43992704807215       -1.54439674212663        1.34805236427934
C           -2.90158681708145       -0.26327419188846        1.27428818552988
C           -2.20277147230393        2.27268389428964       -1.22344816126024
C           -1.25871016520254        1.16192476762176       -1.70763035190432
C            0.00943506127492        1.12816303576045       -0.94117782646090
N            0.63010104328324       -0.04448252579826       -0.54215429923497
C            2.00033834198948       -0.01687189955059       -0.14430147833139
C            2.94028644676820       -0.52453772199783       -1.26262010155992
C            4.36524423998556       -0.42155777854167       -0.82575473384833