      -----------------------------------------------------------      
     |                   =====================                   |     
     |                           x T B                           |     
     |                   =====================                   |     
     |                         S. Grimme                         |     
     |          Mulliken Center for Theoretical Chemistry        |     
     |                    University of Bonn                     |     
      -----------------------------------------------------------      

   * xtb version 6.6.1 (8d0f1dd) compiled by 'conda@1efc2f54142f' on 2023-08-01

   xtb is free software: you can redistribute it and/or modify it under
   the terms of the GNU Lesser General Public License as published by
   the Free Software Foundation, either version 3 of the License, or
   (at your option) any later version.
   
   xtb is distributed in the hope that it will be useful,
   but WITHOUT ANY WARRANTY; without even the implied warranty of
   MERCHANTABILITY or FITNESS FOR A PARTICULAR PURPOSE.  See the
   GNU Lesser General Public License for more details.
   
   Cite this work as:
   * C. Bannwarth, E. Caldeweyher, S. Ehlert, A. Hansen, P. Pracht,
     J. Seibert, S. Spicher, S. Grimme, WIREs Comput. Mol. Sci., 2020, 11,
     e01493. DOI: 10.1002/wcms.1493
   
   for GFN2-xTB:
   * C. Bannwarth, S. Ehlert and S. Grimme., J. Chem. Theory Comput., 2019,
     15, 1652-1671. DOI: 10.1021/acs.jctc.8b01176
   for GFN1-xTB:
   * S. Grimme, C. Bannwarth, P. Shushkov, J. Chem. Theory Comput., 2017,
     13, 1989-2009. DOI: 10.1021/acs.jctc.7b00118
   for GFN0-xTB:
   * P. Pracht, E. Caldeweyher, S. Ehlert, S. Grimme, ChemRxiv, 2019, preprint.
     DOI: 10.26434/chemrxiv.8326202.v1
   for GFN-FF:
   * S. Spicher and S. Grimme, Angew. Chem. Int. Ed., 2020, 59, 15665-15673.
     DOI: 10.1002/anie.202004239
   
   for ALPB and GBSA implicit solvation:
   * S. Ehlert, M. Stahn, S. Spicher, S. Grimme, J. Chem. Theory Comput.,
     2021, 17, 4250-4261. DOI: 10.1021/acs.jctc.1c00471
   
   for DFT-D4:
   * E. Caldeweyher, C. Bannwarth and S. Grimme, J. Chem. Phys., 2017,
     147, 034112. DOI: 10.1063/1.4993215
   * E. Caldeweyher, S. Ehlert, A. Hansen, H. Neugebauer, S. Spicher,
     C. Bannwarth and S. Grimme, J. Chem. Phys., 2019, 150, 154122.
     DOI: 10.1063/1.5090222
   * E. Caldeweyher, J.-M. Mewes, S. Ehlert and S. Grimme, Phys. Chem. Chem. Phys.
     2020, 22, 8499-8512. DOI: 10.1039/D0CP00502A
   
   for sTDA-xTB:
   * S. Grimme and C. Bannwarth, J. Chem. Phys., 2016, 145, 054103.
     DOI: 10.1063/1.4959605
   
   in the mass-spec context:
   * V. Asgeirsson, C. Bauer and S. Grimme, Chem. Sci., 2017, 8, 4879.
     DOI: 10.1039/c7sc00601b
   * J. Koopman and S. Grimme, ACS Omega 2019, 4, 12, 15120-15133.
     DOI: 10.1021/acsomega.9b02011
   
   for metadynamics refer to:
   * S. Grimme, J. Chem. Theory Comput., 2019, 155, 2847-2862
     DOI: 10.1021/acs.jctc.9b00143
   
   for SPH calculations refer to:
   * S. Spicher and S. Grimme, J. Chem. Theory Comput., 2021, 17, 1701-1714
     DOI: 10.1021/acs.jctc.0c01306
   
   with help from (in alphabetical order)
   P. Atkinson, C. Bannwarth, F. Bohle, G. Brandenburg, E. Caldeweyher
   M. Checinski, S. Dohm, S. Ehlert, S. Ehrlich, I. Gerasimov, C. Hölzer
   A. Katbashev, J. Koopman, C. Lavigne, S. Lehtola, F. März, M. Müller,
   F. Musil, H. Neugebauer, J. Pisarek, C. Plett, P. Pracht, F. Pultar,
   J. Seibert, P. Shushkov, S. Spicher, M. Stahn, M. Steiner, T. Strunk,
   J. Stückrath, T. Rose, and J. Unsleber
   
 * started run on 2024/06/05 at 19:58:11.476     

           -------------------------------------------------
          |                Calculation Setup                |
           -------------------------------------------------

          program call               : xtb struc.xyz --opt loose --input .xc1 --gfn2
          hostname                   : n-62-21-70
          coordinate file            : struc.xyz
          omp threads                :                     1

   ID    Z sym.   atoms
    1    6 C      1, 3, 5-7, 10, 11, 14
    2    7 N      2, 4, 9, 13
    3    8 O      8, 12
    4    1 H      15-25
constraining bond 6 23 to    4.7133300 Å, actual value:    4.0939623 Å

           -------------------------------------------------
          |                 G F N 2 - x T B                 |
           -------------------------------------------------

        Reference                      10.1021/acs.jctc.8b01176
      * Hamiltonian:
        H0-scaling (s, p, d)           1.850000    2.230000    2.230000
        zeta-weighting                 0.500000
      * Dispersion:
        s8                             2.700000
        a1                             0.520000
        a2                             5.000000
        s9                             5.000000
      * Repulsion:
        kExp                           1.500000    1.000000
        rExp                           1.000000
      * Coulomb:
        alpha                          2.000000
        third order                    shell-resolved
        anisotropic                    true
        a3                             3.000000
        a5                             4.000000
        cn-shift                       1.200000
        cn-exp                         4.000000
        max-rad                        5.000000


          ...................................................
          :                      SETUP                      :
          :.................................................:
          :  # basis functions                  67          :
          :  # atomic orbitals                  67          :
          :  # shells                           39          :
          :  # electrons                        74          :
          :  max. iterations                   250          :
          :  Hamiltonian                  GFN2-xTB          :
          :  restarted?                      false          :
          :  GBSA solvation                  false          :
          :  PC potential                    false          :
          :  electronic temp.         5000.0000000     K    :
          :  accuracy                    1.0000000          :
          :  -> integral cutoff          0.2500000E+02      :
          :  -> integral neglect         0.1000000E-07      :
          :  -> SCF convergence          0.1000000E-05 Eh   :
          :  -> wf. convergence          0.1000000E-03 e    :
          :  Broyden damping             0.4000000          :
          ...................................................

 iter      E             dE          RMSdq      gap      omega  full diag
   1    -42.5894031 -0.425894E+02  0.445E+00    3.52       0.0  T
   2    -42.7683054 -0.178902E+00  0.251E+00    3.36       1.0  T
   3    -42.7759211 -0.761567E-02  0.147E+00    3.35       1.0  T
   4    -42.7728404  0.308066E-02  0.553E-01    3.33       1.0  T
   5    -42.7789548 -0.611444E-02  0.112E-01    3.35       1.0  T
   6    -42.7790473 -0.924914E-04  0.614E-02    3.33       1.0  T
   7    -42.7790721 -0.247928E-04  0.258E-02    3.34       1.0  T
   8    -42.7790772 -0.508996E-05  0.938E-03    3.34       2.1  T
   9    -42.7790779 -0.669422E-06  0.448E-03    3.34       4.5  T
  10    -42.7790780 -0.821511E-07  0.115E-03    3.34      17.4  T
  11    -42.7790780 -0.322662E-08  0.553E-04    3.34      36.2  T
  12    -42.7790780 -0.287052E-08  0.180E-04    3.34     111.1  T

   *** convergence criteria satisfied after 12 iterations ***

         #    Occupation            Energy/Eh            Energy/eV
      -------------------------------------------------------------
         1        2.0000           -0.9185990             -24.9964
       ...           ...                  ...                  ...
        31        1.9996           -0.6230278             -16.9534
        32        1.9995           -0.6194601             -16.8564
        33        1.9979           -0.5974976             -16.2587
        34        1.9932           -0.5789629             -15.7544
        35        1.9817           -0.5631863             -15.3251
        36        1.9779           -0.5602245             -15.2445
        37        1.9748           -0.5581234             -15.1873 (HOMO)
        38        0.0652           -0.4353579             -11.8467 (LUMO)
        39        0.0099           -0.4050467             -11.0219
        40        0.0013           -0.3732218             -10.1559
        41        0.0000           -0.2886859              -7.8555
        42                         -0.2065804              -5.6213
       ...                                ...                  ...
        67                          0.5625656              15.3082
      -------------------------------------------------------------
                  HL-Gap            0.1227656 Eh            3.3406 eV
             Fermi-level           -0.4890455 Eh          -13.3076 eV

 SCC (total)                   0 d,  0 h,  0 min,  0.037 sec
 SCC setup                      ...        0 min,  0.000 sec (  0.894%)
 Dispersion                     ...        0 min,  0.000 sec (  1.126%)
 classical contributions        ...        0 min,  0.000 sec (  0.292%)
 integral evaluation            ...        0 min,  0.005 sec ( 14.693%)
 iterations                     ...        0 min,  0.018 sec ( 47.577%)
 molecular gradient             ...        0 min,  0.013 sec ( 34.951%)
 printout                       ...        0 min,  0.000 sec (  0.428%)

         :::::::::::::::::::::::::::::::::::::::::::::::::::::
         ::                     SUMMARY                     ::
         :::::::::::::::::::::::::::::::::::::::::::::::::::::
         :: total energy             -44.987695498337 Eh    ::
         :: gradient norm              6.620813004889 Eh/a0 ::
         :: HOMO-LUMO gap              3.340621582928 eV    ::
         ::.................................................::
         :: SCC energy               -42.779077977399 Eh    ::
         :: -> isotropic ES            0.141123876439 Eh    ::
         :: -> anisotropic ES         -0.005230418907 Eh    ::
         :: -> anisotropic XC          0.011966818540 Eh    ::
         :: -> dispersion             -0.022657731803 Eh    ::
         :: repulsion energy           0.531105277918 Eh    ::
         :: add. restraining          -2.739836957866 Eh    ::
         :: total charge               1.000000000002 e     ::
         :::::::::::::::::::::::::::::::::::::::::::::::::::::

      ----------------------------------------------------------- 
     |                   =====================                   |
     |                        A N C O P T                        |
     |                   =====================                   |
     |               Approximate Normal Coordinate               |
     |                Rational Function Optimizer                |
      ----------------------------------------------------------- 

          ...................................................
          :                      SETUP                      :
          :.................................................:
          :   optimization level             loose          :
          :   max. optcycles                   200          :
          :   ANC micro-cycles                  20          :
          :   degrees of freedom                69          :
          :.................................................:
          :   RF solver                   davidson          :
          :   write xtbopt.log                true          :
          :   linear?                        false          :
          :   energy convergence         0.5000000E-04 Eh   :
          :   grad. convergence          0.4000000E-02 Eh/α :
          :   maxmium RF displ.          1.0000000          :
          :   Hlow (freq-cutoff)         0.1000000E-01      :
          :   Hmax (freq-cutoff)         5.0000000          :
          :   S6 in model hess.         20.0000000          :
          ...................................................

generating ANC from model Hessian ...
Using Lindh-Hessian (1995)
 Shifting diagonal of input Hessian by    7.4504206033265028     
 Lowest  eigenvalues of input Hessian
    0.010000    0.000000    0.000000    0.000000    0.000000    0.000000
    0.000000    7.453627    7.455776    7.458984    7.460526    7.461926
    7.464618    7.467104    7.469364    7.474274    7.487177    7.492080
 Highest eigenvalues
    9.513706    9.676255    9.714677    9.771087    9.974469   10.065172


........................................................................
.............................. CYCLE    1 ..............................
........................................................................

 iter      E             dE          RMSdq      gap      omega  full diag
   1    -42.7790780 -0.427791E+02  0.626E-05    3.34       0.0  T
   2    -42.7790780 -0.124203E-10  0.329E-05    3.34     607.4  T
   3    -42.7790780  0.106581E-12  0.193E-05    3.34    1034.2  T
     SCC iter.                  ...        0 min,  0.005 sec
     gradient                   ...        0 min,  0.013 sec
 * total energy  :   -44.9876955 Eh     change       -0.6650680E-10 Eh
   gradient norm :     6.6208128 Eh/α   predicted     0.0000000E+00 (-100.00%)
   displ. norm   :     0.9983693 α      lambda       -0.6601056E+01
   maximum displ.:     0.9972086 α      in ANC's #1, #19, #7, ...

........................................................................
.............................. CYCLE    2 ..............................
........................................................................

 iter      E             dE          RMSdq      gap      omega  full diag
   1    -42.7482435 -0.427482E+02  0.144E+00    3.19       0.0  T
   2    -42.7547925 -0.654904E-02  0.762E-01    3.19       1.0  T
   3    -42.7548151 -0.226277E-04  0.397E-01    3.30       1.0  T
   4    -42.7556307 -0.815554E-03  0.101E-01    3.20       1.0  T
   5    -42.7558104 -0.179714E-03  0.276E-02    3.24       1.0  T
   6    -42.7558127 -0.229378E-05  0.141E-02    3.23       1.4  T
   7    -42.7558137 -0.962082E-06  0.376E-03    3.24       5.3  T
   8    -42.7558138 -0.172093E-06  0.141E-03    3.24      14.2  T
   9    -42.7558138 -0.486306E-08  0.610E-04    3.24      32.8  T
  10    -42.7558138 -0.136896E-08  0.153E-04    3.24     131.0  T
     SCC iter.                  ...        0 min,  0.014 sec
     gradient                   ...        0 min,  0.013 sec
 * total energy  :   -55.3173422 Eh     change       -0.1032965E+02 Eh
   gradient norm :    13.9604634 Eh/α   predicted    -0.6594914E+01 ( -36.16%)
   displ. norm   :     0.9994954 α      lambda       -0.1395266E+02
   maximum displ.:     0.9990859 α      in ANC's #1, #4, #11, ...

........................................................................
.............................. CYCLE    3 ..............................
........................................................................

 iter      E             dE          RMSdq      gap      omega  full diag
   1    -42.5339972 -0.425340E+02  0.156E+00    2.56       0.0  T
   2    -42.5483145 -0.143173E-01  0.121E+00    3.50       1.0  T
   3    -42.5701649 -0.218504E-01  0.547E-01    3.21       1.0  T
   4    -42.5706350 -0.470165E-03  0.251E-01    3.18       1.0  T
   5    -42.5718071 -0.117207E-02  0.685E-02    3.27       1.0  T
   6    -42.5718851 -0.780252E-04  0.244E-02    3.23       1.0  T
   7    -42.5718858 -0.658605E-06  0.928E-03    3.23       2.2  T
   8    -42.5718866 -0.805907E-06  0.213E-03    3.23       9.4  T
   9    -42.5718866 -0.245597E-07  0.101E-03    3.23      19.8  T
  10    -42.5718866 -0.446892E-08  0.420E-04    3.23      47.6  T
  11    -42.5718866 -0.147374E-08  0.154E-04    3.23     129.8  T
     SCC iter.                  ...        0 min,  0.015 sec
     gradient                   ...        0 min,  0.013 sec
 * total energy  :   -72.4760181 Eh     change       -0.1715868E+02 Eh
   gradient norm :    20.4471075 Eh/α   predicted    -0.1394565E+02 ( -18.73%)
   displ. norm   :     0.9962530 α      lambda       -0.2035085E+02
   maximum displ.:     0.9818353 α      in ANC's #1, #7, #11, ...

........................................................................
.............................. CYCLE    4 ..............................
........................................................................

 iter      E             dE          RMSdq      gap      omega  full diag
   1    -42.2460502 -0.422461E+02  0.163E+00    2.20       0.0  T
   2    -42.2525679 -0.651778E-02  0.164E+00    2.87       1.0  T
   3    -42.3150371 -0.624692E-01  0.671E-01    2.56       1.0  T
   4    -42.3125030  0.253417E-02  0.464E-01    2.66       1.0  T
   5    -42.3167124 -0.420946E-02  0.999E-02    2.58       1.0  T
   6    -42.3168521 -0.139618E-03  0.318E-02    2.59       1.0  T
   7    -42.3168559 -0.379789E-05  0.166E-02    2.59       1.2  T
   8    -42.3168590 -0.311011E-05  0.477E-03    2.59       4.2  T
   9    -42.3168592 -0.280424E-06  0.181E-03    2.59      11.0  T
  10    -42.3168593 -0.160435E-07  0.604E-04    2.59      33.1  T
  11    -42.3168593 -0.312825E-08  0.216E-04    2.59      92.4  T
     SCC iter.                  ...        0 min,  0.015 sec
     gradient                   ...        0 min,  0.013 sec
 * total energy  :   -96.3792965 Eh     change       -0.2390328E+02 Eh
   gradient norm :    28.3529457 Eh/α   predicted    -0.2027756E+02 ( -15.17%)
   displ. norm   :     0.9922491 α      lambda       -0.2809671E+02
   maximum displ.:     0.9484657 α      in ANC's #1, #7, #11, ...

........................................................................
.............................. CYCLE    5 ..............................
........................................................................

 iter      E             dE          RMSdq      gap      omega  full diag
   1    -42.1146322 -0.421146E+02  0.170E+00    1.08       0.0  T
   2    -42.1265045 -0.118723E-01  0.840E-01    1.29       1.0  T
   3    -42.1217676  0.473692E-02  0.699E-01    0.93       1.0  T
   4    -42.1249738 -0.320618E-02  0.431E-01    1.45       1.0  T
   5    -42.1284790 -0.350519E-02  0.259E-01    1.05       1.0  T
   6    -42.1312020 -0.272303E-02  0.880E-02    1.19       1.0  T
   7    -42.1314104 -0.208365E-03  0.290E-02    1.18       1.0  T
   8    -42.1314182 -0.787024E-05  0.951E-03    1.18       2.1  T
   9    -42.1314205 -0.228771E-05  0.361E-03    1.18       5.5  T
  10    -42.1314206 -0.122110E-06  0.175E-03    1.18      11.4  T
  11    -42.1314207 -0.192994E-07  0.530E-04    1.18      37.7  T
  12    -42.1314207 -0.461248E-08  0.218E-04    1.18      91.9  T
     SCC iter.                  ...        0 min,  0.016 sec
     gradient                   ...        0 min,  0.013 sec
 * total energy  :  -128.4790867 Eh     change       -0.3209979E+02 Eh
   gradient norm :    36.6499159 Eh/α   predicted    -0.2788235E+02 ( -13.14%)
   displ. norm   :     0.9981741 α      lambda       -0.3657480E+02
   maximum displ.:     0.9857006 α      in ANC's #1, #29, #44, ...

........................................................................
.............................. CYCLE    6 ..............................
........................................................................

 iter      E             dE          RMSdq      gap      omega  full diag
   1    -41.9822504 -0.419823E+02  0.223E+00    0.13       0.0  T
   2    -41.8286037  0.153647E+00  0.239E+00    1.73       1.0  T
   3    -41.9926212 -0.164018E+00  0.126E+00    0.27       1.0  T
   4    -42.0337392 -0.411180E-01  0.734E-01    0.69       1.0  T
   5    -42.0506411 -0.169019E-01  0.161E-01    0.41       1.0  T
   6    -42.0508225 -0.181408E-03  0.597E-02    0.43       1.0  T
   7    -42.0508491 -0.265279E-04  0.289E-02    0.43       1.0  T
   8    -42.0508552 -0.616557E-05  0.126E-02    0.42       1.6  T
   9    -42.0508573 -0.205074E-05  0.429E-03    0.43       4.7  T
  10    -42.0508576 -0.305260E-06  0.156E-03    0.43      12.8  T
  11    -42.0508576 -0.105167E-07  0.774E-04    0.43      25.8  T
  12    -42.0508576 -0.418429E-08  0.419E-04    0.43      47.7  T
     SCC iter.                  ...        0 min,  0.016 sec
     gradient                   ...        0 min,  0.013 sec
 * total energy  :  -167.7978331 Eh     change       -0.3931875E+02 Eh
   gradient norm :    38.3469717 Eh/α   predicted    -0.3650809E+02 (  -7.15%)
   displ. norm   :     0.9960776 α      lambda       -0.3817892E+02
   maximum displ.:     0.9665694 α      in ANC's #1, #12, #11, ...

........................................................................
.............................. CYCLE    7 ..............................
........................................................................

 iter      E             dE          RMSdq      gap      omega  full diag
   1    -41.8484591 -0.418485E+02  0.319E+00    0.16       0.0  T
   2    -41.7981908  0.502684E-01  0.278E+00    0.62       1.0  T
   3    -42.0378979 -0.239707E+00  0.973E-01    0.29       1.0  T
   4    -42.0111532  0.267447E-01  0.967E-01    0.97       1.0  T
   5    -42.0107219  0.431279E-03  0.838E-01    0.12       1.0  T
   6    -42.0444459 -0.337240E-01  0.284E-01    0.53       1.0  T
   7    -42.0462927 -0.184683E-02  0.620E-02    0.47       1.0  T
   8    -42.0463599 -0.671692E-04  0.247E-02    0.47       1.0  T
   9    -42.0463664 -0.655472E-05  0.104E-02    0.47       1.9  T
  10    -42.0463707 -0.427393E-05  0.308E-03    0.47       6.5  T
  11    -42.0463708 -0.113093E-06  0.176E-03    0.47      11.3  T
  12    -42.0463709 -0.595089E-07  0.508E-04    0.47      39.4  T
  13    -42.0463709 -0.355588E-08  0.176E-04    0.47     113.5  T
     SCC iter.                  ...        0 min,  0.017 sec
     gradient                   ...        0 min,  0.013 sec
 * total energy  :  -176.2124149 Eh     change       -0.8414582E+01 Eh
   gradient norm :    23.4111341 Eh/α   predicted    -0.3802946E+02 ( 351.95%)
   displ. norm   :     0.5418637 α      lambda       -0.9366754E+01
   maximum displ.:     0.3766551 α      in ANC's #1, #29, #44, ...

........................................................................
.............................. CYCLE    8 ..............................
........................................................................

 iter      E             dE          RMSdq      gap      omega  full diag
   1    -42.1193574 -0.421194E+02  0.132E+00    0.98       0.0  T
   2    -41.9204099  0.198948E+00  0.235E+00    0.34       1.0  T
   3    -42.1604474 -0.240037E+00  0.731E-01    0.70       1.0  T
   4    -42.1550807  0.536662E-02  0.772E-01    0.43       1.0  T
   5    -42.1619760 -0.689530E-02  0.473E-01    0.42       1.0  T
   6    -42.1687231 -0.674703E-02  0.170E-01    0.58       1.0  T
   7    -42.1697577 -0.103465E-02  0.325E-02    0.59       1.0  T
   8    -42.1697745 -0.168216E-04  0.174E-02    0.60       1.2  T
   9    -42.1697759 -0.131329E-05  0.879E-03    0.60       2.3  T
  10    -42.1697778 -0.194323E-05  0.167E-03    0.60      12.0  T
  11    -42.1697778 -0.408357E-07  0.698E-04    0.59      28.7  T
  12    -42.1697778 -0.264511E-08  0.384E-04    0.59      52.0  T
     SCC iter.                  ...        0 min,  0.016 sec
     gradient                   ...        0 min,  0.013 sec
 * total energy  :  -177.8139576 Eh     change       -0.1601543E+01 Eh
   gradient norm :    18.2849045 Eh/α   predicted    -0.6058499E+01 ( 278.29%)
   displ. norm   :     0.9519501 α      lambda       -0.1373483E+02
   maximum displ.:     0.5271468 α      in ANC's #1, #12, #11, ...

........................................................................
.............................. CYCLE    9 ..............................
........................................................................

 iter      E             dE          RMSdq      gap      omega  full diag
   1    -42.0460469 -0.420460E+02  0.218E+00    0.27       0.0  T
   2    -41.7848785  0.261168E+00  0.361E+00    0.79       1.0  T
   3    -42.1641228 -0.379244E+00  0.109E+00    0.51       1.0  T
   4    -42.1191319  0.449909E-01  0.124E+00    0.13       1.0  T
   5    -42.1202569 -0.112506E-02  0.104E+00    0.86       1.0  T
   6    -42.1736686 -0.534117E-01  0.114E-01    0.40       1.0  T
   7    -42.1739196 -0.250994E-03  0.619E-02    0.41       1.0  T
   8    -42.1739491 -0.294230E-04  0.316E-02    0.42       1.0  T
   9    -42.1739576 -0.853558E-05  0.181E-02    0.42       1.1  T
  10    -42.1739658 -0.824982E-05  0.539E-03    0.42       3.7  T
  11    -42.1739664 -0.589289E-06  0.138E-03    0.42      14.5  T
  12    -42.1739664 -0.868247E-08  0.768E-04    0.42      26.0  T
  13    -42.1739665 -0.709675E-08  0.269E-04    0.42      74.4  T
     SCC iter.                  ...        0 min,  0.018 sec
     gradient                   ...        0 min,  0.013 sec
 * total energy  :  -149.2496902 Eh     change        0.2856427E+02 Eh
   gradient norm :    42.3213723 Eh/α   predicted    -0.1309073E+02 (-145.83%)
   displ. norm   :     0.5106568 α      lambda       -0.2126796E+02
   maximum displ.:     0.2984963 α      in ANC's #1, #2, #11, ...

........................................................................
.............................. CYCLE   10 ..............................
........................................................................

 iter      E             dE          RMSdq      gap      omega  full diag
   1    -42.1076795 -0.421077E+02  0.196E+00    0.90       0.0  T
   2    -41.6704404  0.437239E+00  0.372E+00    0.99       1.0  T
   3    -42.2214344 -0.550994E+00  0.803E-01    0.81       1.0  T
   4    -42.1856593  0.357751E-01  0.109E+00    0.26       1.0  T
   5    -42.2160485 -0.303891E-01  0.648E-01    0.66       1.0  T
   6    -42.2314945 -0.154461E-01  0.217E-01    0.60       1.0  T
   7    -42.2329843 -0.148976E-02  0.642E-02    0.61       1.0  T
   8    -42.2330787 -0.944097E-04  0.274E-02    0.63       1.0  T
   9    -42.2330910 -0.122937E-04  0.946E-03    0.63       2.1  T
  10    -42.2330920 -0.954878E-06  0.199E-03    0.63      10.1  T
  11    -42.2330920 -0.744630E-07  0.699E-04    0.63      28.6  T
  12    -42.2330920 -0.303366E-08  0.331E-04    0.63      60.4  T
     SCC iter.                  ...        0 min,  0.016 sec
     gradient                   ...        0 min,  0.013 sec
 * total energy  :  -169.5914416 Eh     change       -0.2034175E+02 Eh
   gradient norm :    37.8464784 Eh/α   predicted    -0.1340701E+02 ( -34.09%)
   displ. norm   :     0.8856810 α      lambda       -0.3302486E+02
   maximum displ.:     0.4464567 α      in ANC's #1, #2, #12, ...

........................................................................
.............................. CYCLE   11 ..............................
........................................................................

 iter      E             dE          RMSdq      gap      omega  full diag
   1    -42.1231158 -0.421231E+02  0.188E+00    0.73       0.0  T
   2    -41.9979268  0.125189E+00  0.231E+00    0.03       1.0  T
   3    -42.1639810 -0.166054E+00  0.897E-01    0.85       1.0  T
   4    -42.1187569  0.452241E-01  0.117E+00    0.04       1.0  T
   5    -42.1765161 -0.577592E-01  0.342E-01    0.69       1.0  T
   6    -42.1807231 -0.420706E-02  0.107E-01    0.56       1.0  T
   7    -42.1810730 -0.349863E-03  0.449E-02    0.57       1.0  T
   8    -42.1811191 -0.461158E-04  0.180E-02    0.57       1.1  T
   9    -42.1811209 -0.181243E-05  0.946E-03    0.57       2.1  T
  10    -42.1811233 -0.240194E-05  0.221E-03    0.57       9.1  T
  11    -42.1811234 -0.478753E-07  0.873E-04    0.57      22.9  T
  12    -42.1811234 -0.318282E-08  0.395E-04    0.57      50.7  T
     SCC iter.                  ...        0 min,  0.016 sec
     gradient                   ...        0 min,  0.013 sec
 * total energy  :  -178.5741529 Eh     change       -0.8982711E+01 Eh
   gradient norm :     5.5918716 Eh/α   predicted    -0.2946531E+02 ( 228.02%)
   displ. norm   :     0.5148324 α      lambda       -0.1015879E+01
   maximum displ.:     0.1813351 α      in ANC's #29, #44, #1, ...

........................................................................
.............................. CYCLE   12 ..............................
........................................................................

 iter      E             dE          RMSdq      gap      omega  full diag
   1    -42.1450468 -0.421450E+02  0.144E+00    0.56       0.0  T
   2    -41.9254029  0.219644E+00  0.253E+00    0.60       1.0  T
   3    -42.1921882 -0.266785E+00  0.734E-01    0.63       1.0  T
   4    -42.1761490  0.160392E-01  0.923E-01    0.10       1.0  T
   5    -42.2007301 -0.245811E-01  0.225E-01    0.44       1.0  T
   6    -42.2008238 -0.937048E-04  0.200E-01    0.43       1.0  T
   7    -42.2023907 -0.156690E-02  0.610E-02    0.43       1.0  T
   8    -42.2024445 -0.538404E-04  0.315E-02    0.43       1.0  T
   9    -42.2024477 -0.318058E-05  0.224E-02    0.42       1.0  T
  10    -42.2024616 -0.139383E-04  0.411E-03    0.43       4.9  T
  11    -42.2024618 -0.125608E-06  0.244E-03    0.43       8.2  T
  12    -42.2024618 -0.672799E-07  0.653E-04    0.43      30.6  T
  13    -42.2024618 -0.879668E-08  0.228E-04    0.43      87.7  T
     SCC iter.                  ...        0 min,  0.018 sec
     gradient                   ...        0 min,  0.013 sec
 * total energy  :  -174.1961851 Eh     change        0.4377968E+01 Eh
   gradient norm :   102.3176293 Eh/α   predicted    -0.6425712E+00 (-114.68%)
   displ. norm   :     0.1245554 α      lambda       -0.1213415E+02
   maximum displ.:     0.0676678 α      in ANC's #11, #1, #12, ...

........................................................................
.............................. CYCLE   13 ..............................
........................................................................

 iter      E             dE          RMSdq      gap      omega  full diag
   1    -42.1844869 -0.421845E+02  0.315E-01    0.44       0.0  T
   2    -42.1785640  0.592292E-02  0.536E-01    0.32       1.0  T
   3    -42.1859981 -0.743415E-02  0.148E-01    0.43       1.0  T
   4    -42.1827465  0.325160E-02  0.266E-01    0.29       1.0  T
   5    -42.1861001 -0.335359E-02  0.254E-02    0.41       1.0  T
   6    -42.1861096 -0.945201E-05  0.159E-02    0.41       1.3  T
   7    -42.1861179 -0.833613E-05  0.799E-03    0.41       2.5  T
   8    -42.1861180 -0.804846E-07  0.496E-03    0.41       4.0  T
   9    -42.1861187 -0.728431E-06  0.220E-03    0.41       9.1  T
  10    -42.1861189 -0.121242E-06  0.764E-04    0.41      26.2  T
  11    -42.1861189 -0.432759E-08  0.368E-04    0.41      54.3  T
     SCC iter.                  ...        0 min,  0.015 sec
     gradient                   ...        0 min,  0.013 sec
 * total energy  :  -178.7272011 Eh     change       -0.4531016E+01 Eh
   gradient norm :     0.9668567 Eh/α   predicted    -0.6161203E+01 (  35.98%)
   displ. norm   :     0.1630290 α      lambda        0.1103261E+00
   maximum displ.:     0.0463283 α      in ANC's #48, #56, #55, ...

........................................................................
.............................. CYCLE   14 ..............................
........................................................................

 iter      E             dE          RMSdq      gap      omega  full diag
   1    -42.1905571 -0.421906E+02  0.268E-01    0.52       0.0  T
   2    -42.1749504  0.156066E-01  0.604E-01    0.18       1.0  T
   3    -42.1928940 -0.179435E-01  0.102E-01    0.43       1.0  T
   4    -42.1928073  0.866410E-04  0.742E-02    0.40       1.0  T
   5    -42.1928234 -0.161092E-04  0.626E-02    0.42       1.0  T
   6    -42.1929253 -0.101818E-03  0.175E-02    0.42       1.1  T
   7    -42.1929342 -0.890849E-05  0.586E-03    0.42       3.4  T
   8    -42.1929341  0.506666E-07  0.356E-03    0.42       5.6  T
   9    -42.1929342 -0.435990E-07  0.323E-03    0.42       6.2  T
  10    -42.1929345 -0.333146E-06  0.518E-04    0.42      38.6  T
  11    -42.1929345  0.675563E-09  0.353E-04    0.42      56.6  T
     SCC iter.                  ...        0 min,  0.015 sec
     gradient                   ...        0 min,  0.013 sec
 * total energy  :  -178.7318242 Eh     change       -0.4623129E-02 Eh
   gradient norm :     0.7021669 Eh/α   predicted     0.5662891E-01 (*******%)
   displ. norm   :     0.2214786 α      lambda       -0.2832886E-01
   maximum displ.:     0.0542496 α      in ANC's #60, #56, #44, ...

........................................................................
.............................. CYCLE   15 ..............................
........................................................................

 iter      E             dE          RMSdq      gap      omega  full diag
   1    -42.1941960 -0.421942E+02  0.442E-01    0.57       0.0  T
   2    -42.1590567  0.351394E-01  0.955E-01    0.18       1.0  T
   3    -42.1996679 -0.406113E-01  0.189E-01    0.47       1.0  T
   4    -42.1989090  0.758910E-03  0.186E-01    0.39       1.0  T
   5    -42.1996536 -0.744537E-03  0.111E-01    0.45       1.0  T
   6    -42.1998792 -0.225664E-03  0.512E-02    0.44       1.0  T
   7    -42.1999595 -0.802637E-04  0.144E-02    0.44       1.4  T
   8    -42.1999587  0.808625E-06  0.988E-03    0.44       2.0  T
   9    -42.1999604 -0.170267E-05  0.436E-03    0.44       4.6  T
  10    -42.1999611 -0.742321E-06  0.151E-03    0.44      13.2  T
  11    -42.1999612 -0.312558E-07  0.688E-04    0.44      29.1  T
  12    -42.1999612 -0.486775E-08  0.159E-04    0.44     125.5  T
     SCC iter.                  ...        0 min,  0.016 sec
     gradient                   ...        0 min,  0.013 sec
 * total energy  :  -178.7485418 Eh     change       -0.1671761E-01 Eh
   gradient norm :     1.8750891 Eh/α   predicted    -0.1485982E-01 ( -11.11%)
   displ. norm   :     0.3499078 α      lambda       -0.9660423E-01
   maximum displ.:     0.1227399 α      in ANC's #6, #2, #48, ...

........................................................................
.............................. CYCLE   16 ..............................
........................................................................

 iter      E             dE          RMSdq      gap      omega  full diag
   1    -42.1742095 -0.421742E+02  0.767E-01    0.45       0.0  T
   2    -42.1583583  0.158512E-01  0.947E-01    0.64       1.0  T
   3    -42.1813086 -0.229503E-01  0.422E-01    0.41       1.0  T
   4    -42.1821750 -0.866468E-03  0.298E-01    0.59       1.0  T
   5    -42.1819301  0.244927E-03  0.316E-01    0.38       1.0  T
   6    -42.1856199 -0.368980E-02  0.792E-02    0.50       1.0  T
   7    -42.1857392 -0.119289E-03  0.301E-02    0.50       1.0  T
   8    -42.1857474 -0.817157E-05  0.283E-02    0.48       1.0  T
   9    -42.1857613 -0.139448E-04  0.145E-02    0.49       1.4  T
  10    -42.1857664 -0.506718E-05  0.480E-03    0.49       4.2  T
  11    -42.1857668 -0.462909E-06  0.205E-03    0.49       9.8  T
  12    -42.1857669 -0.514380E-07  0.852E-04    0.49      23.5  T
  13    -42.1857669 -0.102493E-07  0.264E-04    0.49      75.8  T
     SCC iter.                  ...        0 min,  0.018 sec
     gradient                   ...        0 min,  0.013 sec
 * total energy  :  -178.7899384 Eh     change       -0.4139652E-01 Eh
   gradient norm :     0.4473181 Eh/α   predicted    -0.5421652E-01 (  30.97%)
   displ. norm   :     0.1014109 α      lambda       -0.1260012E-01
   maximum displ.:     0.0408857 α      in ANC's #6, #11, #2, ...

........................................................................
.............................. CYCLE   17 ..............................
........................................................................

 iter      E             dE          RMSdq      gap      omega  full diag
   1    -42.1915442 -0.421915E+02  0.231E-01    0.60       0.0  T
   2    -42.1881597  0.338441E-02  0.332E-01    0.40       1.0  T
   3    -42.1923134 -0.415362E-02  0.118E-01    0.57       1.0  T
   4    -42.1919671  0.346253E-03  0.127E-01    0.51       1.0  T
   5    -42.1926047 -0.637536E-03  0.452E-02    0.54       1.0  T
   6    -42.1926725 -0.678020E-04  0.894E-03    0.53       2.2  T
   7    -42.1926733 -0.874642E-06  0.598E-03    0.53       3.3  T
   8    -42.1926738 -0.421006E-06  0.450E-03    0.53       4.4  T
   9    -42.1926740 -0.269089E-06  0.214E-03    0.53       9.4  T
  10    -42.1926742 -0.131226E-06  0.667E-04    0.53      30.0  T
  11    -42.1926742 -0.458201E-08  0.368E-04    0.53      54.3  T
     SCC iter.                  ...        0 min,  0.015 sec
     gradient                   ...        0 min,  0.013 sec
 * total energy  :  -178.8013237 Eh     change       -0.1138536E-01 Eh
   gradient norm :     0.2157651 Eh/α   predicted    -0.6365121E-02 ( -44.09%)
   displ. norm   :     0.4320892 α      lambda       -0.5084701E-01
   maximum displ.:     0.1460810 α      in ANC's #6, #11, #30, ...

........................................................................
.............................. CYCLE   18 ..............................
........................................................................

 iter      E             dE          RMSdq      gap      omega  full diag
   1    -42.2109701 -0.422110E+02  0.887E-01    0.97       0.0  T
   2    -42.1692081  0.417620E-01  0.119E+00    0.19       1.0  T
   3    -42.2188637 -0.496556E-01  0.492E-01    0.87       1.0  T
   4    -42.2146115  0.425216E-02  0.510E-01    0.60       1.0  T
   5    -42.2246942 -0.100827E-01  0.131E-01    0.72       1.0  T
   6    -42.2250449 -0.350746E-03  0.741E-02    0.68       1.0  T
   7    -42.2251538 -0.108908E-03  0.399E-02    0.70       1.0  T
   8    -42.2251772 -0.234071E-04  0.166E-02    0.70       1.2  T
   9    -42.2251774 -0.210644E-06  0.108E-02    0.70       1.8  T
  10    -42.2251809 -0.344210E-05  0.399E-03    0.70       5.0  T
  11    -42.2251812 -0.325386E-06  0.176E-03    0.70      11.4  T
  12    -42.2251813 -0.334177E-07  0.574E-04    0.70      34.8  T
  13    -42.2251813 -0.845557E-08  0.140E-04    0.70     143.2  T
     SCC iter.                  ...        0 min,  0.018 sec
     gradient                   ...        0 min,  0.013 sec
 * total energy  :  -178.8009017 Eh     change        0.4220199E-03 Eh
   gradient norm :     4.9340233 Eh/α   predicted    -0.3017160E-01 (*******%)
   displ. norm   :     0.1301429 α      lambda       -0.1094931E+00
   maximum displ.:     0.0440821 α      in ANC's #11, #2, #38, ...

........................................................................
.............................. CYCLE   19 ..............................
........................................................................

 iter      E             dE          RMSdq      gap      omega  full diag
   1    -42.2154445 -0.422154E+02  0.209E-01    0.61       0.0  T
   2    -42.2131221  0.232243E-02  0.281E-01    0.79       1.0  T
   3    -42.2158939 -0.277185E-02  0.128E-01    0.63       1.0  T
   4    -42.2161547 -0.260748E-03  0.786E-02    0.68       1.0  T
   5    -42.2161730 -0.183301E-04  0.721E-02    0.67       1.0  T
   6    -42.2163356 -0.162579E-03  0.188E-02    0.67       1.1  T
   7    -42.2163430 -0.741464E-05  0.793E-03    0.67       2.5  T
   8    -42.2163438 -0.761269E-06  0.501E-03    0.67       4.0  T
   9    -42.2163442 -0.434798E-06  0.237E-03    0.67       8.4  T
  10    -42.2163443 -0.102083E-06  0.815E-04    0.67      24.5  T
  11    -42.2163443 -0.151424E-07  0.395E-04    0.67      50.7  T
     SCC iter.                  ...        0 min,  0.015 sec
     gradient                   ...        0 min,  0.013 sec
 * total energy  :  -178.8314431 Eh     change       -0.3054140E-01 Eh
   gradient norm :     0.1954634 Eh/α   predicted    -0.5567550E-01 (  82.30%)
   displ. norm   :     0.1316549 α      lambda       -0.1020355E-01
   maximum displ.:     0.0487267 α      in ANC's #2, #30, #11, ...

........................................................................
.............................. CYCLE   20 ..............................
........................................................................

 iter      E             dE          RMSdq      gap      omega  full diag
   1    -42.2258479 -0.422258E+02  0.270E-01    0.80       0.0  T
   2    -42.2220887  0.375920E-02  0.372E-01    0.54       1.0  T
   3    -42.2266241 -0.453546E-02  0.149E-01    0.76       1.0  T
   4    -42.2259676  0.656518E-03  0.173E-01    0.68       1.0  T
   5    -42.2271175 -0.114985E-02  0.386E-02    0.71       1.0  T
   6    -42.2271448 -0.273756E-04  0.297E-02    0.72       1.0  T
   7    -42.2271632 -0.183749E-04  0.137E-02    0.71       1.5  T
   8    -42.2271643 -0.106739E-05  0.829E-03    0.72       2.4  T
   9    -42.2271653 -0.980967E-06  0.388E-03    0.72       5.2  T
  10    -42.2271656 -0.332620E-06  0.119E-03    0.71      16.8  T
  11    -42.2271656 -0.211590E-07  0.250E-04    0.71      80.1  T
  12    -42.2271656 -0.962750E-09  0.908E-05    0.71     220.3  T
     SCC iter.                  ...        0 min,  0.016 sec
     gradient                   ...        0 min,  0.013 sec
 * total energy  :  -178.8398040 Eh     change       -0.8360921E-02 Eh
   gradient norm :     0.2949315 Eh/α   predicted    -0.5190008E-02 ( -37.93%)
   displ. norm   :     0.2093689 α      lambda       -0.1964657E-01
   maximum displ.:     0.0861593 α      in ANC's #30, #11, #2, ...
 * RMSD in coord.:     1.1884865 α      energy gain  -0.1338521E+03 Eh

generating ANC from model Hessian ...
Using Lindh-Hessian (1995)
 Shifting diagonal of input Hessian by    3.3666422699143657     
 Lowest  eigenvalues of input Hessian
    0.010000    0.000000    0.000000    0.000000    0.000000    0.000000
    0.000000    3.367843    3.368302    3.369089    3.371780    3.372958
    3.375694    3.378771    3.379577    3.380362    3.384600    3.387677
 Highest eigenvalues
    5.265476    5.561261    5.727705    6.007384  189.163520  205.745290


........................................................................
.............................. CYCLE   21 ..............................
........................................................................

 iter      E             dE          RMSdq      gap      omega  full diag
   1    -42.2389231 -0.422389E+02  0.519E-01    1.04       0.0  T
   2    -42.2004246  0.384985E-01  0.106E+00    0.27       1.0  T
   3    -42.2460571 -0.456325E-01  0.225E-01    0.84       1.0  T
   4    -42.2458001  0.257030E-03  0.229E-01    0.76       1.0  T
   5    -42.2468297 -0.102965E-02  0.116E-01    0.76       1.0  T
   6    -42.2471550 -0.325306E-03  0.639E-02    0.78       1.0  T
   7    -42.2472578 -0.102782E-03  0.199E-02    0.79       1.0  T
   8    -42.2472649 -0.706823E-05  0.797E-03    0.79       2.5  T
   9    -42.2472643  0.542983E-06  0.678E-03    0.79       3.0  T
  10    -42.2472656 -0.127661E-05  0.217E-03    0.79       9.2  T
  11    -42.2472657 -0.126205E-06  0.660E-04    0.79      30.3  T
  12    -42.2472657 -0.620273E-08  0.244E-04    0.79      81.9  T
     SCC iter.                  ...        0 min,  0.016 sec
     gradient                   ...        0 min,  0.013 sec
 * total energy  :  -178.8515131 Eh     change       -0.1170909E-01 Eh
   gradient norm :     1.1708307 Eh/α   predicted     0.0000000E+00 (-100.00%)
   displ. norm   :     0.9932390 α      lambda       -0.1143591E+01
   maximum displ.:     0.9926143 α      in ANC's #1, #61, #47, ...

........................................................................
.............................. CYCLE   22 ..............................
........................................................................

 iter      E             dE          RMSdq      gap      omega  full diag
   1    -42.1899018 -0.421899E+02  0.240E+00    0.69       0.0  T
   2    -41.9445804  0.245321E+00  0.329E+00    0.58       1.0  T
   3    -42.2734093 -0.328829E+00  0.135E+00    1.11       1.0  T
   4    -42.2455225  0.278868E-01  0.135E+00    0.02       1.0  T
   5    -42.3081470 -0.626245E-01  0.369E-01    0.78       1.0  T
   6    -42.3134017 -0.525472E-02  0.915E-02    0.62       1.0  T
   7    -42.3136611 -0.259407E-03  0.331E-02    0.60       1.0  T
   8    -42.3136575  0.362938E-05  0.213E-02    0.59       1.0  T
   9    -42.3136660 -0.856968E-05  0.969E-03    0.60       2.1  T
  10    -42.3136686 -0.260308E-05  0.176E-03    0.60      11.4  T
  11    -42.3136686 -0.279136E-08  0.109E-03    0.60      18.3  T
  12    -42.3136687 -0.192331E-07  0.289E-04    0.60      69.3  T
  13    -42.3136687 -0.106962E-08  0.864E-05    0.60     231.6  T
     SCC iter.                  ...        0 min,  0.018 sec
     gradient                   ...        0 min,  0.013 sec
 * total energy  :  -165.5200480 Eh     change        0.1333147E+02 Eh
   gradient norm :    40.6016896 Eh/α   predicted    -0.1143988E+01 (-108.58%)
   displ. norm   :     0.6077769 α      lambda       -0.2467580E+02
   maximum displ.:     0.6066439 α      in ANC's #1, #50, #61, ...

........................................................................
.............................. CYCLE   23 ..............................
........................................................................

 iter      E             dE          RMSdq      gap      omega  full diag
   1    -42.1926504 -0.421927E+02  0.212E+00    0.92       0.0  T
   2    -42.0107780  0.181872E+00  0.290E+00    0.46       1.0  T
   3    -42.2793496 -0.268572E+00  0.530E-01    0.81       1.0  T
   4    -42.2757097  0.363990E-02  0.512E-01    0.57       1.0  T
   5    -42.2824618 -0.675212E-02  0.155E-01    0.78       1.0  T
   6    -42.2820663  0.395547E-03  0.171E-01    0.65       1.0  T
   7    -42.2832511 -0.118490E-02  0.396E-02    0.72       1.0  T
   8    -42.2832825 -0.313334E-04  0.169E-02    0.71       1.2  T
   9    -42.2832864 -0.394370E-05  0.462E-03    0.71       4.3  T
  10    -42.2832869 -0.510876E-06  0.190E-03    0.71      10.5  T
  11    -42.2832870 -0.512412E-07  0.482E-04    0.71      41.5  T
  12    -42.2832870 -0.294106E-08  0.171E-04    0.71     117.0  T
     SCC iter.                  ...        0 min,  0.016 sec
     gradient                   ...        0 min,  0.013 sec
 * total energy  :  -167.7653657 Eh     change       -0.2245318E+01 Eh
   gradient norm :   236.4262609 Eh/α   predicted    -0.1689543E+02 ( 652.47%)
   displ. norm   :     0.4249736 α      lambda       -0.1004507E+03
   maximum displ.:     0.4226442 α      in ANC's #1, #61, #50, ...

........................................................................
.............................. CYCLE   24 ..............................
........................................................................

 iter      E             dE          RMSdq      gap      omega  full diag
   1    -42.2828304 -0.422828E+02  0.126E+00    0.66       0.0  T
   2    -42.2034635  0.793669E-01  0.184E+00    0.59       1.0  T
   3    -42.3023247 -0.988612E-01  0.708E-01    0.88       1.0  T
   4    -42.2998084  0.251634E-02  0.650E-01    0.35       1.0  T
   5    -42.3144470 -0.146386E-01  0.165E-01    0.70       1.0  T
   6    -42.3153309 -0.883926E-03  0.449E-02    0.64       1.0  T
   7    -42.3153799 -0.489617E-04  0.200E-02    0.64       1.0  T
   8    -42.3153838 -0.388563E-05  0.107E-02    0.64       1.9  T
   9    -42.3153858 -0.198272E-05  0.348E-03    0.64       5.8  T
  10    -42.3153860 -0.198627E-06  0.949E-04    0.64      21.1  T
  11    -42.3153860 -0.810483E-08  0.599E-04    0.64      33.4  T
     SCC iter.                  ...        0 min,  0.015 sec
     gradient                   ...        0 min,  0.013 sec
 * total energy  :  -172.6018484 Eh     change       -0.4836483E+01 Eh
   gradient norm :    35.9346495 Eh/α   predicted    -0.5929629E+02 (1126.02%)
   displ. norm   :     0.0984709 α      lambda       -0.2047836E+01
   maximum displ.:     0.0798416 α      in ANC's #61, #1, #50, ...

........................................................................
.............................. CYCLE   25 ..............................
........................................................................

 iter      E             dE          RMSdq      gap      omega  full diag
   1    -42.2949908 -0.422950E+02  0.336E-01    0.65       0.0  T
   2    -42.2917029  0.328790E-02  0.410E-01    0.59       1.0  T
   3    -42.2968628 -0.515990E-02  0.116E-01    0.65       1.0  T
   4    -42.2966965  0.166295E-03  0.105E-01    0.59       1.0  T
   5    -42.2968402 -0.143732E-03  0.784E-02    0.67       1.0  T
   6    -42.2970748 -0.234601E-03  0.193E-02    0.63       1.0  T
   7    -42.2970857 -0.108389E-04  0.750E-03    0.63       2.7  T
   8    -42.2970862 -0.499748E-06  0.238E-03    0.63       8.4  T
   9    -42.2970862 -0.662030E-07  0.105E-03    0.63      19.0  T
  10    -42.2970862 -0.248656E-07  0.429E-04    0.63      46.6  T
  11    -42.2970862 -0.340499E-09  0.238E-04    0.63      84.1  T
     SCC iter.                  ...        0 min,  0.015 sec
     gradient                   ...        0 min,  0.013 sec
 * total energy  :  -174.3677003 Eh     change       -0.1765852E+01 Eh
   gradient norm :    33.2417897 Eh/α   predicted    -0.1033845E+01 ( -41.45%)
   displ. norm   :     0.8212488 α      lambda       -0.2665481E+02
   maximum displ.:     0.7838931 α      in ANC's #1, #61, #50, ...

........................................................................
.............................. CYCLE   26 ..............................
........................................................................

 iter      E             dE          RMSdq      gap      omega  full diag
   1    -42.1813211 -0.421813E+02  0.223E+00    0.92       0.0  T
   2    -41.9964969  0.184824E+00  0.320E+00    0.69       1.0  T
   3    -42.2685256 -0.272029E+00  0.721E-01    0.90       1.0  T
   4    -42.2297033  0.388223E-01  0.960E-01    0.40       1.0  T
   5    -42.2678056 -0.381023E-01  0.300E-01    0.93       1.0  T
   6    -42.2714801 -0.367452E-02  0.748E-02    0.79       1.0  T
   7    -42.2715446 -0.644158E-04  0.407E-02    0.81       1.0  T
   8    -42.2715619 -0.173226E-04  0.319E-02    0.80       1.0  T
   9    -42.2715848 -0.229196E-04  0.116E-02    0.80       1.7  T
  10    -42.2715871 -0.225620E-05  0.446E-03    0.80       4.5  T
  11    -42.2715875 -0.391306E-06  0.272E-03    0.80       7.4  T
  12    -42.2715876 -0.131040E-06  0.608E-04    0.80      32.9  T
  13    -42.2715876 -0.782318E-08  0.222E-04    0.80      90.0  T
     SCC iter.                  ...        0 min,  0.018 sec
     gradient                   ...        0 min,  0.013 sec
 * total energy  :  -177.8456688 Eh     change       -0.3477969E+01 Eh
   gradient norm :    20.8135557 Eh/α   predicted    -0.2231618E+02 ( 541.64%)
   displ. norm   :     0.3008856 α      lambda       -0.6249933E+01
   maximum displ.:     0.2484438 α      in ANC's #1, #61, #69, ...

........................................................................
.............................. CYCLE   27 ..............................
........................................................................

 iter      E             dE          RMSdq      gap      omega  full diag
   1    -42.2617151 -0.422617E+02  0.651E-01    0.79       0.0  T
   2    -42.2228662  0.388489E-01  0.124E+00    0.54       1.0  T
   3    -42.2685702 -0.457040E-01  0.299E-01    0.79       1.0  T
   4    -42.2622146  0.635567E-02  0.406E-01    0.54       1.0  T
   5    -42.2684476 -0.623304E-02  0.156E-01    0.78       1.0  T
   6    -42.2692445 -0.796938E-03  0.310E-02    0.73       1.0  T
   7    -42.2692688 -0.242996E-04  0.167E-02    0.73       1.2  T
   8    -42.2692745 -0.567054E-05  0.811E-03    0.73       2.5  T
   9    -42.2692748 -0.343770E-06  0.317E-03    0.73       6.3  T
  10    -42.2692752 -0.370745E-06  0.164E-03    0.73      12.2  T
  11    -42.2692753 -0.462368E-07  0.729E-04    0.73      27.4  T
  12    -42.2692753 -0.493426E-08  0.214E-04    0.73      93.3  T
     SCC iter.                  ...        0 min,  0.016 sec
     gradient                   ...        0 min,  0.013 sec
================
 final structure:
================
25
 xtb: 6.6.1 (8d0f1dd)
C            3.21786164340000        1.13591514650000        0.01837059260000
N            2.27034809790000        0.05199982890000        0.00038279530000
C            2.54167221030000       -1.23971668410000       -0.00834188300000
N            1.39367826450000       -1.95088267900000       -0.00850347120000
C            0.35269634020000       -1.06748964300000        0.00059917290000
C            0.90759959010000        0.20069750900000        0.00663590170000
C            0.07590235260000        1.39864294500000       -0.00284827040000
O            0.48715076820000        2.53168346660000       -0.01725767220000
N           -1.27221500230000        1.06666939660000        0.00165480230000
C           -2.23229981500000        2.16656245330000       -0.00245172030000
C           -1.84872931540000       -0.19179276200000        0.00496135950000
O           -3.03273030250000       -0.36103538130000        0.00858583760000
N           -0.96599111670000       -1.30060631840000        0.00174701630000
C           -1.52030655580000       -2.64076660390000       -0.00239033190000
H            3.71480285180000        1.18589984860000        0.98803183970000
H            3.97079415090000        0.99383197990000       -0.75543416370000
H            2.68321036910000        2.07051068580000       -0.15067179540000
H            3.52469367910000       -1.66989040330000       -0.01523639120000
H           -1.67672429040000        3.10039111610000        0.00486339690000
H           -2.85755792270000        2.10547813320000       -0.89185337000000
H           -2.87119733260000        2.09858159720000        0.87661144540000
H           -1.20589108080000       -3.18768007210000        0.88663215920000
H           -1.21982032550000       -3.17678505510000       -0.90288069810000
H           -2.60531402170000       -2.54255916880000        0.00649952960000
H            1.32879827740000       -2.95942079410000       -0.01653446370000

 Bond Distances (Angstroems)
 ---------------------------
C1-N2=1.4398         C1-H15=1.0907        C1-H16=1.0890        C1-H17=1.0899        N2-C1=1.4398         N2-C3=1.3199         
N2-C6=1.3709         C3-N2=1.3199         C3-N4=1.3504         C3-H18=1.0730        N4-C3=1.3504         N4-C5=1.3653         
N4-H25=1.0107        C5-N4=1.3653         C5-C6=1.3843         C5-N13=1.3391        C6-N2=1.3709         C6-C5=1.3843         
C6-C7=1.4584         C7-C6=1.4584         C7-O8=1.2055         C7-N9=1.3884         O8-C7=1.2055         N9-C7=1.3884         
N9-C10=1.4600        N9-C11=1.3842        C10-N9=1.4600        C10-H19=1.0866       C10-H20=1.0889       C10-H21=1.0888       
C11-N9=1.3842        C11-O12=1.1960       C11-N13=1.4173       O12-C11=1.1960       N13-C5=1.3391        N13-C11=1.4173       
N13-C14=1.4503       C14-N13=1.4503       C14-H22=1.0901       C14-H23=1.0902       C14-H24=1.0895       H15-C1=1.0907        
H16-C1=1.0890        H17-C1=1.0899        H18-C3=1.0730        H19-C10=1.0866       H20-C10=1.0889       H21-C10=1.0888       
H22-C14=1.0901       H23-C14=1.0902       H24-C14=1.0895       H25-N4=1.0107        
 C  H  Rav=1.0877 sigma=0.0050  Rmin=1.0730  Rmax=1.0907    10
 C  C  Rav=1.4213 sigma=0.0370  Rmin=1.3843  Rmax=1.4584     2
 N  H  Rav=1.0107 sigma=0.0000  Rmin=1.0107  Rmax=1.0107     1
 N  C  Rav=1.3896 sigma=0.0445  Rmin=1.3199  Rmax=1.4600    11
 O  C  Rav=1.2007 sigma=0.0047  Rmin=1.1960  Rmax=1.2055     2

 selected bond angles (degree)
 --------------------
H15-C1-N2=110.21               H16-C1-N2=110.36               H16-C1-H15=108.82              H17-C1-N2=108.71               
H17-C1-H15=108.79              H17-C1-H16=109.93              C3-N2-C1=126.98                C6-N2-C1=124.92                
C6-N2-C3=108.09                N4-C3-N2=109.91                H18-C3-N2=125.50               H18-C3-N4=124.59               
C5-N4-C3=107.90                H25-N4-C3=125.46               H25-N4-C5=126.64               C6-C5-N4=106.69                
N13-C5-N4=129.66               N13-C5-C6=123.66               C5-C6-N2=107.40                C7-C6-N2=130.99                
C7-C6-C5=121.59                O8-C7-C6=125.28                N9-C7-C6=110.94                N9-C7-O8=123.78                
C10-N9-C7=117.28               C11-N9-C7=128.45               C11-N9-C10=114.27              H19-C10-N9=108.13              
H20-C10-N9=109.73              H20-C10-H19=110.32             H21-C10-N9=109.67              H21-C10-H19=110.38             
H21-C10-H20=108.60             

 selected dihedral angles (degree)
 ---------------------------------
C3-N2-C1-H15=289.54           C3-N2-C1-H16= 49.76           C3-N2-C1-H17=170.39           C6-N2-C1-H15=108.66           
C6-N2-C1-H16=228.88           C6-N2-C1-H17=349.51           N4-C3-N2-C1=179.26            N4-C3-N2-C6=  0.00            
H18-C3-N2-C1=359.21           H18-C3-N2-C6=179.97           C5-N4-C3-N2=  0.00            C5-N4-C3-H18=180.05           
H25-N4-C3-N2=179.85           H25-N4-C3-H18=359.90          C6-C5-N4-C3=  0.00            C6-C5-N4-H25=180.14           
N13-C5-N4-C3=179.88           N13-C5-N4-H25=  0.03          C5-C6-N2-C1=180.71            C5-C6-N2-C3=359.97            
C7-C6-N2-C1=  1.78            C7-C6-N2-C3=181.03            N2-C6-C5-N4=  0.03            N2-C6-C5-N13=180.13           
C7-C6-C5-N4=179.08            C7-C6-C5-N13=359.18           O8-C7-C6-N2=359.91            O8-C7-C6-C5=181.10            
N9-C7-C6-N2=179.67            N9-C7-C6-C5=  0.86            C10-N9-C7-C6=179.81           C10-N9-C7-O8=359.58           
C11-N9-C7-C6=359.56           C11-N9-C7-O8=179.33           H19-C10-N9-C7=359.25          H19-C10-N9-C11=179.46         
H20-C10-N9-C7=119.63          H20-C10-N9-C11=299.84         H21-C10-N9-C7=238.84          H21-C10-N9-C11= 59.06         
           -------------------------------------------------
          |                Final Singlepoint                |
           -------------------------------------------------

          ...................................................
          :                      SETUP                      :
          :.................................................:
          :  # basis functions                  67          :
          :  # atomic orbitals                  67          :
          :  # shells                           39          :
          :  # electrons                        74          :
          :  max. iterations                   250          :
          :  Hamiltonian                  GFN2-xTB          :
          :  restarted?                      false          :
          :  GBSA solvation                  false          :
          :  PC potential                    false          :
          :  electronic temp.         5000.0000000     K    :
          :  accuracy                    1.0000000          :
          :  -> integral cutoff          0.2500000E+02      :
          :  -> integral neglect         0.1000000E-07      :
          :  -> SCF convergence          0.1000000E-05 Eh   :
          :  -> wf. convergence          0.1000000E-03 e    :
          :  Broyden damping             0.4000000          :
          ...................................................

 iter      E             dE          RMSdq      gap      omega  full diag
   1    -42.5529807 -0.425530E+02  0.355E+00    2.92       0.0  T
   2    -42.7492700 -0.196289E+00  0.199E+00    3.32       1.0  T
   3    -42.7745520 -0.252819E-01  0.116E+00    3.30       1.0  T
   4    -42.7746695 -0.117530E-03  0.516E-01    3.45       1.0  T
   5    -42.7788286 -0.415908E-02  0.134E-01    3.31       1.0  T
   6    -42.7790754 -0.246840E-03  0.469E-02    3.34       1.0  T
   7    -42.7790769 -0.151134E-05  0.168E-02    3.34       1.2  T
   8    -42.7790778 -0.897169E-06  0.487E-03    3.34       4.1  T
   9    -42.7790780 -0.121398E-06  0.227E-03    3.34       8.8  T
  10    -42.7790780 -0.134415E-07  0.731E-04    3.34      27.4  T
  11    -42.7790780 -0.309633E-08  0.278E-04    3.34      71.9  T

   *** convergence criteria satisfied after 11 iterations ***

         #    Occupation            Energy/Eh            Energy/eV
      -------------------------------------------------------------
         1        2.0000           -0.9185967             -24.9963
       ...           ...                  ...                  ...
        31        1.9996           -0.6230268             -16.9534
        32        1.9995           -0.6194582             -16.8563
        33        1.9979           -0.5974960             -16.2587
        34        1.9932           -0.5789593             -15.7543
        35        1.9817           -0.5631842             -15.3250
        36        1.9779           -0.5602216             -15.2444
        37        1.9748           -0.5581203             -15.1872 (HOMO)
        38        0.0652           -0.4353577             -11.8467 (LUMO)
        39        0.0099           -0.4050420             -11.0218
        40        0.0013           -0.3732185             -10.1558
        41        0.0000           -0.2886825              -7.8555
        42                         -0.2065767              -5.6212
       ...                                ...                  ...
        67                          0.5625688              15.3083
      -------------------------------------------------------------
                  HL-Gap            0.1227626 Eh            3.3405 eV
             Fermi-level           -0.4890437 Eh          -13.3076 eV

 SCC (total)                   0 d,  0 h,  0 min,  0.033 sec
 SCC setup                      ...        0 min,  0.000 sec (  0.569%)
 Dispersion                     ...        0 min,  0.000 sec (  0.597%)
 classical contributions        ...        0 min,  0.000 sec (  0.210%)
 integral evaluation            ...        0 min,  0.005 sec ( 14.950%)
 iterations                     ...        0 min,  0.015 sec ( 44.805%)
 molecular gradient             ...        0 min,  0.013 sec ( 38.437%)
 printout                       ...        0 min,  0.000 sec (  0.392%)

         :::::::::::::::::::::::::::::::::::::::::::::::::::::
         ::                     SUMMARY                     ::
         :::::::::::::::::::::::::::::::::::::::::::::::::::::
         :: total energy             -44.987695497545 Eh    ::
         :: gradient norm              6.620812852669 Eh/a0 ::
         :: HOMO-LUMO gap              3.340541251737 eV    ::
         ::.................................................::
         :: SCC energy               -42.779077976606 Eh    ::
         :: -> isotropic ES            0.141125453232 Eh    ::
         :: -> anisotropic ES         -0.005230153545 Eh    ::
         :: -> anisotropic XC          0.011966742601 Eh    ::
         :: -> dispersion             -0.022657730454 Eh    ::
         :: repulsion energy           0.531105277918 Eh    ::
         :: add. restraining          -2.739836957866 Eh    ::
         :: total charge               1.000000000002 e     ::
         :::::::::::::::::::::::::::::::::::::::::::::::::::::


last geometry written to: xtblast.xyz

########################################################################
[ERROR] Program stopped due to fatal error
-5- Geometry optimization failed
-4- xtb_geoopt: Trying to recover from failed geometry optimization
-3- xtb_geoopt: Geometry optimization did not converge
-2- optimizer_ancopt: Could not relax structure
-1- optimizer_relax: |grad| > 500, something is totally wrong!
########################################################################
