25
 energy: -44.987695498404 gnorm: 6.620812757252 xtb: 6.6.1 (8d0f1dd)
C            3.21786164340000        1.13591514650000        0.01837059260000
N            2.27034809790000        0.05199982890000        0.00038279530000
C            2.54167221030000       -1.23971668410000       -0.00834188300000
N            1.39367826450000       -1.95088267900000       -0.00850347120000
C            0.35269634020000       -1.06748964300000        0.00059917290000
C            0.90759959010000        0.20069750900000        0.00663590170000
C            0.07590235260000        1.39864294500000       -0.00284827040000
O            0.48715076820000        2.53168346660000       -0.01725767220000
N           -1.27221500230000        1.06666939660000        0.00165480230000
C           -2.23229981500000        2.16656245330000       -0.00245172030000
C           -1.84872931540000       -0.19179276200000        0.00496135950000
O           -3.03273030250000       -0.36103538130000        0.00858583760000
N           -0.96599111670000       -1.30060631840000        0.00174701630000
C           -1.52030655580000       -2.64076660390000       -0.00239033190000
H            3.71480285180000        1.18589984860000        0.98803183970000
H            3.97079415090000        0.99383197990000       -0.75543416370000
H            2.68321036910000        2.07051068580000       -0.15067179540000
H            3.52469367910000       -1.66989040330000       -0.01523639120000
H           -1.67672429040000        3.10039111610000        0.00486339690000
H           -2.85755792270000        2.10547813320000       -0.89185337000000
H           -2.87119733260000        2.09858159720000        0.87661144540000
H           -1.20589108080000       -3.18768007210000        0.88663215920000
H           -1.21982032550000       -3.17678505510000       -0.90288069810000
H           -2.60531402170000       -2.54255916880000        0.00649952960000
H            1.32879827740000       -2.95942079410000       -0.01653446370000
25
 energy: -55.317342179249 gnorm: 13.960464871189 xtb: 6.6.1 (8d0f1dd)
C            3.21704286670361        1.13600989912551        0.01841574572318
N            2.26506649045198        0.04912402271712       -0.00007923521519
C            2.54242195492038       -1.23998092933885       -0.00834552552966
N            1.39369725364167       -1.95170309134422       -0.00851363113306
C            0.34858378612126       -1.07645190341764        0.00021136658580
C            0.71822723221997       -0.09876038664177       -0.07784943272451
C            0.07473777476642        1.39413939579261       -0.00323425803780
O            0.48799765097880        2.53076362130550       -0.01719847741425
N           -1.27263367169513        1.06700562739313        0.00166372700961
C           -2.23226945650830        2.16657218600742       -0.00244478380644
C           -1.84862313952420       -0.19178426452949        0.00491168209103
O           -3.03281251844939       -0.36103334701390        0.00859012326374
N           -0.96680974500988       -1.30093341365797        0.00236350667434
C           -1.52044233752089       -2.63795482363948        0.00059463444542
H            3.71476425518079        1.18592313045840        0.98802302031771
H            3.97076805103914        0.99383531687933       -0.75540860290248
H            2.68318553608539        2.07052459690955       -0.15069924228067
H            3.52475083591403       -1.66981499325176       -0.01520237845338
H           -1.67672630647425        3.10039616846521        0.00485267503890
H           -2.85757535548582        2.10546675841528       -0.89186405928703
H           -2.87121500881220        2.09857600929093        0.87660897509664
H           -1.20578657747354       -3.18781301968260        0.88657646878113
H           -1.01947677743515       -2.86162303564796       -0.82042488899258
H           -2.60535052008971       -2.54277818983256        0.00611468219257
H            1.32890924055503       -2.95946679316182       -0.01649047354300
25
 energy: -72.476018059826 gnorm: 20.447483977655 xtb: 6.6.1 (8d0f1dd)
C            3.21622072020614        1.13604421216199        0.01844782476777
N            2.26061430474619        0.04611815255139       -0.00060703028377
C            2.54263735674804       -1.24001970125756       -0.00831022088056
N            1.39471045648976       -1.95378104676265       -0.00846659192796
C            0.33871872795046       -1.10090111476334        0.00125106885466
C            0.53030262833384       -0.38780743931078       -0.16557576138164
C            0.07345268884838        1.39041911312936       -0.00372835699299
O            0.48870949737727        2.52902601772014       -0.01707486671202
N           -1.27283896201962        1.06764134899705        0.00167959673645
C           -2.23229845127319        2.16661222348300       -0.00238917656685
C           -1.84842732844860       -0.19202525072311        0.00496382235734
O           -3.03282506546302       -0.36100804225902        0.00857478197569
N           -0.96880839436687       -1.30085199579962        0.00336424203891
C           -1.52118687847166       -2.63543158279316        0.00404708965706
H            3.71469355211328        1.18586431519117        0.98805369906644
H            3.97071706317503        0.99379737878876       -0.75537698195094
H            2.68320204814192        2.07051892528888       -0.15067963913056
H            3.52478994259906       -1.66986851888940       -0.01516695966122
H           -1.67672612619183        3.10040885483609        0.00488551506368
H           -2.85756903578699        2.10549164593424       -0.89184708115158
H           -2.87122290320659        2.09859041399628        0.87662592145789
H           -1.20576234869844       -3.18794737312514        0.88653872309822
H           -0.81440313753757       -2.54002563877641       -0.73717406956745
H           -2.60532768750952       -2.54303905603004        0.00560756154128
H            1.32905884634454       -2.95958729998814       -0.01647149250785
25
 energy: -96.379296450449 gnorm: 28.355450226477 xtb: 6.6.1 (8d0f1dd)
C            3.21570839573329        1.13577642435999        0.01891327446884
N            2.25794512979502        0.04344989190288       -0.00089162629346
C            2.54260585555315       -1.23969397323087       -0.00832175299639
N            1.39638223983444       -1.95731144275538       -0.00847923720160
C            0.31493171733219       -1.18775447051726        0.01985817124890
C            0.34738315541058       -0.62887019639039       -0.27446321947500
C            0.07216565220457        1.38781597583323       -0.00396468082344
O            0.48942086062615        2.52732200050281       -0.01640385543048
N           -1.27280638798040        1.06829799335325        0.00183501730247
C           -2.23222216763491        2.16683087439760       -0.00200511776599
C           -1.84823935084403       -0.19203524704005        0.00497478538671
O           -3.03287720507432       -0.36083720028345        0.00827706403407
N           -0.97262546696864       -1.30049942129609        0.00458225296870
C           -1.52149122412924       -2.63398057407990        0.00518661257055
H            3.71464067148667        1.18537221517631        0.98859469211126
H            3.97081046425618        0.99369870367094       -0.75485693925040
H            2.68336350485851        2.07035937419386       -0.15002823127655
H            3.52471367263469       -1.67016329618254       -0.01522887658326
H           -1.67653997756279        3.10053168927118        0.00546332247186
H           -2.85735817187539        2.10588646345070       -0.89157432398121
H           -2.87115352912792        2.09861240293737        0.87689632264381
H           -1.20601138371264       -3.18816310596093        0.88580954715539
H           -0.60201318157017       -2.20336256292115       -0.65038832464755
H           -2.60544474297040       -2.54312839180977        0.00435310455006
H            1.32914298382539       -2.95991558498234       -0.01696636328731
25
 energy: -128.479086704106 gnorm: 36.653355184360 xtb: 6.6.1 (8d0f1dd)
C            3.21556363954306        1.13511459420857        0.02005988342614
N            2.25657733938799        0.04151011919832       -0.00071258865467
C            2.54248757048433       -1.23907685560819       -0.00843100731306
N            1.39853637824803       -1.96154587178853       -0.00846133216438
C            0.30901098773086       -1.30830095396271        0.08109078256865
C            0.15487982926298       -0.83391848497439       -0.41794707819255
C            0.07145310409289        1.38641102345200       -0.00361622601275
O            0.49014649212256        2.52596022094892       -0.01495169885224
N           -1.27266810166534        1.06877472843543        0.00218801579601
C           -2.23196784948947        2.16726258166585       -0.00117430572534
C           -1.84831344132138       -0.19141518234098        0.00484841226111
O           -3.03298648266536       -0.36044768539220        0.00758232573796
N           -0.97780351648325       -1.29993589374086        0.00536207111568
C           -1.52135726723819       -2.63299070533214        0.00417289624555
H            3.71463771008551        1.18429562577148        0.98986302581451
H            3.97111041048654        0.99352301463444       -0.75362263148071
H            2.68370317013952        2.07000502143954       -0.14847364604678
H            3.52450609753051       -1.67075856483246       -0.01546378115110
H           -1.67608099948408        3.10080664385319        0.00681956281608
H           -2.85686920045799        2.10680378472000       -0.89093946303607
H           -2.87098291178130        2.09862991539831        0.87752890907143
H           -1.20661164906796       -3.18845375040421        0.88403968899243
H           -0.39983526769293       -1.87068933014200       -0.57254500250669
H           -2.60576932726109       -2.54290527385722        0.00216804147065
H            1.32906479959356       -2.96042017975018       -0.01821323627988
25
 energy: -167.797833098696 gnorm: 38.426325334545 xtb: 6.6.1 (8d0f1dd)
C            3.21503856020093        1.13555518237957        0.01891504688995
N            2.25552734010614        0.04086737111542       -0.00124626076024
C            2.54275864820287       -1.23770897563709       -0.00811316426910
N            1.40183962512840       -1.96463450347749       -0.00641666323883
C            0.32729222509594       -1.35837870361020        0.13268132126694
C           -0.04067386645474       -1.11132041025512       -0.52546076314099
C            0.07052421126637        1.38562927037345       -0.00461721217805
O            0.48982815169761        2.52505665597731       -0.01638833754183
N           -1.27283059311801        1.06850606955391        0.00179869010115
C           -2.23250887563271        2.16683636402205       -0.00197432118215
C           -1.84871631593056       -0.19138223206472        0.00553163263018
O           -3.03303510667541       -0.36112642705698        0.00821322661462
N           -0.98366773652353       -1.30023362844923        0.00794916281458
C           -1.52079234489266       -2.63280027012593        0.00644949494420
H            3.71451395538053        1.18555842855460        0.98860775135562
H            3.97077125595215        0.99392905464505       -0.75480176419610
H            2.68320771814533        2.07041994001164       -0.15003906419673
H            3.52487267593308       -1.67013127345247       -0.01519783104956
H           -1.67675740106578        3.10044014115066        0.00540829503366
H           -2.85746279434179        2.10570880579526       -0.89163536404253
H           -2.87130368366921        2.09848623958049        0.87684668288884
H           -1.20577734598238       -3.18828954088227        0.88589895664174
H           -0.21696369718560       -1.53866775678021       -0.51812273704813
H           -2.60523162951869       -2.54359336287744        0.00368951129361
H            1.32997853798173       -2.96048789689028       -0.01680467173087
25
 energy: -176.212414865156 gnorm: 23.412441842320 xtb: 6.6.1 (8d0f1dd)
C            3.21367130867293        1.13818592306354        0.01336020301921
N            2.25436708279564        0.04180458009412       -0.00331846527334
C            2.54401733754984       -1.23472552657888       -0.00695428793298
N            1.40695813735029       -1.96596527083358       -0.00116757353480
C            0.35177051769943       -1.37283183058842        0.17433482330288
C           -0.20421180220332       -1.43620444213728       -0.57289952954553
C            0.06869683906205        1.38496739741740       -0.00852653214534
O            0.48763564421207        2.52451973799048       -0.02335911249910
N           -1.27371502706256        1.06713158578517       -0.00008150271205
C           -2.23462266021295        2.16475642287505       -0.00593010555394
C           -1.84914925603407       -0.19271234413594        0.00771004978196
O           -3.03299817915150       -0.36395230619724        0.01138798150093
N           -0.99425396941743       -1.30225633107752        0.01773519292043
C           -1.51881660018486       -2.63345288154087        0.01518264717344
H            3.71410904913689        1.19133193270447        0.98254041192850
H            3.96920773852089        0.99547756118659       -0.76055808660459
H            2.68110738065872        2.07231410906230       -0.15757166927905
H            3.52635801846280       -1.66715629246309       -0.01384031747057
H           -1.67965339121926        3.09882347917609       -0.00136404056042
H           -2.86014336274871        2.10071885841246       -0.89494007489344
H           -2.87260285728967        2.09801868268283        0.87358064581304
H           -1.20218623198695       -3.18728017739879        0.89480191628476
H           -0.06487731632628       -1.19733966403102       -0.51063365586543
H           -2.60302769200599       -2.54621043933043        0.01197262035000
H            1.33279080582200       -2.95972422253742       -0.01028992030457
25
 energy: -177.813957594122 gnorm: 18.884200733144 xtb: 6.6.1 (8d0f1dd)
C            3.21305269884378        1.14082032645417        0.00644220061149
N            2.26200881021811        0.04766172673573       -0.00501369875408
C            2.54483078586572       -1.22928457053607       -0.00515935064015
N            1.42086280930781       -1.97045367680191        0.00747317175004
C            0.42480258432392       -1.37637084894181        0.28120336239943
C           -0.11562972693262       -1.36300102284937       -0.54356074683122
C            0.06816573094297        1.39206374505271       -0.01286150778222
O            0.48347860662872        2.52430085189750       -0.03217473317432
N           -1.27383084146317        1.06456648618685       -0.00256812040250
C           -2.23744298655763        2.16221285319877       -0.01106107833145
C           -1.85027235014427       -0.19324494612819        0.01129436679296
O           -3.03342428106262       -0.36758161525264        0.01521045081086
N           -1.03672254195717       -1.30210592676043        0.04935141528817
C           -1.51738050948435       -2.63881442203127        0.02205720233369
H            3.71358809073218        1.19856116852126        0.97509880403767
H            3.96732742582058        0.99746187116900       -0.76765018211918
H            2.67846352354682        2.07461909186072       -0.16687587846029
H            3.52823879953295       -1.66365389652206       -0.01213661665066
H           -1.68333439281040        3.09680201948325       -0.00994541530715
H           -2.86347643680946        2.09445180674390       -0.89924072699370
H           -2.87428529479274        2.09741936733311        0.86935746305578
H           -1.19772088544981       -3.18580455441306        0.90585078191306
H           -0.19722490358079       -1.27353285706160       -0.66435700446668
H           -2.60028393046445       -2.54951117229060        0.02267227684311
H            1.33664072984589       -2.95934326344797       -0.00223481802268
25
 energy: -149.249690198095 gnorm: 43.342045819258 xtb: 6.6.1 (8d0f1dd)
C            3.20925711542987        1.15134557515677       -0.01174640339832
N            2.26890134390854        0.05881695989225       -0.01060682629850
C            2.54872384882116       -1.21797005932455       -0.00046153290325
N            1.44194731638901       -1.97279137734834        0.02406800558317
C            0.48619741738991       -1.37122815259231        0.37642677311918
C            0.10943254965481       -1.34828229356638       -0.35662709584157
C            0.06359068311863        1.39875280771078       -0.02543203332015
O            0.47278663338871        2.52474908989922       -0.05610216659168
N           -1.27673067434160        1.05849546319458       -0.00947659401979
C           -2.24596935920129        2.15367790767552       -0.02535132003052
C           -1.85121734807759       -0.19873512473631        0.01833427946762
O           -3.03330136612843       -0.37909679181420        0.02509878038981
N           -1.07289948769823       -1.30511392054105        0.08828875759367
C           -1.50986377778933       -2.64806425120664        0.04598207959087
H            3.71126905690241        1.22039923905786        0.95537702552327
H            3.96162178674936        1.00497794638903       -0.78633784303194
H            2.67012996784492        2.08255518366797       -0.19190961609409
H            3.53414321312499       -1.65160634537491       -0.00656725432854
H           -1.69510599652777        3.09023549233050       -0.03369503357700
H           -2.87366287359753        2.07563603846896       -0.91146067262696
H           -2.88024566315663        2.09409664950877        0.85728360391358
H           -1.18407363904810       -3.18281227310287        0.93601193166649
H           -0.45098848859418       -1.30376607751527       -0.94088624708155
H           -2.59137863803217       -2.55983905578065        0.05093735977120
H            1.34786789357052       -2.95619408844874        0.02002366042503
25
 energy: -169.591441629706 gnorm: 38.898118244566 xtb: 6.6.1 (8d0f1dd)
C            3.21163874124128        1.14516724670895       -0.00294323818787
N            2.27074622783169        0.05539877837099       -0.00734948858077
C            2.54673597189698       -1.22167657747867       -0.00259716512263
N            1.44541444911511       -1.97877732723833        0.01788909298581
C            0.50305656255212       -1.36897385812849        0.41037855046166
C           -0.03278302803721       -1.36428219352364       -0.51096275093659
C            0.06630923720454        1.40045678378563       -0.01907195700185
O            0.47757784833431        2.52378765024936       -0.04449985300803
N           -1.27402530902295        1.06090392456737       -0.00620499173736
C           -2.24180780485876        2.15817228099913       -0.01847687795112
C           -1.85182580524646       -0.19465137448445        0.01593454230392
O           -3.03429102512867       -0.37311974018119        0.02026235398385
N           -1.08458289078889       -1.30325761265371        0.08736598746270
C           -1.51540199478844       -2.64545463606340        0.03288029309423
H            3.71251655308957        1.20945800758582        0.96497733632539
H            3.96455495621038        1.00102305918507       -0.77727975552793
H            2.67433302010510        2.07836464747833       -0.17972510983814
H            3.53126489365386       -1.65799133794575       -0.00950845074481
H           -1.68916759640684        3.09361110661096       -0.02216959756492
H           -2.86852149043027        2.08504159324891       -0.90556465352512
H           -2.87716556712291        2.09597218879638        0.86315414775422
H           -1.19082511566328       -3.18412545804242        0.92109893361596
H           -0.33006287328150       -1.28299323466318       -0.84276755741912
H           -2.59607764777553       -2.55495282865668        0.03726444529415
H            1.34282120141678       -2.95886254692699        0.00908738176438
25
 energy: -178.574152899550 gnorm: 5.651929340018 xtb: 6.6.1 (8d0f1dd)
C            3.21616354290834        1.13289128756974        0.01414509185147
N            2.27186665457009        0.04734851667835       -0.00134251181729
C            2.54282214125709       -1.23025951080234       -0.00694451351117
N            1.44319070566118       -1.98629458945441        0.00522108801122
C            0.48675735646605       -1.36680480922713        0.38280760742146
C           -0.26426792176002       -1.35208055689335       -0.73871744237674
C            0.07147108055288        1.40146015776364       -0.00679987395501
O            0.48772933934177        2.52194987624421       -0.02180490191129
N           -1.26904653386671        1.06605197551250        0.00029207193263
C           -2.23322494140266        2.16726933593975       -0.00491372117485
C           -1.85312780135417       -0.18642984886732        0.01129406256370
O           -3.03588312896799       -0.36090722205973        0.01087804901416
N           -1.09435262402925       -1.30031799343565        0.07951143736755
C           -1.52607754861045       -2.63893625598253        0.00830599374206
H            3.71519465247999        1.18752259361234        0.98358664544103
H            3.97039659206615        0.99268049207244       -0.75974438606414
H            2.68289393654306        2.06982860518868       -0.15603375985161
H            3.52538134852294       -1.67086308819282       -0.01533491103690
H           -1.67704991319228        3.10048596459937        0.00044825126371
H           -2.85817250771000        2.10389004881646       -0.89389078800399
H           -2.87076424911781        2.10009864212501        0.87476962694108
H           -1.20449420717093       -3.18652160864715        0.89198651677904
H           -0.09367992816276       -1.28484383507619       -0.62474554572635
H           -2.60565226641368       -2.54493517638593        0.01053275401173
H            1.33235773548916       -2.96404445949794       -0.01233522301149
25
 energy: -174.196185110370 gnorm: 104.538434333493 xtb: 6.6.1 (8d0f1dd)
C            3.21874428713612        1.13228532614057        0.01212895761643
N            2.30029656540083        0.06275798731954        0.00076832747447
C            2.54260126707639       -1.22238856421308       -0.00566246412065
N            1.47279841286761       -2.00148839321859        0.01117937464340
C            0.58725633911597       -1.34843481285077        0.54185543623109
C           -0.26324723942243       -1.33828165876678       -0.81931922826826
C            0.07433444244048        1.42617523688980       -0.00701708022218
O            0.48247476758192        2.52295247830148       -0.02526718193358
N           -1.26561422900755        1.06228055984612       -0.00124202172812
C           -2.23508272221718        2.16611088194853       -0.00763945906245
C           -1.85830132373322       -0.18203216781445        0.01633762717763
O           -3.03844820411275       -0.36216436221504        0.01119178995282
N           -1.15316979081293       -1.30451920407150        0.12135384003510
C           -1.52787843101416       -2.65267136768659       -0.00046913375087
H            3.71471493514748        1.19084927177303        0.98168235927778
H            3.96994023880827        0.99418622740671       -0.76172864399303
H            2.68156287636445        2.07079227648393       -0.15888866112643
H            3.52660083263685       -1.66962259410159       -0.01453381197270
H           -1.67917631086581        3.09948619571099       -0.00326841784848
H           -2.85960385317263        2.10101263390922       -0.89633181381979
H           -2.87198852456995        2.09936094342947        0.87248468825045
H           -1.20212514883237       -3.18591265455166        0.89516298762128
H           -0.18747148161616       -1.32795317327292       -0.73634043378799
H           -2.60477298508228       -2.54742208594570        0.01458722412955
H            1.33598679398309       -2.96712043885073       -0.00985264287549
25
 energy: -178.727201100290 gnorm: 0.983367073612 xtb: 6.6.1 (8d0f1dd)
C            3.21920428994401        1.13118192391199        0.01545385210221
N            2.30169632617482        0.06270601468044        0.00220707443932
C            2.54245431994595       -1.22246691203687       -0.00595065029152
N            1.47450331549942       -2.00338413393317        0.00934545768473
C            0.58816368892382       -1.34602350059252        0.54440635954649
C           -0.28434245307231       -1.34378568691623       -0.86439371579485
C            0.07468015957946        1.42739254426653       -0.00496145763410
O            0.48314825685045        2.52275609687747       -0.02151195597477
N           -1.26493431492869        1.06247534395050       -0.00044661921215
C           -2.23449549581996        2.16681881170670       -0.00585264313358
C           -1.85900055000931       -0.18070074387731        0.01573695140294
O           -3.03885791551975       -0.36116981146802        0.00906047061655
N           -1.15767561261581       -1.30466259910510        0.12302888873407
C           -1.52898898603552       -2.65270946888438       -0.00516559056532
H            3.71455967306885        1.18849747330276        0.98533666075512
H            3.97067743790524        0.99414615179516       -0.75822541074267
H            2.68224890997896        2.07023715325164       -0.15458650114175
H            3.52621517517472       -1.67061033316970       -0.01494019962882
H           -1.67830613161679        3.10000037126010        0.00010609688498
H           -2.85851029054272        2.10307127060685       -0.89494869042635
H           -2.87183805517033        2.09901286420652        0.87386455202485
H           -1.20338268607948       -3.18675776579440        0.89010541660836
H           -0.16664368083962       -1.32295713229246       -0.70289154408871
H           -2.60557958780005       -2.54686285109645        0.00968649808687
H            1.33543572110466       -2.96796653905008       -0.01329168235190
25
 energy: -178.731824229699 gnorm: 0.711384076292 xtb: 6.6.1 (8d0f1dd)
C            3.22399261914111        1.12140769049199        0.03192096136493
N            2.31739800195720        0.05729840575290        0.01710570409799
C            2.54144352464699       -1.21225505742751       -0.00564855524651
N            1.46805241950087       -2.00709087601941        0.01190105223289
C            0.59834027103972       -1.34480869540452        0.56163381207298
C           -0.29271626881875       -1.33562047724583       -0.86786877571743
C            0.06943106190353        1.44427249433422        0.00404752309529
O            0.49808925913133        2.51689372595524       -0.02317771574600
N           -1.27705969441702        1.07127370883125        0.00987014181716
C           -2.23340834030077        2.17478309841427       -0.01337636277267
C           -1.85812870747499       -0.18452390207361        0.03688785762444
O           -3.04766023501260       -0.37219169218355        0.00915535621734
N           -1.14967552530175       -1.31874126404376        0.13321544737418
C           -1.54207557044278       -2.64192436652877       -0.02722864818558
H            3.72089699621306        1.19913475203759        0.97548865456421
H            3.96818851025954        0.99483724889206       -0.77195091550168
H            2.67378210408457        2.07040721619638       -0.16553852204295
H            3.52677578328851       -1.67760121279181       -0.01444935053508
H           -1.67800006054761        3.10124691023163       -0.00740163609570
H           -2.85887854920023        2.09445274224453       -0.90804315285578
H           -2.86789371564047        2.09257489539533        0.87584723818526
H           -1.20272408929882       -3.19275539650935        0.85738939278128
H           -0.16245947122502       -1.32350160254808       -0.71452550367843
H           -2.60553671431828       -2.54257130139605        0.03268070109686
H            1.33025790493265       -2.96675850300515       -0.00676308624701
25
 energy: -178.748541836209 gnorm: 1.919518428466 xtb: 6.6.1 (8d0f1dd)
C            3.23011622095492        1.11100027972253        0.04736185646701
N            2.33729813623536        0.05102945090242        0.03419705724038
C            2.54455521750420       -1.19895037945649       -0.00569842004227
N            1.47397601325630       -2.02111324413778        0.01307451825448
C            0.60840331684109       -1.32758003356809        0.60590495028014
C           -0.31105889490308       -1.32352457292192       -0.88182826995419
C            0.05773353710518        1.46096223694635        0.01415186994288
O            0.51848793192484        2.51422917508469       -0.02610453565950
N           -1.28658670760444        1.08063063595980        0.02136727574945
C           -2.23324924307448        2.18376688662175       -0.02251426332719
C           -1.86348551925848       -0.18479164963291        0.06470148911223
O           -3.05899611654743       -0.38239535816604        0.00919714377603
N           -1.14829287966032       -1.33587001228035        0.15632929982199
C           -1.55885922600817       -2.63075603754546       -0.04996320158263
H            3.72957379752042        1.21151523177076        0.96510390538086
H            3.96523261835181        0.99503237861690       -0.78774379765929
H            2.66503030455312        2.06863070225716       -0.17868132233185
H            3.52726539184698       -1.68619102140528       -0.01405301590414
H           -1.67738447460865        3.10352304500941       -0.01713015934155
H           -2.85885655543438        2.08479141230143       -0.92335243803466