25
 energy: -42.104587295006 gnorm: 0.002952663489 xtb: 6.6.1 (8d0f1dd)
C            3.29582542624681        1.08691207962052        0.04412973570688
N            2.33906199933043        0.01299737997413        0.00918050260348
C            2.60247533101712       -1.29048925371842        0.03498611313354
N            1.44610640618229       -1.99326666929909        0.00928695058855
C            0.41312925276707       -1.10545511174681       -0.03406914241989
C            0.97007292773917        0.16763099035689       -0.03573027574417
C            0.17332183168824        1.35564704975068       -0.09841073320856
O            0.55486036006803        2.50464625565710       -0.11547330763591
N           -1.22852492070178        1.04031571020017       -0.15239218995836
C           -2.08474919857547        2.06936089034603       -0.24459667536997
C           -1.79909580466973       -0.26305779451162       -0.11718053313044
O           -2.98845367576884       -0.42209946440482       -0.13616872982855
N           -0.91492869060479       -1.33786561383259       -0.06444621704423
C           -1.45331873915088       -2.68658564439318       -0.04266173453901
H            3.80392861785290        1.10890258223622        1.00881664306317
H            4.03897083205810        0.95745573858507       -0.74198925468122
H            2.76963251044736        2.02946190759620       -0.10100568281901
H            3.58102753500535       -1.72564519229834        0.07130535433375
H           -1.67116361742218        3.05927889614055       -0.27467538379721
H           -3.13649952197546        1.86250280779067       -0.28524569550043
H           -4.11550033559012        3.43979348025762        1.39192642939474
H           -1.13198663493099       -3.20779386007230        0.85852750142736
H           -1.14004514546368       -3.23584368458571       -0.93063099498677
H           -2.53973482647063       -2.60790276530131       -0.03991945734784
H            1.37601959502188       -3.00066217274766        0.01760839566017
