72
 energy: 0.000000000000 xtb: 6.6.1 (8d0f1dd)
N           -1.47310921155849        2.74401293103706        2.22063921685122
C           -1.55658879776851        2.16490285539332        1.13274273951491
C           -2.74549199786261        2.05621232186130        0.23826248438941
C           -3.31377553111525        0.64333411542669        0.32332512650568
C           -4.30230156009016        0.24487110156316       -0.58026161703006
C           -4.85238763031941       -1.02286490450319       -0.53363588718165
O           -5.81419972815119       -1.48606034185536       -1.36157882725342
C           -6.39655633239252       -0.60827000183299       -2.29568474302620
C           -4.39972501531283       -1.94646102182611        0.44396929121966
O           -4.98748311285188       -3.16145997157803        0.41085992006324
C           -4.66362127904578       -4.10093827755394        1.40909127743729
C           -3.42072513477031       -1.54561384810496        1.33436546260297
C           -2.88302799614223       -0.26315800396994        1.27400150770375
C           -2.19303798107274        2.30467000305896       -1.18742977106749
C           -1.26651538239283        1.17243369445008       -1.65249429687285
C            0.01082524939134        1.09745454476277       -0.89354803499847
N            0.61779393476578       -0.02034948052406       -0.57705522512502
C            2.00145210352228       -0.02376006389122       -0.15611399603240
C            2.92554934655222       -0.53865282675074       -1.27700088804721
C            4.35756843073516       -0.43050757231754       -0.83075544324989
C            5.07346135469827        0.73206409086248       -1.03980965825901
C            6.38627986649936        0.84224441421807       -0.60344822702769
C            7.00047264773336       -0.20824756335880        0.05722314418200
O            8.26703657141718       -0.21011313101264        0.52410943644933
C            9.06912227848686        0.92943601033931        0.31863058007678
C            6.27039964270142       -1.40439753960823        0.28033466008274
O            6.94829939911432       -2.38012925705718        0.92751999079483
C            6.31537317745639       -3.61583200086742        1.15217711710877
C            4.96302794628964       -1.49347471867959       -0.16064430359178
C           -0.05511211367372       -1.29906247805359       -0.62085686319744
C           -3.86758037025447        3.07992600430699        0.58498060215443
C           -4.49286159663096        2.77383493050346        1.94313289484366
C           -3.39165179876499        4.52917666589254        0.54797523472093
H           -4.66030026466202        0.94509067363451       -1.31640568823548
H           -6.85037928558380        0.25803162192116       -1.80468845313260
H           -7.17287442604349       -1.18600110843259       -2.79318157561361
H           -5.66836817451085       -0.26952966318766       -3.04040255244073
H           -4.88416720672258       -3.71589460520039        2.40913542187496
H           -5.29223570620378       -4.96637458756866        1.20969236903657
H           -3.61139813139015       -4.39919835331056        1.35529357841967
H           -3.07077796610445       -2.21868765711333        2.10002662693138
H           -2.14562754426994        0.02067850696302        2.01001344383370
H           -3.02188875377605        2.38238012313952       -1.88813545054866
H           -1.65198530896729        3.25146700677685       -1.20556284570283
H           -1.81103374245520        0.23006524641044       -1.62116301628650
H           -0.99335688527853        1.37490212198123       -2.69443256973690
H           -0.67628064361333        1.65183887049447        0.61785727145403
H            0.63525841192517        1.98466369793744       -0.92314021190751
H            2.11132552493482       -0.65949692842762        0.72532613231274
H            2.30680473056284        0.98978251704176        0.11078972794250
H            2.76694198818247        0.06750735147374       -2.17075252200790
H            2.67954581369920       -1.57455627803457       -1.51167743520200
H            4.62169998552446        1.56295612048703       -1.56123579000624
H            6.92357674630170        1.75715815945204       -0.79119596719031
H            8.65159112996149        1.81001823324363        0.81701555159939
H            9.20136171144928        1.14042857828877       -0.74698991949293
H           10.03428838009630        0.69003240176163        0.76064937965836
H            7.05567174969094       -4.23621171795340        1.65347565939075
H            5.43848001056755       -3.50813558175093        1.79970565785717
H            6.02060041905269       -4.09420497120334        0.21253282636366
H            4.40102758497114       -2.40127266373392       -0.00490198249042
H           -0.22071299714579       -1.61775583601871       -1.65116008982042
H           -1.01972258008625       -1.24102717432227       -0.10935206830928
H            0.55899954147532       -2.04486085926761       -0.12333730421426
H           -4.63991875734388        2.95501092798550       -0.18098088071825
H           -3.76095216473977        2.90314704960906        2.73380821053058
H           -4.87457614030224        1.75695641518947        1.97884603101694
H           -5.31925552549014        3.45579210326349        2.12325564252114
H           -2.60025590131176        4.69225046143352        1.27368918226171
H           -3.03987406413880        4.81897652321898       -0.43870975059559
H           -4.22191740670577        5.18069648090034        0.80616693961239
H           -0.59832433787845        2.77744694953323        2.72958984441332
72
 energy: -4.411109914261 xtb: 6.6.1 (8d0f1dd)
N           -1.50812363650847        2.80445131619417        2.23933023134850
C           -1.55646307027001        2.16537139149542        1.16000254278910
C           -2.74906902127125        2.06790405973512        0.24974637584159
C           -3.31493912845972        0.65067435702372        0.33509789457800
C           -4.28804731756523        0.21492902676621       -0.56561262928245
C           -4.82337956844950       -1.06508886413561       -0.52418958095831
O           -5.78880403463089       -1.50766974693094       -1.38058089933586
C           -6.35113920425736       -0.61225682150399       -2.30907885117721
C           -4.36889416226185       -2.00509388376062        0.44140765232374
O           -4.87870521912505       -3.29266650207457        0.37079952963941
C           -4.67149139767598       -4.18264278021629        1.43890323719051
C           -3.41873022450508       -1.55427160284468        1.34890377304919
C           -2.90303662293071       -0.25762453666744        1.29435763459532
C           -2.19110703882613        2.31859419906657       -1.17752136118542
C           -1.25881108568702        1.19961238308485       -1.67376816881569
C            0.01187458545546        1.14514677781663       -0.90376519825820
N            0.63788503109475       -0.03611624598966       -0.56504626352799
C            2.00483211695932       -0.03058644654502       -0.16559831612878
C            2.93904692101211       -0.53106535061183       -1.28807644833831
C            4.36219005071129       -0.43053731844199       -0.84495647701274
C            5.08146840090019        0.73331052391443       -1.04139156671575
C            6.39151491723440        0.83984653406139       -0.59877801572411
C            6.99902008379455       -0.21712503211639        0.05573608086381
O            8.27822004851742       -0.22636484207395        0.52810997138696
C            9.07372560023081        0.91221183787457        0.32707814235442
C            6.26899751938425       -1.40810258047935        0.26991049554454
O            6.94864183464134       -2.39667293134242        0.91711028767715
C            6.30614658348746       -3.62551132581525        1.13343262755497
C            4.96452677003128       -1.49501894953630       -0.17482094370710
C           -0.05646343777680       -1.28798209975842       -0.63858945966842
C           -3.87569705967565        3.08778690490140        0.57782061092850
C           -4.50410293276136        2.78889228828056        1.93754240243630
C           -3.40698236488883        4.54300470776140        0.54252652179300
H           -4.63334706988783        0.90875519854348       -1.31649794654439
H           -6.80626440883764        0.25858594567922       -1.82313801675146
H           -7.12901522151250       -1.17917416635588       -2.81935585640043
H           -5.61631792351653       -0.27051736512386       -3.04682408119981
H           -4.85027086494627       -3.63085165867330        2.35257719630235
H           -5.36963378788588       -5.00978888088292        1.31249092340640
H           -3.64776969326157       -4.56664313519672        1.42932749107510
H           -3.04805643408257       -2.21008420848231        2.12016391580622
H           -2.16521519490760        0.04186151246870        2.02422309401824
H           -3.02173056506437        2.41091598486187       -1.87916431719801
H           -1.64238568057867        3.26406817923923       -1.18207473537559
H           -1.79515087758434        0.25339321634321       -1.63523996400473
H           -1.02297050946453        1.40853515887473       -2.72722954049774
H           -0.68840137827646        1.65806770415223        0.67122674906830
H            0.66232861174436        2.00120745002565       -0.96381695296446
H            2.12629391104256       -0.66806363282400        0.71826494343532
H            2.29589846499705        0.98609387184944        0.10917153113728
H            2.76804935014678        0.08574892316503       -2.17220936108453
H            2.67945630408248       -1.56294427741800       -1.52875935858618
H            4.62794224526051        1.56830200134379       -1.55470496862466
H            6.92977664338904        1.75644624209683       -0.77974799427517
H            8.65604888493426        1.79236255385614        0.82809215241195
H            9.20645968036370        1.13037010389001       -0.73815125868899
H           10.03984825285841        0.67045844280490        0.76837768192060
H            7.04269212905199       -4.25298489336284        1.63331592178941
H            5.42798879231726       -3.51748173004378        1.77978074429734
H            6.00858764831307       -4.09815435292863        0.19116707062373
H            4.39589165332219       -2.39915989422629       -0.02147298369687
H           -0.23024354585141       -1.59828381865704       -1.67620032663531
H           -1.02250702290291       -1.22478213414387       -0.12829203881375
H            0.54526039875234       -2.04646618057081       -0.14335548338378
H           -4.64850474790016        2.96634376028816       -0.19134414797861
H           -3.76668385246822        2.92483436846616        2.72143378610757
H           -4.87716230299686        1.76891133841274        1.97550614403354
H           -5.33611713385042        3.46771527864654        2.11462466385005
H           -2.61573181391283        4.70355577402418        1.26832030181724
H           -3.05158878878002        4.83337422189676       -0.44345578473007
H           -4.24035940616731        5.19504856666956        0.79808655265754
H           -0.61804911314316        2.80820348583623        2.73247513806588
72
 energy: -0.265509462511 xtb: 6.6.1 (8d0f1dd)
N           -1.52412859730186        2.83766443645441        2.24467420727288
C           -1.56368787687089        2.17804240240144        1.17723819581024
C           -2.75132105895202        2.07334097090543        0.25690864977252
C           -3.31156743125243        0.64665931297312        0.34584681246505
C           -4.27133381686662        0.18152719216093       -0.55499298957887
C           -4.79761570411348       -1.10996792120203       -0.51726501317533
O           -5.75857422485533       -1.52610127975415       -1.39552327467009
C           -6.30612381385285       -0.61615375646050       -2.32332536406655
C           -4.33925149941712       -2.06824270713034        0.44483861278958
O           -4.76780262475061       -3.41830850348898        0.36727105570975
C           -4.67712991338928       -4.29189622985420        1.46989731411209
C           -3.40895682400676       -1.57196491839576        1.35845367187203
C           -2.91562269522855       -0.26106708314410        1.31358017760567
C           -2.18746983866679        2.33490063222767       -1.16912476705370
C           -1.25428544522582        1.22368800803890       -1.68377029056388
C            0.01731519951027        1.17016380370711       -0.91438204741482
N            0.63640916051327       -0.01647713357978       -0.57552437547371
C            2.00487684581061       -0.02546920479957       -0.17380990417048
C            2.94225414554465       -0.52124303660167       -1.29708738057775
C            4.36508542753393       -0.42789349975575       -0.85235576399199
C            5.08736509711941        0.73536150099488       -1.04089227198895
C            6.39672542603800        0.83705134354348       -0.59484073333098
C            7.00160321967001       -0.22565595370734        0.05395969265018
O            8.28155993271891       -0.24157637988533        0.52766229307558
C            9.07866123180028        0.89658978451084        0.33396718420900
C            6.26837370280237       -1.41580734581965        0.25991415088267
O            6.94477964968642       -2.41058936642122        0.90282310170865
C            6.29597486420389       -3.63668076464446        1.11341398450186
C            4.96416002953995       -1.49659274376725       -0.18665027291023
C           -0.06236143373573       -1.26924226026550       -0.65639681677277
C           -3.88239557302005        3.09588731730954        0.57221565945427
C           -4.51455151934433        2.80128165866466        1.93108071273260
C           -3.42012158271799        4.55483302705273        0.53568027790457
H           -4.61135383028545        0.87085218327739       -1.31480733849939
H           -6.76245469198941        0.25807338963647       -1.84272925459445
H           -7.08396319258615       -1.17361035074616       -2.84539922133657
H           -5.56324212855099       -0.27410324812607       -3.05328450676049
H           -4.78556750936877       -3.71734435029318        2.35701864105780
H           -5.44586112262464       -5.05846925498609        1.39448340247570
H           -3.68732256846100       -4.74572636468709        1.49342018655573
H           -3.03087879250154       -2.20426940355895        2.14429895544032
H           -2.18567597758171        0.05399530471048        2.04571464987827
H           -3.01720253292663        2.43744573865121       -1.87180882851322
H           -1.63372966290271        3.27912800374886       -1.16055148011350
H           -1.78441103150224        0.27600417838962       -1.64842418482325
H           -1.03599796749461        1.44090701581881       -2.74228253365159
H           -0.69234264515837        1.66504667357785        0.70527402372846
H            0.67755212591201        2.01805564034211       -0.98461492587902
H            2.12908971645526       -0.66912750077505        0.70739430036822
H            2.29716568784261        0.98952824373221        0.10905017119243
H            2.77167340073445        0.10318129626830       -2.17590064594321
H            2.67954771890040       -1.55075492633394       -1.54460461802820
H            4.63497270102706        1.57478652629668       -1.54791676956595
H            6.93591295277432        1.75433540999087       -0.77057180674726
H            8.66064607887876        1.77422349099079        0.83919660855682
H            9.21188607049496        1.12105229024311       -0.72996348847924
H           10.04432913066723        0.65043753944278        0.77490991489861
H            7.02908389765076       -4.26999690035988        1.61136905590994
H            5.41781242836409       -3.52691619760155        1.75958753512703
H            5.99616827807419       -4.10276149333010        0.16873958470032
H            4.39130864884892       -2.39848650215311       -0.03724146488659
H           -0.23730479888083       -1.57343474402783       -1.69697482835227
H           -1.02906479514173       -1.20565100041023       -0.14727816548716
H            0.53034165361103       -2.03716548786306       -0.16259303992488
H           -4.65166490974685        2.97376616812351       -0.20147502308922
H           -3.77795003851564        2.94640963507205        2.71356925345209
H           -4.88089071117963        1.77972138398138        1.97195605704555
H           -5.35204108371650        3.47661830287518        2.10249829469264
H           -2.63186998730834        4.71915160214596        1.26355379190757
H           -3.06277882164948        4.84725977935033       -0.44930074380291
H           -4.25738143794371        5.20552652376748        0.78696994498199
H           -0.63860666228939        2.84796844610709        2.74382773421319
72
 energy: 6.205343662859 xtb: 6.6.1 (8d0f1dd)
N           -1.54076925769382        2.87132695786051        2.24848367098087
C           -1.57150809031861        2.19161390020907        1.19282075108856
C           -2.75453404042404        2.07714030967465        0.26394392468754
C           -3.30620256277733        0.63583181462988        0.35472731631706
C           -4.25295694670308        0.14519703543836       -0.54660633583025
C           -4.77299403582427       -1.15649108368152       -0.50946955612079
O           -5.72821807657600       -1.54511835668209       -1.40913369665982
C           -6.26134965983516       -0.62075646781181       -2.33669985365459
C           -4.31376097738515       -2.12828509157759        0.45621342339066
O           -4.66050763415666       -3.54152513278809        0.40500001544173
C           -4.69502107233741       -4.38084747911364        1.54384269414792
C           -3.40018927545876       -1.59055761879044        1.37096652569538
C           -2.92349296625099       -0.27021095686765        1.33190699265890
C           -2.18456619248706        2.35118531094191       -1.16025243142435
C           -1.25101333248493        1.24767458389743       -1.69268134801897
C            0.02250881972338        1.19493461515951       -0.92639163904153
N            0.63312430888625        0.00337191395877       -0.58476431529586
C            2.00342334270589       -0.01615446816045       -0.18117751993869
C            2.94330121157506       -0.51026820398043       -1.30567401636319
C            4.36685482421417       -0.42504514282317       -0.85972791916832
C            5.09269819204444        0.73736940688098       -1.04044076989254
C            6.40135256780675        0.83422997688392       -0.59092205340283
C            7.00320473113974       -0.23414908530273        0.05225487910391
O            8.28329367404539       -0.25689399747471        0.52732699550909
C            9.08298045459137        0.88040509327271        0.34101274501800
C            6.26671491990104       -1.42354907182898        0.25017262488686
O            6.93956218144466       -2.42377476630142        0.88912014245782
C            6.28566029758744       -3.64774344526921        1.09422549253553
C            4.96288940363754       -1.49823993977994       -0.19864791262147
C           -0.06798903693830       -1.25059176282252       -0.67374115538393
C           -3.88880871177579        3.10405242577675        0.56686917058973
C           -4.52430426382540        2.81439670642787        1.92515000450054
C           -3.43261473987608        4.56703881369931        0.52869781355506
H           -4.59186113854066        0.82894975919166       -1.31378739257069
H           -6.71963367851468        0.25582779535752       -1.86105812624145
H           -7.03880653995506       -1.16871591064342       -2.87059882318502
H           -5.51141603186423       -0.27716390415064       -3.05922846380203
H           -4.75964977450595       -3.77370094765063        2.42288282271584
H           -5.51972913484546       -5.09462430838474        1.48985228843486
H           -3.74218608190145       -4.90855431779981        1.57812696544302
H           -3.01519922481180       -2.20012504279890        2.17036413917564
H           -2.20619591559360        0.05961132319982        2.07045922180645
H           -3.01356825686715        2.46380496935868       -1.86351135407475
H           -1.62630513693725        3.29438635286937       -1.13823234676945
H           -1.77578953917817        0.29868422791859       -1.66109903510442
H           -1.04881696315922        1.47370594209339       -2.75463917274018
H           -0.69689465929196        1.67276493681062        0.73922051034486
H            0.69366427716612        2.03354633580963       -1.00753223526853
H            2.12857258474833       -0.66779481011118        0.69582244304683
H            2.30142535540261        0.99552883391486        0.10995631021236
H            2.77506095373734        0.12041800825805       -2.18037925761048
H            2.67833516325651       -1.53786705996839       -1.55966163481831
H            4.64194743982502        1.58128998676374       -1.54138469967991
H            6.94149218935063        1.75234763613986       -0.76065365565975
H            8.66571972578481        1.75615082483652        0.85029203444200
H            9.21740033135689        1.11082566322044       -0.72160952274921
H           10.04773054269516        0.62917568947636        0.78175454086984
H            7.01591280311945       -4.28614276659022        1.59022026712638
H            5.40749809833876       -3.53703662450523        1.74030879342649
H            5.98432642347967       -4.10765907703888        0.14712069939499
H            4.38630151853268       -2.39836524362844       -0.05309644432431
H           -0.24355902587761       -1.54704665994583       -1.71742290008267
H           -1.03510975695105       -1.18809987697977       -0.16539896826783
H            0.51743671962829       -2.02716213821923       -0.18281205121451
H           -4.65381798833255        2.98169451402377       -0.21198534047526
H           -3.78879664063151        2.96863483039066        2.70676237481842
H           -4.88431648584567        1.79138098075444        1.96951436946050
H           -5.36680984577807        3.48640227494811        2.09071511655203
H           -2.64715295906035        4.73569433335634        1.25856688222780
H           -3.07396515969113        4.86198022891540       -0.45540706947333
H           -4.27393299789574        5.21599899568688        0.77571372248233
H           -0.65798130140211        2.88926501219468        2.75034896057519
72
 energy: 16.154404229359 xtb: 6.6.1 (8d0f1dd)
N           -1.55761197709751        2.90469947470314        2.25158227456987
C           -1.57914088136120        2.20742812915201        1.20655775252206
C           -2.75752651871082        2.08176968841458        0.27042873803300
C           -3.29816681299237        0.62522395314630        0.36409436816818
C           -4.23228282135253        0.11028885434242       -0.53829025752496
C           -4.74856469418028       -1.20062065217129       -0.49925082782983
O           -5.69571863692879       -1.56337795529977       -1.42012171068724
C           -6.21602097988055       -0.62739637598685       -2.34931511098989
C           -4.29551611904715       -2.18094735591783        0.48099747206650
O           -4.56661355212067       -3.66008621600738        0.47861624813818
C           -4.72186000523171       -4.47999656395369        1.62268638007728
C           -3.39336493847348       -1.60633743756222        1.39025178692460
C           -2.92501290238224       -0.28030732643839        1.34934095133661
C           -2.18175218163196        2.36767726651518       -1.15190427089674
C           -1.24737388723016        1.27216059449221       -1.70086180064886
C            0.02893942740683        1.21969937909906       -0.93988299839349
N            0.62978396302410        0.02387040752827       -0.59330007765151
C            2.00166261883280       -0.00604442949750       -0.18832072492359
C            2.94335407731857       -0.49816093922136       -1.31435671641745
C            4.36783171312549       -0.42168663635962       -0.86668971402283
C            5.09769455171902        0.73967784941309       -1.03920217844048
C            6.40592567686092        0.83121706716719       -0.58713124751494
C            7.00442206396595       -0.24295594485772        0.05021521351285
O            8.28417366969445       -0.27272179130496        0.52638910785741
C            9.08680723960258        0.86388558171908        0.34789628653738
C            6.26403400336954       -1.43136408030388        0.24042467414571
O            6.93277466291232       -2.43666647601757        0.87527335467598
C            6.27477181754412       -3.65905412520135        1.07499086177773
C            4.96039300582958       -1.49978500317948       -0.21048039054359
C           -0.07395600139884       -1.23084325717589       -0.69030970162044
C           -3.89488899313940        3.11184398911605        0.56170722735103
C           -4.53416714215314        2.82651982260541        1.91903334104117
C           -3.44451910415488        4.57866723140365        0.52106039841634
H           -4.57240811712878        0.78828871435658       -1.31233095390948
H           -6.67572680516911        0.25196491327813       -1.87898031835967
H           -6.99324177301005       -1.16684073766087       -2.89345777830421
H           -5.45975349095620       -0.28431495607341       -3.06574827376841
H           -4.77191489307256       -3.89340486793630        2.51366294551328
H           -5.59559308841401       -5.13703061905048        1.57874709390383
H           -3.80479313604458       -5.06694515522559        1.66207398256762
H           -3.00182719892687       -2.19633664214586        2.19979472377368
H           -2.22502000621713        0.06174276844881        2.09835886660490
H           -3.00991756808490        2.49013639525390       -1.85571528298909
H           -1.61939410710964        3.30975894993742       -1.11679497915836
H           -1.76748386007312        0.32205906616233       -1.67462270836054
H           -1.05833825772477        1.50862036340170       -2.76401359586561
H           -0.70148984343123        1.68137257963697        0.77315936805257
H            0.71105778829107        2.04894605923166       -1.02978708553508
H            2.12627002032494       -0.66567607530629        0.68366533828607
H            2.30501610287472        1.00240619742469        0.11034179918469
H            2.77958121930423        0.13755293336634       -2.18620000913731
H            2.67616698194211       -1.52405378706528       -1.57437615559552
H            4.64938379559318        1.58787980685740       -1.53503222451969
H            6.94725173665780        1.75000223187762       -0.75076457091760
H            8.67099989099425        1.73799818021461        0.86141265792119
H            9.22305300286466        1.10054541439777       -0.71328605565302
H           10.05041767054401        0.60755676758391        0.78858173806117
H            7.00253434798387       -4.30204367858394        1.56895489472825
H            5.39676281104828       -3.54787014624770        1.72117524521297
H            5.97244208084187       -4.11330448235433        0.12551462157464
H            4.38066354824759       -2.39854412239882       -0.06917304263525
H           -0.24839161354930       -1.51918676576583       -1.73705382652631
H           -1.04202591721700       -1.17048964413413       -0.18362554938205
H            0.50560086762182       -2.01433925554254       -0.20224152384591
H           -4.65407495862008        2.98787507554356       -0.22365512019903
H           -3.80131990122130        2.98973928863214        2.70133377702082
H           -4.88851830480176        1.80223875803164        1.96701191691346
H           -5.38144139019442        3.49519899185164        2.07754454913934
H           -2.66191544342659        4.75287901537241        1.25318758339353
H           -3.08517378045769        4.87586289746833       -0.46240105677665
H           -4.29094578006230        5.22440443130594        0.76280928631495
H           -0.67653698279233        2.93058271407349        2.75432604483849
72
 energy: 29.559017443552 xtb: 6.6.1 (8d0f1dd)
N           -1.57453527811619        2.93799786297084        2.25419399396360
C           -1.58631016320755        2.22601611341355        1.21841586765121
C           -2.76090053314108        2.08501473601347        0.27780530552175
C           -3.28966029620334        0.61495432216768        0.37406859833680
C           -4.21077711345090        0.07755339239129       -0.53128874654307
C           -4.72678674836217       -1.24041454835254       -0.49165244197971
O           -5.66436391974920       -1.58096320550710       -1.43049619687304
C           -6.17128025112968       -0.63423058164463       -2.36201314521997
C           -4.28782395257534       -2.22908618897856        0.50210625008846
O           -4.58039730289509       -3.78453123774216        0.53887412667475
C           -4.76280962241591       -4.57905432756587        1.68451923407873
C           -3.39396095739596       -1.62409252138568        1.40810207627152
C           -2.92624723841429       -0.29255783563840        1.36538766353516
C           -2.17903197909117        2.38432908415855       -1.14292317168523
C           -1.24350269964720        1.29743212077924       -1.70838913476698
C            0.03811237739092        1.24304774550482       -0.95867634279122
N            0.62569552799033        0.04454697459599       -0.60013623853533
C            1.99908019184284        0.00441704703493       -0.19502497504991
C            2.94201855643755       -0.48558545086159       -1.32219086537341
C            4.36755909861881       -0.41685755154201       -0.87229796938484