25
 energy: 0.000000000000 xtb: 6.6.1 (8d0f1dd)
C            3.23720163006194        1.16630919979326        0.08434469647475
N            2.29877817382611        0.07527477071623        0.03981603040599
C            2.58028210190900       -1.21425402444508        0.03006176031096
N            1.43813958087363       -1.93419271955128        0.00098261760884
C            0.39035688448383       -1.05887472636071       -0.00790371836672
C            0.93510056364412        0.21347819449412        0.01709077491437
C            0.09450143893243        1.40504303904423       -0.00410947031874
O            0.49712751527797        2.54126714362870       -0.00342325688240
N           -1.25076640035757        1.06271879480407       -0.03085478223738
C           -2.21907211982101        2.15522099834493       -0.05001256985998
C           -1.81739487048744       -0.20012725993278       -0.04692818574614
O           -2.99983886758376       -0.37846417018721       -0.07008878229737
N           -0.92618586207120       -1.30210215599479       -0.03682761578324
C           -1.46982264913417       -2.64643102187190       -0.06029820460571
H            3.71247264356769        1.21471455160235        1.06488849150277
H            4.00791497605742        1.03430808813993       -0.67357694370751
H            2.69910007168542        2.09770118228144       -0.09130154882931
H            3.56654120610678       -1.63682992603973        0.04233140067262
H           -1.67107961066214        3.09322851271934       -0.02552706933167
H           -2.82428953597071        2.09428624779827       -0.95318082946668
H           -2.87644029173232        2.07745725625962        0.81450067533302
H           -1.17061996399332       -3.19584890659852        0.83242232437030
H           -1.14560257411436       -3.17511610292205       -0.95688275822323
H           -2.55549792440841       -2.55659984320617       -0.07459039797972
H            1.38130855184625       -2.94313852034425       -0.01389874181052
25
 energy: -5.357390322618 xtb: 6.6.1 (8d0f1dd)
C            3.24111109615416        1.17748746189558        0.08703930710308
N            2.30670261047865        0.09439527897035        0.03824147249434
C            2.59968660965293       -1.23334901015734        0.02977539420074
N            1.42818840902599       -1.94209787990619        0.00085821681564
C            0.39583892364980       -1.05875603770946       -0.00750336155806
C            0.92877046465360        0.22026386417095        0.01631634195715
C            0.10012222893154        1.39383617995350       -0.00399481828587
O            0.49693446921140        2.55944403469799       -0.00311566569198
N           -1.26198368239191        1.05086277313621       -0.03101212826209
C           -2.22026709616246        2.15200061120606       -0.05090837109343
C           -1.82432142465795       -0.20032591769461       -0.04759383164040
O           -3.02130890422468       -0.37658094379192       -0.07478351227129
N           -0.93516610731771       -1.30327234166756       -0.03640100938885
C           -1.46866328217800       -2.64773912574842       -0.05977649750926
H            3.72121782236455        1.22274995802683        1.06817850216809
H            4.00768873035595        1.04493269526772       -0.67777112100740
H            2.69250102166837        2.10148146922778       -0.08605842527516
H            3.57856423682979       -1.65838422357147        0.04177511800746
H           -1.65316271345453        3.07927156968633       -0.02929378566931
H           -2.83157663236335        2.10520006391916       -0.95207237696814
H           -2.87629893294552        2.09276597057653        0.81664941883606
H           -1.16252384749178       -3.19930531629195        0.83146439429884
H           -1.13859892053318       -3.17805014580972       -0.95544071310146
H           -2.55413808501008       -2.56183538132253       -0.07344202228803
H            1.36289767369060       -2.94596700489181       -0.01409662972337
25
 energy: -6.436532283336 xtb: 6.6.1 (8d0f1dd)
C            3.24211454805180        1.18675431310547        0.09100025741431
N            2.31123962290349        0.10492512117329        0.03597331403757
C            2.60963538519298       -1.25060595772827        0.02905015678819
N            1.41367428299521       -1.94419529925535        0.00121649715369
C            0.39675889078947       -1.05797160213161       -0.00659804210592
C            0.92155156747197        0.22506475311755        0.01583295520186
C            0.10260935418974        1.37746133122981       -0.00395131988570
O            0.48164404896177        2.55990458553939       -0.00224485121551
N           -1.27783777758352        1.03845427205761       -0.03239858932751
C           -2.21690905852270        2.15481336641448       -0.05228197672067
C           -1.83229274795167       -0.20281518172950       -0.05093754704831
O           -3.03484150565334       -0.37878693406202       -0.08516015748745
N           -0.94525371758613       -1.30362055517097       -0.03549144426726
C           -1.46216740319555       -2.65198723442479       -0.05830067793948
H            3.73614903219761        1.23420560038198        1.06778570992891
H            4.00341978897631        1.07121886360655       -0.68429606154225
H            2.68129553045317        2.10627615618715       -0.06946809905262
H            3.58204112076669       -1.68297036034209        0.03998861864744
H           -1.61306857490714        3.06067935923768       -0.04086476430642
H           -2.84051963099210        2.12689220268427       -0.94717770197986
H           -2.86797111321161        2.12753427465412        0.82209910454054
H           -1.14515485167565       -3.20479627324569        0.83037487488330
H           -1.12404178152508       -3.18274511861499       -0.95261020714170
H           -2.54838937156598       -2.57873073167960       -0.07047804972669
H            1.33852902935644       -2.94593034883241       -0.01402810270116
25
 energy: -5.624710044149 xtb: 6.6.1 (8d0f1dd)
C            3.23463653555913        1.19608023211597        0.09688463132473
N            2.31128064347503        0.10712483325702        0.03433665009723
C            2.60930758483601       -1.26770517166945        0.02716444994806
N            1.39668543244585       -1.94636573113653        0.00192138449734
C            0.39171348639145       -1.05931833343956       -0.00488057903448
C            0.91328934800388        0.22558015762355        0.01687114813660
C            0.09894434149027        1.36222382495452       -0.00351953553331
O            0.45693869272708        2.55460946541308        0.00006315288164
N           -1.29759347350477        1.02728463635262       -0.03573729382035
C           -2.20478351247554        2.16875117483819       -0.05509138245919
C           -1.84556422339921       -0.20948568977006       -0.05862844489878
O           -3.04954601601261       -0.38845798694458       -0.10453334401538
N           -0.95629127994937       -1.30642204437626       -0.03420821231443
C           -1.44706280863428       -2.66383400532334       -0.05527044372601
H            3.75388228660423        1.24113849894601        1.06304698878800
H            3.98443315782012        1.11800278646589       -0.69757657599057
H            2.65601663112869        2.11200136238134       -0.03254703976580
H            3.57550923332349       -1.71195822305976        0.03553220092796
H           -1.54561715702439        3.04125339118554       -0.06828446361474
H           -2.84995518135958        2.16326856053844       -0.93650344095907
H           -2.84090854570747        2.19380843162535        0.83401995700541
H           -1.11167845103918       -3.21320734864524        0.83058542745622
H           -1.09657622555795       -3.19095090985546       -0.94849298349706
H           -2.53493682988212       -2.61705829630321       -0.06417368867545
H            1.31009099867738       -2.94733501300201       -0.01394466661128
25
 energy: 6.738835581101 xtb: 6.6.1 (8d0f1dd)
C            3.21158968437315        1.22693615543269        0.11515383541711
N            2.31529948631130        0.11128163945192        0.02865626513043
C            2.61126810617665       -1.32023713326601        0.02230802854823
N            1.35057553795556       -1.95325257614859        0.00464596916069
C            0.37982414912251       -1.06625198817379        0.00070457234625
C            0.89250493074855        0.22488498524339        0.02013141788091
C            0.09190758514693        1.31521589774729       -0.00159622920828
O            0.38242331530023        2.53504232606949        0.00802421732614
N           -1.35645643125543        0.99320697391467       -0.04603355843023
C           -2.16806432511746        2.20796799155119       -0.06402880240498
C           -1.88221648043931       -0.23156916678330       -0.08420646528788
O           -3.08833036928896       -0.42213568345197       -0.16749373857771
N           -0.98618965196045       -1.31560927461936       -0.02990091980071
C           -1.40765660242777       -2.69635484082945       -0.04576049112499
H            3.81165887547032        1.26447420061987        1.04636876745627
H            3.92432375520987        1.27295785257894       -0.74035077420642
H            2.57487561522608        2.13083638215014        0.08651529892595
H            3.55896531942033       -1.80105220901917        0.02245065787115
H           -1.34579208124256        2.97930105457881       -0.15675338229918
H           -2.88128277378482        2.26462065588719       -0.90119056320212
H           -2.75381481302589        2.39149199076861        0.87143465640821
H           -1.02431009076638       -3.23823405087594        0.83188794355630
H           -1.02949527769066       -3.21504509449083       -0.93739958022493
H           -2.49948312973006       -2.71677148760824       -0.04346249880846
H            1.23009033420432       -2.95267599855546       -0.01307073030447
25
 energy: 10.945105609885 xtb: 6.6.1 (8d0f1dd)
C            3.19642671546643        1.22104803507802        0.11833066681634
N            2.29470942688196        0.11513485632034        0.03184053202124
C            2.59242432210502       -1.32801071896217        0.01485020918570
N            1.32037049079856       -1.95967947222584        0.00143875678821
C            0.35859066744954       -1.05860260787756        0.00062827176186
C            0.87115701877831        0.22689066124387        0.02248542937802
C            0.07309113870466        1.31755586599247        0.00015868668360
O            0.38997070176202        2.54281000794442        0.01067831878938
N           -1.36809371082915        0.99920955740347       -0.04617440407638
C           -2.15544627553057        2.24015308385489       -0.06846200900169
C           -1.90578911306080       -0.22387595677298       -0.08329347232062
O           -3.12020945891222       -0.40753034253326       -0.17098356312544
N           -1.00668274222374       -1.31579939291218       -0.03040904112029
C           -1.36555749278553       -2.72252468211189       -0.04231624235681
H            3.80234850745383        1.24789139012371        1.04626352816364
H            3.89779255828385        1.25937278049905       -0.74235322947465
H            2.56235009312799        2.12270500572620        0.09931870701313
H            3.53503919684119       -1.81465709827718        0.01274820573034
H           -1.30990641357050        2.99612655766966       -0.16226357442441
H           -2.87282899537431        2.32821946013896       -0.90399374370196
H           -2.73621181470122        2.45294757863447        0.86946589305849
H           -0.93249513006286       -3.24441559254397        0.83227432445532
H           -0.93773280095566       -3.22561387554266       -0.92636312254122
H           -2.46159149595963       -2.82533082803200       -0.03985378044005
H            1.19048927424886       -2.95499567066577       -0.01698145111446
25
 energy: 15.423220697448 xtb: 6.6.1 (8d0f1dd)
C            3.18192678146071        1.21137845598381        0.12057579141381
N            2.27366897942082        0.11433627576499        0.03372033614041
C            2.57078642977767       -1.33799915704806        0.00835507324305
N            1.28934160336174       -1.96368024424918       -0.00340672612449
C            0.33726436254658       -1.05270349146934        0.00011103496421
C            0.85103103650056        0.22805959442833        0.02463005131968
C            0.05749552493752        1.31938154238832        0.00283166795580
O            0.39738759954493        2.54420391712865        0.01414663801200
N           -1.38149833677526        1.01093558876891       -0.04678179218979
C           -2.14817867856335        2.27257650193755       -0.07291741208062
C           -1.92629092529974       -0.21263648504016       -0.08341263676169
O           -3.14332353755076       -0.38699388235747       -0.16755905740091
N           -1.02778048888823       -1.31392315611682       -0.03061103970126
C           -1.31911604756870       -2.74561255229197       -0.03789570489369
H            3.79057216859909        1.23031277945205        1.04666655407669
H            3.87686104224379        1.24236735672427       -0.74312401384892
H            2.55235901204845        2.11451317789798        0.10758835956472
H            3.50910730885131       -1.83057591724417        0.00328364588634
H           -1.28915417557866        3.01586802035152       -0.16003752111520
H           -2.86055447599162        2.38859912752116       -0.91025940455189
H           -2.72699488779802        2.50209352940281        0.86115972036282
H           -0.84460392205839       -3.24298626801232        0.83611061831905
H           -0.84678225255360       -3.23093635884904       -0.91530922327676
H           -2.41146104650828       -2.93075816547236       -0.03712262777448
H            1.15015159377746       -2.95679158742738       -0.02370843539161
25
 energy: 18.923277621442 xtb: 6.6.1 (8d0f1dd)
C            3.16958543298453        1.19682442934460        0.12113984755982
N            2.25205661329485        0.11083559890358        0.03523761876501
C            2.54764621025790       -1.34450739251903        0.00253143331572
N            1.26266368524536       -1.96598736582836       -0.01011815507266
C            0.31684354933929       -1.04741562162438       -0.00106954055458
C            0.83284723774870        0.22904786266304        0.02652151467575
C            0.04276822032774        1.32497234515880        0.00575164059340
O            0.40461344325567        2.54669656124829        0.01800837233081
N           -1.39171668424165        1.02588079118868       -0.04678803827214
C           -2.14615267943817        2.30128612522122       -0.07663138958789
C           -1.94362592887876       -0.19952836790030       -0.07968004878123
O           -3.16215041414421       -0.36200111983435       -0.15748001150820
N           -1.04667932811852       -1.31172721656702       -0.03042406750166
C           -1.27289887933554       -2.76499006668099       -0.03341909786246
H            3.77205576502762        1.20907566357880        1.04971733724496
H            3.86410238869770        1.21011910536692       -0.73952350920394
H            2.54990500938328        2.10412916227983        0.10334415370575
H            3.48315126412127       -1.84029305090166       -0.00589262985837
H           -1.28387710174461        3.03912382717393       -0.14808497399312
H           -2.84422929334648        2.44130548951315       -0.92222396557246
H           -2.73094121393604        2.53430219949787        0.84841236730972
H           -0.76599080743935       -3.23434503922051        0.84275327281564
H           -0.76064069303024       -3.23036437292518       -0.90475810322962
H           -2.35492098974759       -3.02600448888838       -0.03664257245894
H            1.11779986165330       -2.95740645607649       -0.03364755871200
25
 energy: 19.892291579011 xtb: 6.6.1 (8d0f1dd)
C            3.14093389535894        1.16647926948677        0.11831589464040
N            2.21389931096081        0.08398769973949        0.03554880942751
C            2.50184544916544       -1.36511457818584       -0.00430511640915
N            1.22710405258324       -1.97530501542865       -0.02411692590665
C            0.28294616652470       -1.05385847274675       -0.00269515337589
C            0.81425247376442        0.21309350496490        0.03058315864437
C            0.02919543071797        1.34635118175373        0.01680496642038
O            0.46467392946085        2.52382549806844        0.03012648801888
N           -1.40651396872844        1.08913973876590       -0.04316715518518
C           -2.15843401705085        2.35648972221941       -0.08698455208101
C           -1.95966923057310       -0.16142579070743       -0.07847631619497
O           -3.16023652992847       -0.29916382281225       -0.13376485347423
N           -1.07723185520198       -1.30817752583448       -0.02858674621347
C           -1.18820715415693       -2.78873613875708       -0.02345519596940
H            3.73395265539786        1.17632435641289        1.04032714536806
H            3.83232243719608        1.16539008976460       -0.72706493176903
H            2.54675679257697        2.08232642328233        0.09768060671917
H            3.43573627935689       -1.86498960996027       -0.02119633367218
H           -1.38786290307858        3.10095077801822       -0.11310209650112
H           -2.80407228245075        2.51213629506565       -0.94229727863047
H           -2.72528710916076        2.53246537508175        0.79903744967563
H           -0.66143200416012       -3.19564715039941        0.86086682983284
H           -0.64088814073014       -3.21264509656775       -0.88979489742022
H           -2.21507879752205       -3.16717653669782       -0.03178318733373
H            1.07350978761403       -2.96769159235430       -0.05146671246331
25
 energy: 29.021964625262 xtb: 6.6.1 (8d0f1dd)
C            3.11071225855813        1.15329895895960        0.12436569545240
N            2.18385074503489        0.07514807294961        0.03984814865706
C            2.47502913127301       -1.37555159107511       -0.01432638324962
N            1.20364398010596       -1.98424655402992       -0.03752713762223
C            0.25634520032329       -1.05777833190904       -0.00432555663784
C            0.79081033824453        0.20342069847129        0.03660738074519
C            0.01009564319159        1.34658060997248        0.02313469582277
O            0.47766967207576        2.51737168254345        0.04361565975885
N           -1.41754426094184        1.10366210263308       -0.04462554741851
C           -2.15024128351831        2.39222415580823       -0.09773659722733
C           -1.98372970661067       -0.14834494162479       -0.07474796703015
O           -3.18897045415735       -0.26120605490890       -0.13577288533781
N           -1.10563316341327       -1.31625346546950       -0.02768462483069
C           -1.13255827442169       -2.81425547115558       -0.01337285080793
H            3.71287550748240        1.14215751660684        1.03985889911954
H            3.78441796633809        1.15993665633417       -0.73507433740181
H            2.51086587741854        2.06663142213010        0.12757506161638
H            3.40411769979193       -1.87985034146081       -0.04142101017211
H           -1.34540608053855        3.11789537444855       -0.12475822377568
H           -2.78665112457243        2.58775003223326       -0.95943834144181
H           -2.71555512893262        2.60703462643096        0.79285864405812
H           -0.56617959253161       -3.16880101123916        0.87713888623546
H           -0.54335301733867       -3.20159835251121       -0.87550200150261
H           -2.12276235989174       -3.30303508000850       -0.02116038452389
H            1.05036509496661       -2.97316211195702       -0.07049532633848
25
 energy: 35.391195721288 xtb: 6.6.1 (8d0f1dd)
C            3.04719464404099        1.15693865335934        0.13718014436332
N            2.15655295005857        0.04438628699741        0.05574525088539
C            2.46118306234375       -1.34946904297565       -0.01626270556748
N            1.27289557069145       -2.00489552089191       -0.05674873795246
C            0.23916005956363       -1.10192881111032       -0.00827342117966
C            0.79541754589234        0.14742657543248        0.05000886412903
C           -0.01285500695110        1.35005375113322        0.02997161736637
O            0.52679764840229        2.47908277866048        0.07688229541715
N           -1.38024567645935        1.10906825453978       -0.04717862999261
C           -2.13510025472965        2.38782605468926       -0.11961538614631
C           -1.99012092810607       -0.15591962946543       -0.07358756139539
O           -3.20400615806173       -0.20969249249602       -0.18292449205721
N           -1.12432467497832       -1.37619013793473       -0.02967315279466
C           -1.15165291358300       -2.82083018704877       -0.00023642083888
H            3.69495446273005        1.08280050673756        1.01378451261373
H            3.64533922289964        1.24807744606703       -0.77369324610349
H            2.40255418884583        2.03671705612736        0.24189838424265
H            3.38997871021317       -1.85163631515881       -0.06787897643835
H           -1.25319616684379        3.09952329462084       -0.21565876892029
H           -2.78848392908919        2.61523450461446       -0.97377285688469
H           -2.66276842105854        2.71001236684920        0.83372147869736
H           -0.59113692617795       -3.08196332210681        0.90064920569551
H           -0.59829095955014       -3.14008486813133       -0.87725359053124
H           -1.99358904815022       -3.39788893235913        0.01631114760048
H            1.16595766599324       -2.98761966797740       -0.08636105806102
25
 energy: 39.533339353705 xtb: 6.6.1 (8d0f1dd)
C            3.02708047439361        1.14960442449826        0.14773486911811
N            2.14503035176231        0.03549162088324        0.05135349918522
C            2.44405133652349       -1.36233746287391       -0.02111127417174
N            1.23886560554200       -1.99586418500759       -0.06652026079431
C            0.21846447377949       -1.09928482557960       -0.01317837690489
C            0.77324618106171        0.15183093978419        0.05404984862729
C           -0.00906271344598        1.33317420327348        0.04585248593363
O            0.49067454549129        2.46828199267265        0.09784713109506
N           -1.40742381536521        1.11296147748475       -0.05158119939345
C           -2.10379154423203        2.43577121292048       -0.12971243424515
C           -2.01213419955128       -0.14478121192682       -0.08998311218000
O           -3.21797982870325       -0.19655106947502       -0.20047085245018
N           -1.14921705787617       -1.36495970170613       -0.02945518718523
C           -1.11305217361214       -2.83517979841743        0.01678211176620
H            3.70736900802348        1.05124337384730        1.00784569582537
H            3.60313672328051        1.28165984215861       -0.78919906575770
H            2.36840126420325        2.02869321093720        0.29682870539162
H            3.37018414683709       -1.87531034971886       -0.08987093826805
H           -1.21091175579479        3.11141388822308       -0.23531393492939
H           -2.76718992615002        2.66563437312511       -0.96703484226484
H           -2.62289824948478        2.78195426419699        0.80188944200518
H           -0.50910355212833       -3.07372882228370        0.91396193137922
H           -0.52682850244426       -3.13904775822649       -0.85844109298331
H           -1.96222756672039       -3.54351890708050        0.04346445121330
H            1.13753144254625       -2.98812212953716       -0.10870370386472
25
 energy: 43.789180025302 xtb: 6.6.1 (8d0f1dd)
C            2.99760268165867        1.15406558733984        0.16455107241456
N            2.13993195952643        0.02473936862243        0.04749973681614
C            2.43633501136140       -1.36769223930142       -0.02801018056453
N            1.21857522678482       -1.99114715433970       -0.08211812986128
C            0.20688855992894       -1.10806836303336       -0.02094932779798
C            0.75518471712198        0.14848495790432        0.05887121253939
C            0.00404669816244        1.30793601535590        0.07000960354202
O            0.46038813592569        2.45431902790178        0.14532842888602
N           -1.42539832789610        1.10367406067243       -0.05658423937102
C           -2.06445706977240        2.46653746159581       -0.14724571992074
C           -2.02274593586809       -0.14711571909778       -0.11261129382490
O           -3.22043665161719       -0.20440745262959       -0.24462135695925
N           -1.16139803000898       -1.36602260185992       -0.02748929356384
C           -1.09896983297284       -2.85604474786782        0.04249361996529
H            3.72730977968795        1.02675750996387        0.98962037370689
H            3.53422993302840        1.35639972715344       -0.80113614164005
H            2.32009632279257        2.01972707696568        0.38098779604589
H            3.36288559195925       -1.88172326181065       -0.12418297085123
H           -1.16485317679162        3.10631823997115       -0.29289416578521
H           -2.76248976888515        2.67942849862419       -0.95536760159944
H           -2.54782922609486        2.84769861771999        0.77893320906765
H           -0.48119300878011       -3.08023795153727        0.93732097224019
H           -0.51340955841142       -3.15804472303394       -0.83749566748637
H           -1.92292670705648       -3.55318596629796        0.08378947418820
H            1.13484734415251       -2.99336736680929       -0.14166551403915
25
 energy: 50.720824475006 xtb: 6.6.1 (8d0f1dd)
C            2.98382125176134        1.11142309192909        0.17453548633777
N            2.11374848770505        0.00620084405291        0.04362008133572
C            2.38056052809334       -1.29105591192694       -0.02776432095269
N            1.19570338179982       -1.95003082453969       -0.11418963489727
C            0.16575844046516       -1.08214455041223       -0.05128130348385
C            0.72326573274612        0.17187536543653        0.05323832644903
C           -0.00249180196884        1.32687654838166        0.11142599302541
O            0.40863284646167        2.49442943269892        0.24103879370311
N           -1.40462916297348        1.10742537031103       -0.05494609663029
C           -2.01097458486013        2.50518702162080       -0.16266517243545
C           -2.03659970785964       -0.13081761063413       -0.12698744960547
O           -3.22677719488587       -0.19628061687031       -0.26639412347278
N           -1.16817020015285       -1.35187326050111       -0.03285305276964
C           -1.09492144001886       -2.88498187374022        0.07892224456704
H            3.69136567836081        0.94596109017218        0.97393976216395
H            3.49886705956849        1.26091543710531       -0.73919986280581
H            2.37894142976911        1.96300980278262        0.36496684974539
H            3.32162236220577       -1.78918740497668       -0.17438774080620
H           -1.18665880885552        3.16136264904815       -0.31551754468833
H           -2.73411543430778        2.64896911674647       -0.96057965678303
H           -2.48770459804059        2.84194514284976        0.71765009776816
H           -0.41605118496397       -3.09083180938989        0.95226447938254
H           -0.45661659828929       -3.19014956509576       -0.79303371255821
H           -1.89845002006992       -3.62820770899401        0.13805433854741
H            1.17408820624589       -2.97099117388229       -0.20282288498928
25
 energy: 45.072001004902 xtb: 6.6.1 (8d0f1dd)
C            2.96585948386067        1.13273018317352        0.19204379355902
N            2.12315328836060        0.00257008854187        0.04650952804034
C            2.40562599274534       -1.31562828597002       -0.04195150337773
N            1.21885840126800       -1.97034287639495       -0.13468327586870
C            0.18261098309600       -1.11069220624881       -0.05600171261429
C            0.73255576956999        0.15019138848379        0.06204950830793
C            0.01459599729587        1.31246232760606        0.13487321777002
O            0.43664585732365        2.47251035300888        0.29613473789536
N           -1.41229469849123        1.10524817244676       -0.05470243705108
C           -2.02119968127791        2.48708717645613       -0.18962223382419
C           -2.02786173667654       -0.13285259184966       -0.13158161855210
O           -3.21865639253934       -0.19563678564784       -0.31415844216975
N           -1.16623113128959       -1.36701089557059       -0.02816858036247
C           -1.11269698193121       -2.87138637048090        0.09316256175711
H            3.72693647323464        0.94053543631463        0.96117176439360
H            3.43920269125915        1.37822603185287       -0.77801433580050
H            2.30804779808381        1.97308616907290        0.47950319904416
H            3.34239488240153       -1.80473834894084       -0.20239860677160
H           -1.13542447910975        3.10749955256396       -0.41669035151239
H           -2.76738030955218        2.62622556951972       -0.97024997698822
H           -2.44264494570710        2.91259413399217        0.74495159878008
H           -0.46254310503484       -3.06004258011713        0.97145337243455
H           -0.53065666359066       -3.18509778605106       -0.78200980761538
H           -1.89486512478152       -3.61647461147740        0.17311604219111
H            1.20818229941841       -2.98203464211189       -0.22770254551764
25