25
 energy: 0.000000000000 xtb: 6.6.1 (8d0f1dd)
C            3.23720163006194        1.16630919979326        0.08434469647475
N            2.29877817382611        0.07527477071623        0.03981603040599
C            2.58028210190900       -1.21425402444508        0.03006176031096
N            1.43813958087363       -1.93419271955128        0.00098261760884
C            0.39035688448383       -1.05887472636071       -0.00790371836672
C            0.93510056364412        0.21347819449412        0.01709077491437
C            0.09450143893243        1.40504303904423       -0.00410947031874
O            0.49712751527797        2.54126714362870       -0.00342325688240
N           -1.25076640035757        1.06271879480407       -0.03085478223738
C           -2.21907211982101        2.15522099834493       -0.05001256985998
C           -1.81739487048744       -0.20012725993278       -0.04692818574614
O           -2.99983886758376       -0.37846417018721       -0.07008878229737
N           -0.92618586207120       -1.30210215599479       -0.03682761578324
C           -1.46982264913417       -2.64643102187190       -0.06029820460571
H            3.71247264356769        1.21471455160235        1.06488849150277
H            4.00791497605742        1.03430808813993       -0.67357694370751
H            2.69910007168542        2.09770118228144       -0.09130154882931
H            3.56654120610678       -1.63682992603973        0.04233140067262
H           -1.67107961066214        3.09322851271934       -0.02552706933167
H           -2.82428953597071        2.09428624779827       -0.95318082946668
H           -2.87644029173232        2.07745725625962        0.81450067533302
H           -1.17061996399332       -3.19584890659852        0.83242232437030
H           -1.14560257411436       -3.17511610292205       -0.95688275822323
H           -2.55549792440841       -2.55659984320617       -0.07459039797972
H            1.38130855184625       -2.94313852034425       -0.01389874181052
25
 energy: -5.374378693855 xtb: 6.6.1 (8d0f1dd)
C            3.25209944804026        1.17261583880982        0.08661903989426
N            2.31141476772322        0.09444381311125        0.03763705805813
C            2.60185349243827       -1.23404296184764        0.02966861293852
N            1.42899594302246       -1.94018901946276        0.00014025170661
C            0.39794789406672       -1.05485352406563       -0.00819879242782
C            0.93213983052430        0.22350685975544        0.01547487649581
C            0.09880871924641        1.39601776837737       -0.00371005037609
O            0.49630826642534        2.56153262081252       -0.00161200015711
N           -1.26718500679837        1.05287873478976       -0.03098731845069
C           -2.23126985775221        2.14899877436301       -0.04997980368492
C           -1.82836313261513       -0.20009978082654       -0.04779083557066
O           -3.02476091215237       -0.38628491893187       -0.07154307978100
N           -0.93351792610207       -1.29838585283271       -0.03669654016105
C           -1.46813992559730       -2.64132983520107       -0.05968449974750
H            3.72681842609426        1.22148585520623        1.07010697429363
H            4.02400563517936        1.03168174875012       -0.67130059983086
H            2.71092945915008        2.09849985677371       -0.09590198138104
H            3.57998679540658       -1.66177633363110        0.04106148894222
H           -1.67183426700622        3.08119204426260       -0.02519184976033
H           -2.83878107918425        2.09932463509639       -0.95367932619174
H           -2.89144238877219        2.08231480350111        0.81470136945070
H           -1.16354993958319       -3.19235326861351        0.83221700914758
H           -1.13905926317907       -3.17139321070403       -0.95565907086950
H           -2.55326089049315       -2.55072554668038       -0.07362977283449
H            1.36207057985443       -2.94403049864006       -0.01502726355535
25
 energy: -6.120665874590 xtb: 6.6.1 (8d0f1dd)
C            3.28666311484426        1.16888782056733        0.08966241684819
N            2.32856458435175        0.10889734519591        0.03294205893318
C            2.61740906505012       -1.25438514994893        0.02866379211548
N            1.41293195404027       -1.93642251524707       -0.00193411783731
C            0.40397819901265       -1.04180188883641       -0.00959062502564
C            0.93197019772746        0.24039158985779        0.01215049319039
C            0.09610235341908        1.38584283523653       -0.00236631208262
O            0.47078427861076        2.57218253708838        0.00392096522047
N           -1.29678085647183        1.04363220605991       -0.03126932014139
C           -2.25971978023714        2.14105709579681       -0.04969346726244
C           -1.84426465593376       -0.20065400726811       -0.04970319014721
O           -3.04553586755974       -0.40452084389079       -0.07525341892493
N           -0.94024181963110       -1.28593429780006       -0.03650718989861
C           -1.45827128906366       -2.63022250163046       -0.05787599554874
H            3.75972235193115        1.22954772278196        1.07675993318073
H            4.06953250897231        1.01522030565627       -0.65812965320209
H            2.75842724172728        2.09801317045192       -0.10980276422873
H            3.58582646246216       -1.69918167756360        0.03692658902522
H           -1.68364693772356        3.06317642141923       -0.02379708412675
H           -2.87290404395378        2.10718766543055       -0.95245877522855
H           -2.92659952340021        2.08912302492676        0.81307627247718
H           -1.14460140312936       -3.18097158020926        0.83278999917066
H           -1.12229065800255       -3.16025100443690       -0.95296879506672
H           -2.54345736188232       -2.54229857659398       -0.07044362669154
H            1.32861655277597       -2.93748709487178       -0.01806428860095
25
 energy: -0.386889707677 xtb: 6.6.1 (8d0f1dd)
C            3.37089447738046        1.14590071536762        0.09452640084617
N            2.36028705845252        0.12988673531535        0.02255307888779
C            2.63172459992629       -1.28540167206883        0.02591083296530
N            1.38052883866390       -1.92045377355481       -0.00770944404678
C            0.41038865514938       -1.00765300988140       -0.01385820842566
C            0.93489380606831        0.27909434315833        0.00502616239594
C            0.07755692026952        1.38106149692113        0.00251121038724
O            0.40056513936513        2.59643203996461        0.01992453512213
N           -1.36071739052301        1.03482169526277       -0.03163561672655
C           -2.33027297607714        2.12821226055186       -0.04854280459630
C           -1.87861325268190       -0.20241957560956       -0.05480530825029
O           -3.08177395676041       -0.44794560084837       -0.08554600199281
N           -0.94828964418882       -1.25596614013712       -0.03662725216126
C           -1.42743812588159       -2.60745905684888       -0.05283739036177
H            3.83068561752039        1.23161017888628        1.09213589329856
H            4.18644310348475        0.94836256628990       -0.61744339214398
H            2.89692453084228        2.09510889873286       -0.15358407635001
H            3.58069089033581       -1.77169425439479        0.02428241503248
H           -1.73252304393846        3.03581033171099       -0.01914756226600
H           -2.95488011551640        2.11904419497019       -0.94828907941033
H           -3.01129127882891        2.09693009562724        0.80845722755167
H           -1.09206538073905       -3.15113635905344        0.83665879168447
H           -1.07692381656692       -3.13271320190909       -0.94714434913180
H           -2.51348652380321       -2.53258124414788       -0.06100984926856
H            1.25890653598332       -2.91782306213298       -0.02677231689235
25
 energy: 7.786279971988 xtb: 6.6.1 (8d0f1dd)
C            3.44642357465038        1.11705416276998        0.09778612950146
N            2.38276215467981        0.14614732021255        0.01413774202753
C            2.63556665479954       -1.30312600050684        0.02254645384251
N            1.35647844380243       -1.90464353566382       -0.01434017544413
C            0.41241329867602       -0.97499686285376       -0.01869700658802
C            0.93726033605901        0.31364828478268       -0.00073475744328
C            0.05327694313543        1.38943054612591        0.00955529988697
O            0.33895400753016        2.62152678713327        0.03729861028764
N           -1.41573108000684        1.03524064370948       -0.03137868324284
C           -2.39621055986676        2.12237042733250       -0.04686212957088
C           -1.90962262635160       -0.20353835649325       -0.06054377904475
O           -3.11185310886877       -0.48435645227477       -0.09659169702246
N           -0.95231210293315       -1.23019790526345       -0.03772375802779
C           -1.39437067213805       -2.59112553891703       -0.04745277992196
H            3.88204192559807        1.22298762456904        1.10879115737479
H            4.29412329204883        0.86149898545116       -0.57180328450775
H            3.03774903077608        2.08788423615263       -0.20655762078970
H            3.56808473446662       -1.82350281796095        0.00919223837492
H           -1.79148002141980        3.02428628549614       -0.01309426876039
H           -3.02810186728896        2.12850400628145       -0.94458100371763
H           -3.08798023036468        2.10085482470590        0.80483550858348
H           -1.03767472021941       -3.12387381934322        0.84222093050709
H           -1.03110376410340       -3.10988976773550       -0.94161550717448
H           -2.48145230025248       -2.53476763606279       -0.05050323760194
H            1.20497332552780       -2.89838683947532       -0.03685048538107
25
 energy: 16.194152533872 xtb: 6.6.1 (8d0f1dd)
C            3.51621982488647        1.08343049664536        0.10042071641765
N            2.39957177835091        0.16084592133857        0.00716296932877
C            2.63473910355154       -1.31227123659008        0.01857319911634
N            1.33841391868889       -1.88834115978031       -0.02189969868436
C            0.41255595813176       -0.94344745989281       -0.02387700997455
C            0.93818677185022        0.34590080193733       -0.00504872901456
C            0.02705597287158        1.40346110664595        0.01873203226699
O            0.28575772961750        2.64425030311689        0.05606529613237
N           -1.46669557049513        1.04116974276464       -0.03061044472440
C           -2.46043842840509        2.12169726816027       -0.04496381970790
C           -1.93878480912182       -0.20342836794762       -0.06693520069044
O           -3.13774999938777       -0.51487943662182       -0.10856997958158
N           -0.95462849078720       -1.20647346131612       -0.03967361963427
C           -1.35972255596179       -2.57823478376638       -0.04165183990589
H            3.91968919281734        1.20960066318829        1.12616023935502
H            4.39211288027813        0.75908836844555       -0.52146067712216
H            3.18104630971677        2.07253414446767       -0.26622906002639
H            3.55283998050959       -1.85992235750601       -0.00881662841816
H           -1.85879559086270        3.02435706685420       -0.00586736641384
H           -3.09676353824189        2.13813745619438       -0.94169115096165
H           -3.16135740567690        2.10365043965036        0.80160698662557
H           -0.98166227322148       -3.09778689035830        0.84877477441079
H           -0.98482758221801       -3.09042182987417       -0.93564659910478
H           -2.44775031517177       -2.54556089634570       -0.03894940856817
H            1.16320180621719       -2.87832729723818       -0.04857108497307
25
 energy: 24.683000475114 xtb: 6.6.1 (8d0f1dd)
C            3.58221385275020        1.04513246579023        0.10286312637328
N            2.41331918880667        0.17410496432888        0.00156753418923
C            2.63177945100202       -1.31528735152913        0.01416528313819
N            1.32512829129600       -1.87111792081987       -0.03016879087879
C            0.41206461089480       -0.91326944419266       -0.02907601740944
C            0.93820014719464        0.37621915711951       -0.00768906604656
C            0.00122865473883        1.41983643442506        0.02936117787458
O            0.24014746518748        2.66417882460073        0.07624373077100
N           -1.51499351661107        1.05079087602105       -0.02968097332266
C           -2.52452230955189        2.12435727444930       -0.04340551029928
C           -1.96632106615491       -0.20159998351491       -0.07389742532519
O           -3.16028706842251       -0.54016843936643       -0.12150884087132
N           -0.95605846980322       -1.18356653034833       -0.04225437713327
C           -1.32441857338812       -2.56653365368226       -0.03534879497175
H            3.95000918495600        1.19328038544904        1.14215202885520
H            4.47884037566499        0.64694816407353       -0.46855935165310
H            3.32506037769071        2.04592036713530       -0.32689904368176
H            3.53745353025038       -1.88409387960641       -0.02953322771893
H           -1.93418900006932        3.03314879605509        0.00191882519980
H           -3.16351231020125        2.14812200395424       -0.94002091101216
H           -3.23436631419988        2.10575580193879        0.79778327918938
H           -0.92498149391462       -3.07131894192628        0.85608234888713
H           -0.93860309656563       -3.07271301585801       -0.92884987634580
H           -2.41292148709203       -2.56162827571353       -0.02642474254325
H            1.13194424347810       -2.85746947661095       -0.06178648911717
25
 energy: 33.063840484387 xtb: 6.6.1 (8d0f1dd)
C            3.64524836304802        1.00194270342556        0.10538882293025
N            2.42573474330782        0.18499682373632       -0.00231467599887
C            2.62801746990917       -1.31338504692931        0.00952652463212
N            1.31661354660712       -1.85313745920009       -0.03875810059642
C            0.41170082645553       -0.88489353759026       -0.03387607027683
C            0.93834735815358        0.40428343232238       -0.00822618531766
C           -0.02255035575732        1.43782353547069        0.04088721583836
O            0.20247792888994        2.68181052040208        0.09745846614620
N           -1.56039494530580        1.06393716328645       -0.02898085242607
C           -2.58945683723949        2.12910234860887       -0.04294817478612
C           -1.99178641638128       -0.19734504799411       -0.08123834781000
O           -3.17940196432332       -0.55993469462341       -0.13522116956157
N           -0.95658336102121       -1.16085536715635       -0.04513870104961
C           -1.28958953823098       -2.55450140205641       -0.02847917434815
H            3.97911442304081        1.17225681299740        1.15436302737647
H            4.55171036109643        0.53077472563210       -0.41686235686300
H            3.46648033745092        2.00636099229138       -0.38141901088188
H            3.52357506308350       -1.89729142339169       -0.05236716944269
H           -2.01926893424227        3.04957950660060        0.00937058969227
H           -3.22975782313232        2.15678289393431       -0.94020981615805
H           -3.30861401216808        2.10581238993405        0.79225139113369
H           -0.86943450810930       -3.04337188535984        0.86412784853908
H           -0.89363104791985       -3.05553454887773       -0.92108475431232
H           -2.37773087039244       -2.57988366612398       -0.01310519053166
H            1.11139486111718       -2.83630116716705       -0.07611023978019
25
 energy: 29.874785156596 xtb: 6.6.1 (8d0f1dd)
C            3.69420896277834        0.93207176679527        0.10057864603951
N            2.42655990347981        0.16999627207608       -0.00488360705614
C            2.59005046419937       -1.26541405443727        0.00236731070289
N            1.34772158941265       -1.82835185874578       -0.04991213702418
C            0.39996282861000       -0.85891728644343       -0.04028372084107
C            0.94973164484426        0.41514902741658       -0.00205439740447
C           -0.06756381094812        1.49206446612757        0.06002534002064
O            0.17981867650750        2.67034890982488        0.12255606097339
N           -1.59884178017941        1.10256621071835       -0.02769644184624
C           -2.65473982840298        2.15982044844240       -0.04273290343385
C           -2.02204758044696       -0.20098310731118       -0.09045437846204
O           -3.17500238101212       -0.57546640699129       -0.15241968960653
N           -0.93892031532899       -1.14576250929342       -0.05009750615103
C           -1.24388150574213       -2.55401787163479       -0.01959449227808
H            3.96276192344742        1.14895558985788        1.15237026138945
H            4.57828514076832        0.37911760758026       -0.33175074121055
H            3.63916001604084        1.90233786699594       -0.44837105576521
H            3.48170882175542       -1.85842760805133       -0.08814871032933
H           -2.12572458334301        3.10476817518979        0.01906768776920
H           -3.28633374477199        2.17584368558387       -0.94304997351003
H           -3.37459708395245        2.11357957697260        0.78880037208203
H           -0.81175774381346       -3.01436269878954        0.87566137361850
H           -0.84997176258388       -3.04351935379082       -0.91406412882622
H           -2.32873817616450       -2.62319618496467        0.00402296235187
H            1.14036499278247       -2.80917206095602       -0.09290223505514
25
 energy: 41.444161423518 xtb: 6.6.1 (8d0f1dd)
C            3.75358806984899        0.87226526281097        0.10495629873800
N            2.44523807936277        0.17151346666402       -0.01103566856349
C            2.58921969062157       -1.25251629885178       -0.00481906696639
N            1.34665612598035       -1.80532430448999       -0.06443950035023
C            0.40146209025405       -0.83385831424856       -0.04761406501916
C            0.95402782475101        0.43723532536850       -0.00116947282914
C           -0.08642308319070        1.50193785645917        0.06850839077227
O            0.13067296112977        2.69166280545091        0.17038877271862
N           -1.65388391506113        1.11305122247378       -0.03074955440503
C           -2.72461648517727        2.17655044711212       -0.04281779750099
C           -2.05449839728565       -0.19565279528029       -0.09863738802998
O           -3.19559475609421       -0.60791785339842       -0.17482660102287
N           -0.94040694721463       -1.11986463146669       -0.05309362534124
C           -1.20156505821854       -2.54081144785195       -0.00827475215799
H            3.96816524093882        1.15425181611737        1.16192461282048
H            4.63382361517115        0.22938967013406       -0.24283020016091
H            3.79432183294384        1.80711703504557       -0.53095268829193
H            3.47299085275550       -1.85226993935116       -0.12882722476612
H           -2.21521189410736        3.13283766070029        0.02968783440420
H           -3.36116188962616        2.21644936431743       -0.94491982718147
H           -3.46049864710312        2.14033080863654        0.78079252184686
H           -0.74361606214095       -2.98099118064044        0.88752150235249
H           -0.79817049832217       -3.02817859371773       -0.90127560112958
H           -2.28203923835283       -2.65246740499463        0.02593691038005
H            1.13973515607332       -2.78571137482718       -0.11639991416906
25
 energy: 54.142308982549 xtb: 6.6.1 (8d0f1dd)
C            3.80584741407046        0.79879930409917        0.10609718780590
N            2.48569144828940        0.14583169283634       -0.02794308908801
C            2.58602390052687       -1.21368734458681       -0.01567610452427
N            1.35945664826659       -1.77424075635733       -0.08175537682958
C            0.40281600700808       -0.81496715321133       -0.05561790274885
C            0.98069633043909        0.44437325883230        0.00446912309751
C           -0.08510525749113        1.50551652155155        0.06428307618302
O            0.07435753825036        2.71216741524964        0.24043500898157
N           -1.71083115552594        1.12035652432532       -0.04257468413454
C           -2.79969690896293        2.19982797355721       -0.04821512874666
C           -2.09550374611812       -0.18461659999891       -0.10116386033621
O           -3.20759621176971       -0.65389710248930       -0.19841845167839
N           -0.94021293821142       -1.08820260840608       -0.05087731024831
C           -1.16330012201689       -2.51825082681704        0.00613253004200
H            3.97607139630461        1.18041156594006        1.12792475619215
H            4.62545020570166        0.09761845785602       -0.11042072261749
H            3.96298291790179        1.62086515891255       -0.58907335549200
H            3.46636491700895       -1.81955947800540       -0.17744403630598
H           -2.31301880530816        3.16580233509076        0.03479879124413
H           -3.44480637774960        2.26880760053851       -0.95132604725281
H           -3.55252160464247        2.17904318352328        0.76868470366889
H           -0.68479693042801       -2.94077609815464        0.89736957183708
H           -0.75515149528443       -3.00635608192112       -0.88666038281195
H           -2.22923627360455       -2.67311478053074        0.05190018612976
H            1.16823377128198       -2.76272355966210       -0.13789458621958
25
 energy: 69.213609713025 xtb: 6.6.1 (8d0f1dd)
C            3.85612796811601        0.76268837640536        0.11602151538942
N            2.50677752556229        0.15639000084719       -0.03345780778032
C            2.59899453417815       -1.21812278844120       -0.03020085338515
N            1.36032553270660       -1.76939536705599       -0.09996830356368
C            0.41213674519549       -0.79934838667450       -0.06011507717237
C            0.98316330819952        0.46958661600022        0.01504729429524
C           -0.07951521565925        1.51439476902093        0.09651848230736
O            0.08140548152550        2.70423121508095        0.26820285720706
N           -1.77134801854285        1.14437159252562       -0.04281118194787
C           -2.88839788013316        2.21183127581821       -0.05351276929297
C           -2.12516029062598       -0.16323324654004       -0.10982086921676
O           -3.22781946725809       -0.67308006116276       -0.20740085964649
N           -0.94104800849187       -1.06227821566887       -0.04803221464719
C           -1.13904271292002       -2.49372697298188        0.01480621362945
H            4.00279796243486        1.19308622238268        1.11861718365027
H            4.67386367536709       -0.04180284448086       -0.00530700093066
H            4.10702513107819        1.54630019578923       -0.67272525318083
H            3.47980419771822       -1.81665126442731       -0.21103433275188
H           -2.42551748868329        3.18891305618800        0.04241595310821
H           -3.52930013244649        2.27734335953969       -0.95781055905248
H           -3.64889835489205        2.17384927798165        0.75584538921899
H           -0.64112159684738       -2.90760267202513        0.90215831464840
H           -0.72464951468019       -2.97968656164671       -0.87830354358750
H           -2.20053683881250       -2.67071413825113        0.07075207603838
H            1.19214812584774       -2.75831483605149       -0.16285075718922
25
 energy: 83.886600231697 xtb: 6.6.1 (8d0f1dd)
C            3.91154772958115        0.72512883126093        0.12162959158165
N            2.54863838693425        0.14945069929037       -0.04978549465919
C            2.62085805476348       -1.23227103307306       -0.05559234625766
N            1.36945023230609       -1.77274573271068       -0.11880712534594
C            0.42869031892194       -0.79336204876680       -0.06499855988480
C            1.00426006281461        0.48042165002135        0.02184246442606
C           -0.04691778907974        1.51425320253672        0.11887076342177
O            0.09979552348779        2.69659896964855        0.30576525552339
N           -1.83493803099153        1.16474539745592       -0.05074452942552
C           -2.98132551968335        2.22449245950310       -0.06558804950456
C           -2.15945921373866       -0.13895647726661       -0.11539807181565
O           -3.24548330739147       -0.69433117170275       -0.20886443600764
N           -0.93637973789924       -1.03528702187405       -0.03946052231109
C           -1.12573663459485       -2.46339555423903        0.02559441418328
H            4.04756510633861        1.22484252255552        1.08897896070505
H            4.68956485853781       -0.09082964426876        0.08885113079332
H            4.21095370666257        1.41845342340584       -0.69608168636806
H            3.50311613702863       -1.82644161738581       -0.23543946484798
H           -2.53657629143149        3.20743497845549        0.03758327430960
H           -3.62294423599708        2.29174105077542       -0.96968842709291
H           -3.74989554400108        2.17994061075305        0.73762584079859
H           -0.61714470155694       -2.87675198996429        0.90717024457593
H           -0.71396174141957       -2.95002282630109       -0.86961754072866
H           -2.18232367719576       -2.64743464062753        0.09150159565332
H            1.23086097554041       -2.76664543530993       -0.17831338557489
25
 energy: 100.040073626513 xtb: 6.6.1 (8d0f1dd)
C            3.94206881638898        0.70181287309757        0.12301019595313
N            2.60054853948704        0.12943394017704       -0.07149791244716
C            2.65794030165370       -1.24491715940719       -0.08660351899720
N            1.40556424705968       -1.78839194399203       -0.14087056737136
C            0.45565972209431       -0.81122955151379       -0.07098120777410
C            1.03839547369571        0.46437785898665        0.02452888603044
C            0.03089240877104        1.50012159325099        0.14387499903058
O            0.16370195612849        2.67170924854322        0.35358891965954
N           -1.91629371707405        1.18738812238175       -0.06222730048147
C           -3.08424547760145        2.25155976348761       -0.07537880123035
C           -2.20876027519696       -0.10927352524550       -0.11592226479569
O           -3.26626712198481       -0.71167335710403       -0.19814200054682
N           -0.92325642548806       -1.01580335891851       -0.02678806243199
C           -1.12759125515516       -2.43668195920080        0.03147813212227
H            4.05101844005317        1.30738813126828        1.04456046156332
H            4.67691252793309       -0.13017188517062        0.22554065487672
H            4.29456734290810        1.26455016628131       -0.75832959928101
H            3.55355674519163       -1.81766093761996       -0.24335245447266
H           -2.64275495128230        3.23097702007702        0.03204853037920
H           -3.72690293792274        2.33135432466320       -0.97984984913772
H           -3.85241730624454        2.21092937486740        0.72813263512465
H           -0.62380298201445       -2.86568169211693        0.90319719983086
H           -0.73318915644436       -2.92893440362747       -0.86889040808958
H           -2.18012997701953       -2.60861719757945        0.10677037890962
H            1.32699973000002       -2.79353684341392       -0.19086315027578
25
 energy: 114.635296999359 xtb: 6.6.1 (8d0f1dd)
C            3.97975358503058        0.69193976144325        0.11898442073004
N            2.64992523863619        0.11582627258265       -0.10020058625919
C            2.69917557581101       -1.26804984091039       -0.11517026060679
N            1.43564926391006       -1.80774528765746       -0.15754680468950
C            0.48260091480126       -0.82634258871650       -0.07389232587935
C            1.07066622306026        0.44992568100271        0.02195378293804
C            0.10246800212511        1.48134785079014        0.18750599362945
O            0.22846877973073        2.64430085812118        0.37559936144005
N           -2.00619839876766        1.20925733475488       -0.06536631528777
C           -3.18704574504340        2.27798363655727       -0.08594042626244
C           -2.26683284355191       -0.08267714169222       -0.11413230306482
O           -3.30292700908760       -0.73537490412378       -0.19126603107704
N           -0.90862567350568       -0.99791798445725       -0.01419808630819
C           -1.12667938370768       -2.41674797356490        0.03453635615600
H            4.07828231972217        1.34734813502322        0.99316143651502
H            4.69152256039304       -0.12760389126704        0.32006237569643
H            4.36146650771021        1.16448892362689       -0.78183247756115
H            3.60658930015824       -1.83276737296242       -0.22778978749718
H           -2.73071558437324        3.24716530097906        0.02283092942219
H           -3.83076393889601        2.37351015852422       -0.98978435229942
H           -3.95533080406851        2.25313447744809        0.71877207579277
H           -0.62959211640653       -2.86698539247387        0.89873241611498
H           -0.74629074367028       -2.91508865421108       -0.86994901870619
H           -2.18151632900013       -2.56983300594089        0.11413296951912
H            1.39816496692638       -2.82006575070388       -0.19216944630764
25