25
 energy: -43.830083679559 gnorm: 0.109528669337 xtb: 6.6.1 (8d0f1dd)
C            3.20326256935114        1.28838388325529        0.09507164307681
N            2.35700876298434        0.10345106946756        0.03314721440310
C            2.61717871159180       -1.26400793415972        0.03190877105625
N            1.40054129908898       -1.96989100917138        0.00595936154648
C            0.41344697821612       -1.08409999754336       -0.01076977838564
C            0.96179197495756        0.17610351951807        0.00397414108527
C            0.14532691718482        1.32989231505116       -0.01680299740434
O            0.55133724928771        2.45188779012101       -0.06686968703602
N           -1.26381635099818        1.02540392085076       -0.03218387982898
C           -2.18855754060368        2.12793777603992       -0.04750839233595
C           -1.82521721790878       -0.22012137088883       -0.05007183383485
O           -3.03250972180254       -0.40039692524639       -0.07152049706455
N           -0.94820155501745       -1.31581194696678       -0.04064043271631
C           -1.50391416631038       -2.63941904252810       -0.06284556718770
H            3.73676703176918        1.36757747660339        1.06273773634895
H            4.00420926220088        1.22053572354073       -0.68750607471123
H            2.57357855491968        2.14256111881332       -0.04961907882613
H            3.58126191835673       -1.71720474007347        0.04511227841340
H           -1.63095797627427        3.06076639387361       -0.02544941092742
H           -2.76036579028260        2.11606323426020       -0.94586177229772
H           -2.79735650042178        2.10292939098826        0.83322142972796
H           -1.22669449380050       -3.20354652143163        0.82982809696805
H           -1.20222322224900       -3.18907912807562       -0.95673444179679
H           -2.58576037851007       -2.51890418525191       -0.08047772854698
H            1.30182418179023       -2.95689609911257       -0.00969838789776
25
 energy: -43.835394552049 gnorm: 0.030671589419 xtb: 6.6.1 (8d0f1dd)
C            3.20944643817523        1.25024429970940        0.09319675405699
N            2.34192822319055        0.09893776450488        0.03302600961192
C            2.62064192477056       -1.26536128977861        0.03548840189695
N            1.41553028339738       -1.96333111721861        0.00731041930037
C            0.41110529355834       -1.07688383340682       -0.01022251820602
C            0.94747013615830        0.19473295871407        0.00370474099242
C            0.13447072685686        1.35128103187067       -0.02634839442417
O            0.52178525701005        2.51369366524285       -0.06275065913302
N           -1.26135134829131        1.02694186642970       -0.03305004483910
C           -2.18819773210720        2.13611513697648       -0.04547812516856
C           -1.81818969244705       -0.21655980965083       -0.04949381379797
O           -3.02054939602460       -0.39899915379795       -0.07020654545790
N           -0.93992283830100       -1.31094769118516       -0.04062874016505
C           -1.49644089594784       -2.63954622848670       -0.06257873218180
H            3.72130773449851        1.32972060519338        1.06268197942322
H            3.98510678013969        1.19969108837483       -0.68786496233423
H            2.58386524305889        2.12202788961844       -0.05310868193929
H            3.58399990684594       -1.71648184047115        0.04725328798563
H           -1.60698580620958        3.05904175694285       -0.02654819592719
H           -2.78388397431238        2.11191143318437       -0.94907345954592
H           -2.81959417573377        2.09889566188270        0.83561508015731
H           -1.21562920278097       -3.20251232416363        0.83049547486428
H           -1.18905874566410       -3.18663623775253       -0.95700952834436
H           -2.58043151678392       -2.52058008517220       -0.07926892060878
H            1.32553787446334       -2.96128083562696       -0.00874011438781
25
 energy: -43.835737821296 gnorm: 0.017859512602 xtb: 6.6.1 (8d0f1dd)
C            3.20540209497068        1.25676580018431        0.09261712032496
N            2.34340928953481        0.09597219333001        0.03589923056505
C            2.62340011869273       -1.26991764488680        0.03547200336595
N            1.42107859121789       -1.96736595558369        0.00709233685196
C            0.40844878253831       -1.08668016172567       -0.00850275686106
C            0.94901871585943        0.18478580961731        0.00883764196099
C            0.14406590190960        1.33348984022238       -0.02309996881207
O            0.54025323374846        2.50127478733018       -0.06165253383292
N           -1.24994990213283        1.01859905527096       -0.03113533559655
C           -2.17304688310355        2.13586102602562       -0.04511474561798
C           -1.81633813933605       -0.21849518922590       -0.04886610417092
O           -3.01879655336948       -0.39479937490352       -0.07216301350021
N           -0.94082124342005       -1.31722641615357       -0.04019743189872
C           -1.51147854330310       -2.64294372868124       -0.06314554411715
H            3.71958048654207        1.37420636011362        1.05508269303200
H            3.98123780417768        1.23469481298838       -0.68084936730965
H            2.57121619287516        2.13320041331796       -0.05411332050993
H            3.58568394709990       -1.72023226981369        0.04129719310102
H           -1.60170507283305        3.06117353741582       -0.02482118930117
H           -2.77220646558353        2.10833880683400       -0.95213997741644
H           -2.81186963002291        2.09423905662709        0.83438858366670
H           -1.23653119203759       -3.20732864335832        0.83052070946349
H           -1.21009758984592       -3.19177991470468       -0.95812110434784
H           -2.59467604226906       -2.51347165490951       -0.08006008338548
H            1.32668259561035       -2.96824583339756       -0.01082432382611
25
 energy: -43.836225295333 gnorm: 0.010035005709 xtb: 6.6.1 (8d0f1dd)
C            3.21509472516261        1.25351290280849        0.09324258787009
N            2.34391885394927        0.09911757609704        0.03324316814414
C            2.61807685025181       -1.26708323888160        0.03429099825927
N            1.41493744589757       -1.96082880598865        0.00555342440944
C            0.40441710509511       -1.08105348300898       -0.01111075569049
C            0.94867669591929        0.18857890595261        0.00625303280686
C            0.14039718265960        1.33055664874525       -0.02471290272721
O            0.54004017983794        2.49447179646294       -0.06736301623081
N           -1.25612928971250        1.02098124850831       -0.03235334955235
C           -2.18207156088456        2.13716397809812       -0.04471355727007
C           -1.82334589430024       -0.21581953724462       -0.04965363666953
O           -3.02581756623747       -0.39583728708109       -0.07074977371328
N           -0.94299644375096       -1.31259896101919       -0.04147465036513
C           -1.50160033699879       -2.64273747703859       -0.06282989222738
H            3.73076751971053        1.35442962788540        1.05779870213778
H            3.99207406305511        1.21353787250990       -0.68045500689814
H            2.58697017272726        2.13845205757435       -0.04886185817404
H            3.57934771804660       -1.71888881592796        0.04486311867021
H           -1.62103586518472        3.06516212664918       -0.02616107283641
H           -2.78152666894798        2.11033972668974       -0.94966472689385
H           -2.81611174360325        2.09681775412038        0.83615303351750
H           -1.21704146331421       -3.20193891383609        0.83081991212096
H           -1.19240385195530       -3.18773530146888       -0.95713068001555
H           -2.58495911209217       -2.52427865545068       -0.07943651792919
H            1.31228178218938       -2.96020703322187       -0.00914586891493
25
 energy: -43.836299097462 gnorm: 0.008213448449 xtb: 6.6.1 (8d0f1dd)
C            3.20897268432385        1.25500236623496        0.09107847112053
N            2.34428432326545        0.10011389497062        0.03202235228811
C            2.62177652208733       -1.26473933512319        0.03484936398671
N            1.42030682679339       -1.96041371857303        0.00651918614331
C            0.40850578600950       -1.08177169910189       -0.00998993552810
C            0.95004686793837        0.19031667182580        0.00666110341761
C            0.13817594226996        1.33301710878746       -0.02132910452300
O            0.53291241309340        2.49689181568289       -0.06146314094974
N           -1.25722180953678        1.02089597947580       -0.03125552309405
C           -2.18004022487674        2.13716055249892       -0.04523942477372
C           -1.82136884618041       -0.21702163396910       -0.04947986249762
O           -3.02298048540926       -0.40129812663733       -0.07148205664004
N           -0.93922460705537       -1.31318562014233       -0.04030862016398
C           -1.50151853276750       -2.64129167228790       -0.06288877564834
H            3.71843613916604        1.34553961440229        1.06112513594416
H            3.98313063481552        1.20953132921716       -0.68809081940133
H            2.57228771125839        2.13105151577870       -0.05289681845009
H            3.58523451790940       -1.71379295122883        0.04645770543730
H           -1.60720646618028        3.05825508776103       -0.02596860398892
H           -2.77484411020699        2.11405035357829       -0.95106793326748
H           -2.81315445003774        2.10093968689068        0.83482502729699
H           -1.22326283117977       -3.20360146214786        0.83055579795750
H           -1.19629031400926       -3.18733341843264       -0.95771212607351
H           -2.58366194596314       -2.51494698004894       -0.08044973595969
H            1.31866475199257       -2.95925464747807       -0.00807095080471
25
 energy: -43.836405864688 gnorm: 0.002927983377 xtb: 6.6.1 (8d0f1dd)
C            3.21183817039896        1.25429088590742        0.09358939110014
N            2.34506247975791        0.09879808663020        0.03386248459248
C            2.62100219963357       -1.26706488566455        0.03483255607206
N            1.41985691293896       -1.96185925749261        0.00581881880679
C            0.40786074888923       -1.08250792412679       -0.01032552840843
C            0.95055709904064        0.19050119841262        0.00593395786795
C            0.13983416186771        1.33465701862636       -0.02522489447131
O            0.53502194779474        2.49993397112721       -0.06560337931945
N           -1.25559782241120        1.02220133226095       -0.03292846035139
C           -2.18145277242011        2.13645094711862       -0.04498788536318
C           -1.82037266730771       -0.21513565394200       -0.04973445106267
O           -3.02189394557545       -0.39790090517036       -0.07065210923404
N           -0.93984072257851       -1.31320880073304       -0.04076102072093
C           -1.50396769485677       -2.64161148554814       -0.06244876773184
H            3.72422585192644        1.35323393024404        1.06066967291987
H            3.98789679661794        1.21620273185501       -0.68250733628023
H            2.57793214902971        2.13173288460494       -0.05172612161283
H            3.58348230878625       -1.71823180369004        0.04406708201632
H           -1.61214830417561        3.06035416962521       -0.02621831794809
H           -2.77923316787225        2.10948759798818       -0.94963103203778
H           -2.81448442029047        2.09558165222980        0.83568449115520
H           -1.22474965916424       -3.20384785343909        0.83076764899125
H           -1.19945679217953       -3.18887117291878       -0.95685561781746
H           -2.58676042332366       -2.51778142915361       -0.07891423659464
H            1.31734806299333       -2.96129052281808       -0.01030623273988
25
 energy: -43.836390872892 gnorm: 0.003352791175 xtb: 6.6.1 (8d0f1dd)
C            3.21063295849540        1.25447175104211        0.09115036930604
N            2.34340819436240        0.09849366812632        0.03395270204337
C            2.61931757786897       -1.26726012655073        0.03581433324212
N            1.41865906353288       -1.96216707342710        0.00763570214979
C            0.40597555773066       -1.08347672337591       -0.00897337604161
C            0.94904542255702        0.18932697335937        0.00813266255601
C            0.13949024439291        1.33270159872675       -0.02142052920672
O            0.53628544936235        2.49785860447601       -0.06158011245649
N           -1.25607707426180        1.02158668944241       -0.03092784651157
C           -2.17992140530012        2.13827895378845       -0.04504253006343
C           -1.82209187988520       -0.21517400370027       -0.04912057799892
O           -3.02366348931671       -0.39752385252167       -0.07206015521837
N           -0.94128886385262       -1.31389415054442       -0.04037968311253
C           -1.50264104427383       -2.64325395044192       -0.06378285062536
H            3.72590572855743        1.35513248903707        1.05603858900077
H            3.98538419751293        1.21571161239876       -0.68556297584949
H            2.57903106836195        2.13445862394765       -0.05254223357132
H            3.58187455341717       -1.71785520494942        0.04511677613116
H           -1.61057245641390        3.06217115686734       -0.02524414458768
H           -2.77589259788480        2.11245345763548       -0.95115254819699
H           -2.81523669595904        2.09910440353772        0.83429274054770
H           -1.22121018814620       -3.20449255578105        0.82947883288115
H           -1.19419296349822       -3.18831146090324       -0.95832402075705
H           -2.58575166304827       -2.52247420512322       -0.08142507310709
H            1.31549080320854       -2.96175196313299       -0.00767333872558
25
 energy: -43.836418940136 gnorm: 0.001350369083 xtb: 6.6.1 (8d0f1dd)
C            3.21067913624582        1.25456301636725        0.09284288303850
N            2.34399100552279        0.09893155950259        0.03283515289551
C            2.62036995679606       -1.26648018800766        0.03439900659154
N            1.41987107216561       -1.96157168611955        0.00555232719613
C            0.40691042266065       -1.08333245552738       -0.01082064722309
C            0.94970747786994        0.18953318687803        0.00584703116706
C            0.13962913288127        1.33246528522680       -0.02395566510444
O            0.53614249041863        2.49737738369291       -0.06461664516057
N           -1.25602720490046        1.02122459988944       -0.03219076846131
C           -2.18049704275933        2.13727228376978       -0.04502178594214
C           -1.82167378269355       -0.21549546046247       -0.04951279138141
O           -3.02316668852084       -0.39874639753325       -0.07080701011797
N           -0.94039665273042       -1.31374703995838       -0.04096861853846
C           -1.50315205303672       -2.64222335209317       -0.06252245053653
H            3.72285830281341        1.35203574041263        1.05993391533757
H            3.98684040209434        1.21468794949763       -0.68285695381071
H            2.57851642805919        2.13408571154077       -0.05105129503514
H            3.58327343547583       -1.71646469266078        0.04485493208365
H           -1.61161294719878        3.06126526358664       -0.02617079081404
H           -2.77769075380389        2.11135748610490       -0.95015877398592
H           -2.81396036574077        2.09808480225798        0.83541114789779
H           -1.22240296683330       -3.20302163555156        0.83121316724932
H           -1.19704992835115       -3.18841119986505       -0.95709110687477
H           -2.58584983181551       -2.51828346550096       -0.07919659532105
H            1.31665145290112       -2.96099198351365       -0.00954695332162
25
 energy: -43.836398335921 gnorm: 0.002968656481 xtb: 6.6.1 (8d0f1dd)
C            3.21250003800573        1.25417029312200        0.09187543991592
N            2.34544342077094        0.09893392649088        0.03459193604598
C            2.62107028504952       -1.26671305829220        0.03634217507004
N            1.42024184099077       -1.96100562721934        0.00790676719067
C            0.40787220729545       -1.08225938838869       -0.00856281517730
C            0.95091302988627        0.19098240959535        0.00780186308532
C            0.13990430628365        1.33458929494071       -0.02310862560533
O            0.53498715080451        2.49977435405719       -0.06381637750779
N           -1.25576008714563        1.02210981676514       -0.03206589580145
C           -2.18210422835681        2.13601130211707       -0.04487467952606
C           -1.82063914312208       -0.21464993249090       -0.04958128854321
O           -3.02194523704596       -0.39841389514576       -0.07183140628358
N           -0.93953254782379       -1.31297781459333       -0.04012776692809
C           -1.50365162078773       -2.64127139272275       -0.06362620628348
H            3.72624485925614        1.35320283836954        1.05843906332798
H            3.98708608935442        1.21410041702085       -0.68611462318654
H            2.57759456267608        2.13077657406532       -0.05328908658487
H            3.58359434235224       -1.71802204178661        0.04509778575270
H           -1.61332885493654        3.06007930768385       -0.02546283503895
H           -2.77888374488410        2.10926429001174       -0.94998021399576
H           -2.81551965739224        2.09497258020794        0.83538499751680
H           -1.22570103572295       -3.20474162799509        0.82917396751338
H           -1.19850079354240       -3.18756006851800       -0.95836442472989
H           -2.58625356711709       -2.51700130021443       -0.08120198395252
H            1.31632888267153       -2.96023654514700       -0.00820505444607
25
 energy: -43.836419215158 gnorm: 0.001325172009 xtb: 6.6.1 (8d0f1dd)
C            3.21149814936578        1.25438063837882        0.09258350198446
N            2.34472298842669        0.09878331801088        0.03401782726778
C            2.62049142779832       -1.26685088665407        0.03531374390339
N            1.41984776383399       -1.96135312668370        0.00663354487893
C            0.40724995259144       -1.08273978684175       -0.00956730929881
C            0.95028777602978        0.19048289022964        0.00699018141614
C            0.13970830064141        1.33401088207776       -0.02349318325356
O            0.53513669396304        2.49921261332771       -0.06396563517317
N           -1.25592673102094        1.02190658370058       -0.03219195033539
C           -2.18110593208157        2.13696508619386       -0.04510945635766
C           -1.82119879896666       -0.21474296738227       -0.04956879587188
O           -3.02255616618876       -0.39823477044512       -0.07130389398433
N           -0.94009448885934       -1.31337362337598       -0.04046667965210
C           -1.50319527887571       -2.64209684127145       -0.06292996738305
H            3.72475571023882        1.35317598962273        1.05926832634723
H            3.98683417533608        1.21526027077197       -0.68442700918868
H            2.57742324552439        2.13180683966604       -0.05217400108348
H            3.58305443725857       -1.71794133869646        0.04441456762598
H           -1.61143098203999        3.06058700987958       -0.02585254621898
H           -2.77785218346414        2.11081278278794       -0.95032374077075
H           -2.81469430055247        2.09696435794782        0.83511577363039
H           -1.22355724433053       -3.20436729532708        0.83014453548492
H           -1.19743957969447       -3.18855942232491       -0.95739958943800
H           -2.58599169323909       -2.51928865777021       -0.07992599804340
H            1.31599325582530       -2.96068583388883       -0.00938153465803
25
 energy: -43.803063909976 gnorm: 0.192377974373 xtb: 6.6.1 (8d0f1dd)
C            3.11621665835243        1.38869772087248        0.09822010209362
N            2.41943530673909        0.06919947417430        0.04661310278949
C            2.64616645319973       -1.31866580727473        0.03874243083678
N            1.41945739363377       -2.02076388324251        0.01844346846921
C            0.42640991126239       -1.11911199181541       -0.01155012040167
C            0.98832722643153        0.11824695344981       -0.00326454821955
C            0.19956514821654        1.25974534821736       -0.04046218457871
O            0.56482062558913        2.36237636066990       -0.19138338865706
N           -1.25869528714570        0.98647402845529       -0.03617307184589
C           -2.14627471658544        2.11962023810859       -0.04466673292093
C           -1.81564101852451       -0.24294793724739       -0.05387860280274
O           -3.01180025733766       -0.43324797700770       -0.07578731680799
N           -0.94425658335349       -1.34585846682928       -0.04494789988386
C           -1.53839892170722       -2.64512795075365       -0.06665631677569
H            3.71041261459057        1.52003326068318        1.04759763619483
H            3.95692557871498        1.40053766909458       -0.70492687816278
H            2.43658623976813        2.15745518932535       -0.01383103331582
H            3.58358851128683       -1.79937839180713        0.05154948986959
H           -1.58665141212478        3.03415658676502       -0.02550880431999
H           -2.69926966724820        2.14555547949199       -0.93521325358878
H           -2.71881888697780        2.13355684092450        0.84874023962432
H           -1.28158665904659       -3.21817184755149        0.82940719750819
H           -1.25641020952953       -3.21114306773933       -0.95916689370285
H           -2.61541175080078       -2.48125095273208       -0.08930193936932
H            1.27051462349273       -3.01462538158518        0.01500633315224
25
 energy: -43.821764249581 gnorm: 0.051343505803 xtb: 6.6.1 (8d0f1dd)
C            3.15317077886239        1.32266868037404        0.09666807166553
N            2.38721457762538        0.07093413981668        0.04852573065927
C            2.64272814564813       -1.30690676279856        0.04586742136993
N            1.43196790024135       -2.00546396079079        0.01992028476677
C            0.42312171645653       -1.11518351392674       -0.00819796953401
C            0.97101172071495        0.14561897862327       -0.00252212505461
C            0.17592295922584        1.29503555804382       -0.06271048827796
O            0.53440321740053        2.45338433359672       -0.18462843453477
N           -1.25150328943628        0.99039461310566       -0.03572265208904
C           -2.14310578384545        2.12668851788042       -0.04087637399561
C           -1.81029424828004       -0.24064954385024       -0.05240840759482
O           -3.01052887817022       -0.42907087012440       -0.07315323259316
N           -0.93344819495001       -1.34230068404934       -0.04437545828816
C           -1.52709846476439       -2.65106314865599       -0.06639592714552
H            3.69305420617060        1.46230851599225        1.05317544393151
H            3.92988579576454        1.36714988224365       -0.70559950449167
H            2.45310536868909        2.12493443429631       -0.02597484236249
H            3.59069945133176       -1.78580836806618        0.05565221759196
H           -1.54914044131706        3.03709112816467       -0.02780032031302
H           -2.73103541354977        2.13284788833613       -0.94308021499643
H           -2.74849585313577        2.12083190090580        0.85494301499007
H           -1.27191246665106       -3.22223865242766        0.82972813457681
H           -1.24248940110185       -3.21266610812045       -0.95977044275688
H           -2.60671081342856       -2.48925251066641       -0.08717076696918
H            1.30468833139552       -3.00392295325621        0.01350785663011
25
 energy: -43.822497654417 gnorm: 0.026761641713 xtb: 6.6.1 (8d0f1dd)
C            3.14449040260956        1.32060346697584        0.09488413557795
N            2.38070619533472        0.06670245006766        0.04818322900054
C            2.64566356410490       -1.31246338339840        0.04281838986157
N            1.43938494995404       -2.01333147178214        0.02051885599716
C            0.42418309259287       -1.13376799218033       -0.00468505314731
C            0.97549643544332        0.13100599044766        0.00650078107083
C            0.18152298914895        1.27322853541245       -0.05844332403871
O            0.55693825042805        2.43902147501678       -0.17972295553090
N           -1.23092707415360        0.98399730574420       -0.03385571043333
C           -2.12363490621842        2.12641361909971       -0.04052234472960
C           -1.80216218592261       -0.24202360253051       -0.05312714621681
O           -3.00485716444397       -0.42059112010203       -0.07715784920600
N           -0.92932786614320       -1.34864694317411       -0.04398350424485
C           -1.54215156324937       -2.65275587404759       -0.06670459935556
H            3.68253370409620        1.51538345818167        1.03272038824859
H            3.91213212690606        1.40560648955442       -0.68580276615599
H            2.42950409800025        2.13837922729107       -0.02493188405889
H            3.59460870192255       -1.79524258313185        0.04441246355896
H           -1.53958613751198        3.04142984620316       -0.02537373698419
H           -2.72105913061440        2.13124967591091       -0.94619419649808
H           -2.74368146681289        2.11657060317060        0.85110913261215
H           -1.29256188617082       -3.22207436213487        0.83055533216768
H           -1.26353410935860       -3.21362185098269       -0.96069522433173
H           -2.62056155641569       -2.47595810776612       -0.08775347638275
H            1.31209145737021       -3.01375335719906        0.01485207840391
25
 energy: -43.823564820388 gnorm: 0.015132286101 xtb: 6.6.1 (8d0f1dd)
C            3.15748117791490        1.31844133171546        0.09447144683497
N            2.38027292957514        0.07243008752199        0.04410535140718
C            2.64118361838407       -1.30789902662641        0.04338101487943
N            1.43321234650998       -2.00477446959130        0.01707304475905
C            0.42093138791026       -1.12613915825870       -0.00862203399109
C            0.97615235759158        0.13713808596402        0.00384365492704
C            0.17367676890855        1.27082866260708       -0.06010303791183
O            0.55540435645755        2.43166206295395       -0.18768863439950
N           -1.23693547523153        0.98799525271925       -0.03552692980439
C           -2.13575361299243        2.12742725665865       -0.03980222111244
C           -1.80857974886322       -0.23908853106538       -0.05310505406959
O           -3.01011760401739       -0.42239653740681       -0.07335899085069
N           -0.93069231721364       -1.34192061740822       -0.04595577990364
C           -1.53138443319800       -2.65224995469176       -0.06679733232902
H            3.69374598751145        1.48636175970707        1.03941402573733
H            3.92644388560222        1.37430293436744       -0.69060663919644
H            2.44946010000136        2.14923642237371       -0.01842270793450
H            3.58697119618441       -1.79447075167977        0.05438563491481
H           -1.56364612489314        3.04484235238828       -0.02742219515498
H           -2.73516862567381        2.13320666287160       -0.94194832111112
H           -2.75021923799080        2.12000152194627        0.85294478696347
H           -1.26988251127116       -3.21699851785899        0.82966951429593
H           -1.24356489251861       -3.20931516055540       -0.95984083336530
H           -2.61102436888308       -2.48877645013748       -0.08726069399034
H            1.29724376109146       -3.00448372386809        0.01477394559029
25
 energy: -43.823632348761 gnorm: 0.011998150982 xtb: 6.6.1 (8d0f1dd)
C            3.15344514415558        1.32194284433027        0.09325461945807
N            2.38299875244487        0.07502337567315        0.04395457411099
C            2.64596587369390       -1.30467370099027        0.04390831246094
N            1.43745910106978       -2.00258976875375        0.01837950194196
C            0.42370374901689       -1.12361944956491       -0.00697984993470
C            0.97824557641524        0.14139479358962        0.00372296680924
C            0.16831974290066        1.27411794774037       -0.05628528837512
O            0.54565553533794        2.43435817761372       -0.18330609769569
N           -1.23980034928622        0.98627006868689       -0.03404094428375
C           -2.13126634307611        2.12740710430654       -0.04064880421769
C           -1.80999196875220       -0.24192531537572       -0.05251158494123
O           -3.00993651290424       -0.42940123090466       -0.07489163632896
N           -0.92961331824859       -1.34249171992157       -0.04396888673145
C           -1.53283845225439       -2.65260205760077       -0.06613276914480
H            3.68201656737456        1.47712041620249        1.04984632759772
H            3.92068703276920        1.37806899657301       -0.70430247466111
H            2.43604061851107        2.13807230373943       -0.02207046531411
H            3.59249842859977       -1.78791916545739        0.05245865817195
H           -1.54450372060370        3.03520109104686       -0.02714388075709
H           -2.72190792135249        2.13733039171355       -0.94470859493226