25
 energy: 0.000000000000 xtb: 6.6.1 (8d0f1dd)
C            3.23720163006194        1.16630919979326        0.08434469647475
N            2.29877817382611        0.07527477071623        0.03981603040599
C            2.58028210190900       -1.21425402444508        0.03006176031096
N            1.43813958087363       -1.93419271955128        0.00098261760884
C            0.39035688448383       -1.05887472636071       -0.00790371836672
C            0.93510056364412        0.21347819449412        0.01709077491437
C            0.09450143893243        1.40504303904423       -0.00410947031874
O            0.49712751527797        2.54126714362870       -0.00342325688240
N           -1.25076640035757        1.06271879480407       -0.03085478223738
C           -2.21907211982101        2.15522099834493       -0.05001256985998
C           -1.81739487048744       -0.20012725993278       -0.04692818574614
O           -2.99983886758376       -0.37846417018721       -0.07008878229737
N           -0.92618586207120       -1.30210215599479       -0.03682761578324
C           -1.46982264913417       -2.64643102187190       -0.06029820460571
H            3.71247264356769        1.21471455160235        1.06488849150277
H            4.00791497605742        1.03430808813993       -0.67357694370751
H            2.69910007168542        2.09770118228144       -0.09130154882931
H            3.56654120610678       -1.63682992603973        0.04233140067262
H           -1.67107961066214        3.09322851271934       -0.02552706933167
H           -2.82428953597071        2.09428624779827       -0.95318082946668
H           -2.87644029173232        2.07745725625962        0.81450067533302
H           -1.17061996399332       -3.19584890659852        0.83242232437030
H           -1.14560257411436       -3.17511610292205       -0.95688275822323
H           -2.55549792440841       -2.55659984320617       -0.07459039797972
H            1.38130855184625       -2.94313852034425       -0.01389874181052
25
 energy: -5.396813603387 xtb: 6.6.1 (8d0f1dd)
C            3.24408887161796        1.17790577124426        0.08675488486364
N            2.30832097260045        0.09582436321645        0.03773398146564
C            2.59997924698723       -1.23227184549025        0.03007548761463
N            1.42795686422448       -1.94007444931505        0.00083570872941
C            0.39666185200397       -1.05622231563388       -0.00826593413232
C            0.93044417819085        0.22261855297696        0.01525559162919
C            0.10188627705694        1.39604211011066       -0.00526005696044
O            0.49843125287740        2.56194344407917       -0.00463882478001
N           -1.26007530869332        1.05052276086788       -0.03111468798100
C           -2.22035388157629        2.14659737196657       -0.04985282756764
C           -1.82329236196204       -0.20080935872396       -0.04731914326320
O           -3.01992594736435       -0.38318494238390       -0.07042750344169
N           -0.93400418950099       -1.30115618180292       -0.03705938765652
C           -1.47287653190048       -2.64302053362845       -0.06023198978191
H            3.72243739994393        1.22381979236901        1.06876476379874
H            4.01212726615556        1.04327416759224       -0.67631254030042
H            2.69727456257027        2.10254286781386       -0.08867725266740
H            3.57826010106088       -1.65843401087032        0.04273202926898
H           -1.65884856403976        3.07789937376286       -0.02535176703946
H           -2.82573343002869        2.09310195636328       -0.95426011128874
H           -2.87791723750411        2.07645607833107        0.81601665260048
H           -1.17037149634356       -3.19473572699403        0.83186529782624
H           -1.14531295405989       -3.17421114146889       -0.95604400240812
H           -2.55811838693344       -2.55161474662263       -0.07460565748535
H            1.36117611255324       -2.94378475558800       -0.01357881489545
25
 energy: -6.564800119182 xtb: 6.6.1 (8d0f1dd)
C            3.25296906127670        1.18726792561715        0.08981268527190
N            2.31753607362083        0.10840526925126        0.03396801875957
C            2.61181129786171       -1.24709065970897        0.03016910239388
N            1.41531520798058       -1.93844219469991        0.00114477641130
C            0.40068604722291       -1.05117472803948       -0.00919181930627
C            0.92825729816423        0.23141318473879        0.01203235890081
C            0.10825008056750        1.38368656239366       -0.00813221317826
O            0.48499580351595        2.56638507385366       -0.00835215552650
N           -1.27072913245392        1.03722289284026       -0.03202650329610
C           -2.22067273973993        2.13694105710879       -0.04960404467616
C           -1.82694062352042       -0.20349185713839       -0.04793305124677
O           -3.02828023673170       -0.39222736793577       -0.07053904416458
N           -0.94012753323093       -1.29796452001230       -0.03746918398809
C           -1.47549390158321       -2.63773919097343       -0.06002364781829
H            3.74038183311571        1.23776343185909        1.06973598733243
H            4.01989684388378        1.06419666647731       -0.67862842537755
H            2.69910887541606        2.10924122274439       -0.07956755734183
H            3.58273347755949       -1.68266859875154        0.04366553859116
H           -1.63748465978881        3.05566558873023       -0.02511825093037
H           -2.82721382559897        2.09239085402000       -0.95442731846745
H           -2.87850298992442        2.07588498285751        0.81748205616277
H           -1.17231141191473       -3.19197591981505        0.83151789715615
H           -1.14708679253623       -3.17209744926302       -0.95490627207989
H           -2.56066150887316       -2.54275669871911       -0.07456108199275
H            1.33577812364718       -2.93980692526311       -0.01201395544180
25
 energy: -6.477554027380 xtb: 6.6.1 (8d0f1dd)
C            3.25959138610039        1.19313641749501        0.09260737829092
N            2.32485495215361        0.11095962576913        0.03016549173220
C            2.61442437633043       -1.25562048856522        0.02988455043345
N            1.40826751449132       -1.93548879897421        0.00197453626595
C            0.40210802364591       -1.04768273634876       -0.01052274912593
C            0.93050652142853        0.23592266990027        0.00835343113057
C            0.10984722881763        1.37839996576876       -0.01292595628507
O            0.46716846401634        2.56685103191600       -0.01508215057000
N           -1.27789432020188        1.02860370387731       -0.03405594488606
C           -2.21970020432965        2.13089894374111       -0.04949133078616
C           -1.82951043109734       -0.20873438162053       -0.04890754947781
O           -3.03052357485007       -0.40406736259763       -0.07047111763760
N           -0.94103015227954       -1.29653506641220       -0.03808809564650
C           -1.47673297706975       -2.63463827454684       -0.05952485991626
H            3.75858522363758        1.24550239035526        1.06782931774795
H            4.02474784406173        1.09076277307626       -0.68201608994018
H            2.70103278550183        2.11580128945938       -0.06311584466420
H            3.58009408890334       -1.70290325410720        0.04487794187115
H           -1.61729026554379        3.03742937418153       -0.02533608268394
H           -2.82805880584363        2.09342110256971       -0.95352605411942
H           -2.87648841895673        2.07666180498709        0.81898630810364
H           -1.17624497168352       -3.18928479722017        0.83267302932944
H           -1.15068473982125       -3.17083534246170       -0.95419033920014
H           -2.56181016518400       -2.53320407901212       -0.07427997452500
H            1.31695528570870       -2.93632790905825       -0.00878394929369
25
 energy: -5.007679140677 xtb: 6.6.1 (8d0f1dd)
C            3.27311108463421        1.20722997299502        0.10172161626970
N            2.34355316131574        0.11238500236733        0.01919440186575
C            2.61704469083664       -1.27250120683639        0.02751268461010
N            1.39613746300446       -1.92868288912498        0.00483421000160
C            0.40482938073962       -1.03961999294041       -0.01520774219712
C            0.93995118074793        0.24465378899282       -0.00369205673555
C            0.11147398843155        1.37012731529283       -0.03116268705499
O            0.42258148673307        2.56808770554013       -0.04106537146730
N           -1.29203945313834        1.00857291647458       -0.04271948480250
C           -2.21477457752818        2.11832261413288       -0.04964245562285
C           -1.83557259488415       -0.22445165975171       -0.05280497670669
O           -3.03421526673468       -0.43590112509174       -0.06988510591843
N           -0.93913715046871       -1.29559757242523       -0.04049669328258
C           -1.47927109489526       -2.62965821729555       -0.05717292811866
H            3.80947863966188        1.24880934338693        1.06070624999189
H            4.02617439956218        1.17206677455865       -0.69747355568358
H            2.69860381808739        2.13237630558415        0.00030279983521
H            3.56880706139358       -1.75206935253130        0.04886962891528
H           -1.56772658398404        2.99563210435036       -0.02767046238650
H           -2.83035724425015        2.09926337002989       -0.94947644186946
H           -2.86566689616459        2.08081509542707        0.82436032949212
H           -1.18921395538769       -3.18350045823553        0.83839818219482
H           -1.16241867067466       -3.17139534116682       -0.95127362959156
H           -2.56373751006786       -2.50771461160875       -0.07272797519411
H            1.27459931096622       -2.92822127995217        0.00360535960269
25
 energy: 4.385514814623 xtb: 6.6.1 (8d0f1dd)
C            3.29774535618510        1.23840118979928        0.12638654814782
N            2.38452697786667        0.11248631333206       -0.00776922815485
C            2.62132317741393       -1.30570509211326        0.01936872421518
N            1.37501166912799       -1.91503897008390        0.01192473349730
C            0.41066943920145       -1.02277396884903       -0.02795777832460
C            0.96326925579835        0.26145204327047       -0.03540287707615
C            0.11623508527709        1.35501843756932       -0.08169259468459
O            0.33224146550461        2.56935128060132       -0.11350623542221
N           -1.31845146631629        0.96675331209295       -0.06801490155409
C           -2.20134156177881        2.09397620616257       -0.05066810409608
C           -1.84757902340173       -0.25923941057040       -0.06388436668972
O           -3.04043143667207       -0.50412102696082       -0.06792355545872
N           -0.93180508413076       -1.29622917420599       -0.04746123671177
C           -1.48445632777650       -2.62196346799831       -0.04998829778079
H            3.93165396697293        1.23007386925421        1.04136843747430
H            4.00824677014962        1.37256424299201       -0.74179583048522
H            2.68088766039660        2.16783800688334        0.17671334765050
H            3.54119598958001       -1.85740884139844        0.05932309085473
H           -1.46514332348718        2.91070851167254       -0.03612645087760
H           -2.83710032125904        2.11564827097978       -0.93763801277276
H           -2.83343825871848        2.09132326655764        0.83913456119465
H           -1.22048549622219       -3.17198717438200        0.85494372077314
H           -1.19051437882085       -3.17895977156820       -0.94156537066725
H           -2.56711045596350       -2.45218553333401       -0.06770669011082
H            1.18706498900913       -2.91095391753105        0.03697226320687
25
 energy: 12.373638739499 xtb: 6.6.1 (8d0f1dd)
C            3.30699188743039        1.25618488176918        0.14673580714981
N            2.40764599323040        0.10897988391034       -0.02617903954310
C            2.62137550276623       -1.32112045786952        0.01318485201479
N            1.36850835948377       -1.90821128533333        0.01721432129258
C            0.41342832241919       -1.01372177936458       -0.03941009220998
C            0.97956455715016        0.26853873286794       -0.06159332404870
C            0.12342312743989        1.35078670825536       -0.12560720170198
O            0.29597073646056        2.56499693576836       -0.17660847363664
N           -1.32912942554934        0.94868154590467       -0.09064433919549
C           -2.19446687859849        2.08399206164103       -0.04951253849094
C           -1.85275171694225       -0.27691219411228       -0.07357541250271
O           -3.04103080489679       -0.53888713867047       -0.06533394032767
N           -0.92432186036510       -1.29835550414434       -0.05474663888911
C           -1.48589352317289       -2.62080473878690       -0.04430899654269
H            4.01090322908933        1.19853001958803        1.02329255560764
H            3.97543312565025        1.50275237983521       -0.76453342376791
H            2.66819954581446        2.18289745991589        0.30947665849935
H            3.52043203544321       -1.91475826130211        0.06723652820004
H           -1.42616599078736        2.87240825393521       -0.04176144635191
H           -2.84638027422089        2.12796006322342       -0.92405866072876
H           -2.80700864337781        2.09380781719554        0.85383006685533
H           -1.23977505070613       -3.16564508434767        0.86806621305305
H           -1.20827404156411       -3.18990176744299       -0.93274941990419
H           -2.56682575019618       -2.42301135269510       -0.06336289047036
H            1.14236220593542       -2.90015857756874        0.06198273178680
25
 energy: 16.866789321749 xtb: 6.6.1 (8d0f1dd)
C            3.29959588915723        1.26958994621353        0.17306698308168
N            2.42602759113402        0.09163000436453       -0.04930777732348
C            2.61023525826292       -1.31723203731759        0.00684220810035
N            1.38524076716159       -1.90484195487856        0.02654019593541
C            0.41212531995529       -1.00727828666725       -0.05622570175154
C            1.00464185552995        0.26581421439552       -0.09924295864296
C            0.13707772597669        1.36516975043960       -0.18800840652156
O            0.30396311647454        2.54742178458572       -0.26648704742650
N           -1.32352055137003        0.95060960726590       -0.12417328326755
C           -2.18840480834400        2.08956265159713       -0.04605698004826
C           -1.85416080589690       -0.28844226605694       -0.08711962655084
O           -3.03300946367778       -0.55794185588009       -0.06097069226519
N           -0.90514515202251       -1.30765363633227       -0.06651219639502
C           -1.48173021068431       -2.63186278725917       -0.03695376866169
H            4.09195061702196        1.11838515875795        0.98453875236665
H            3.88710412645731        1.64396109004649       -0.77845149434330
H            2.64905361237269        2.17682952976642        0.48661516628047
H            3.48483267640404       -1.94993421162233        0.07929191698729
H           -1.44556035493242        2.87026023864218       -0.04968015176255
H           -2.85854353369854        2.14749764638702       -0.90102752478072
H           -2.76747501021892        2.09292189436611        0.87528008554824
H           -1.26055199111152       -3.16553187316140        0.88627280091897
H           -1.22728462034313       -3.21505783490410       -0.92051960893804
H           -2.55938850192637       -2.40680329222927       -0.05768215495243
H            1.12514111625399       -2.88804487834699        0.09700516055982
25
 energy: 15.367107090604 xtb: 6.6.1 (8d0f1dd)
C            3.27939671223564        1.27095640003155        0.19929656221189
N            2.42735505820569        0.08185768626824       -0.06765963906780
C            2.60098692729770       -1.28932900859970        0.00581386802115
N            1.40884668277679       -1.90434296571183        0.03394832094331
C            0.40804464143608       -1.00525745546213       -0.07250479617349
C            1.01765398096311        0.25848115053654       -0.13710911493331
C            0.14502742468566        1.38097159061714       -0.24329032007123
O            0.33139792948424        2.55129937489371       -0.37393584149049
N           -1.30163819821650        0.95492737631867       -0.15275777162657
C           -2.17769679002265        2.09934445073651       -0.03519395406535
C           -1.85143894843330       -0.28974655911469       -0.09927071832888
O           -3.02768044373177       -0.54659510000841       -0.05307493323168
N           -0.89249361933210       -1.32151694189209       -0.08022432402158
C           -1.47850123202099       -2.64927049577250       -0.03391975108251
H            4.11488782431738        1.04047850165057        0.94444268602050
H            3.78455775918052        1.70891754163116       -0.75000570250089
H            2.64386266205472        2.13542455792038        0.61162720303044
H            3.46201028348060       -1.93034218874300        0.08976739048162
H           -1.47383402253646        2.89768342891619       -0.05212817647688
H           -2.87218912633582        2.16806468238289       -0.86877898950654
H           -2.72215623305146        2.08713679232782        0.90696136368551
H           -1.26904287004662       -3.17097835923952        0.89714930179323
H           -1.23584636190479       -3.24386076089241       -0.91088728782424
H           -2.55202300180613       -2.41862502569290       -0.05577695178023
H            1.14272762925620       -2.87665007092998        0.12454547214128
25
 energy: 13.306952745481 xtb: 6.6.1 (8d0f1dd)
C            3.25640454567564        1.27155692447032        0.23739143162765
N            2.42583423720711        0.08540666561915       -0.09553070610375
C            2.60128494790144       -1.25339025926953        0.01151866006809
N            1.42642146839822       -1.90445763129219        0.04188687153274
C            0.40550820377592       -1.00176692926679       -0.09498505024547
C            1.02252783695751        0.25333677624524       -0.19351956722497
C            0.14948832726637        1.38806800027973       -0.31869658038791
O            0.36808122842108        2.56379126698667       -0.54428065456333
N           -1.27233554507018        0.95341937633571       -0.18711023790143
C           -2.16137126401269        2.10255574515252       -0.01499511568558
C           -1.84521952602107       -0.28602857622002       -0.11555749232979
O           -3.02548329064913       -0.52296832254197       -0.04030630137139
N           -0.88745876872959       -1.33776310126681       -0.10152628968510
C           -1.48017521296048       -2.66601690257638       -0.03272585299057
H            4.13323225751501        0.95288100558668        0.88439832522083
H            3.64648837911449        1.79091696200596       -0.69511212509947
H            2.64285159569653        2.06020271234396        0.77953793429878
H            3.45108168532837       -1.89576894057960        0.10550494435480
H           -1.48466611529609        2.92952065992968       -0.05376835624266
H           -2.89480227392520        2.18669665992370       -0.81663529612399
H           -2.65836928642110        2.06974887064573        0.95698336648685
H           -1.27499247455579       -3.17339055024719        0.90709325506989
H           -1.24274882762478       -3.27901244329510       -0.89793117450231
H           -2.54861610987367       -2.43516619693010       -0.05609440813312
H            1.15924864981773       -2.86334316986712        0.16149431607842
25
 energy: 7.574573215615 xtb: 6.6.1 (8d0f1dd)
C            3.23081652292027        1.26416340262277        0.27292243773787
N            2.40923537485468        0.11124057376997       -0.12725551052616
C            2.61482495571210       -1.21799986327391        0.03746933577704
N            1.43068365211686       -1.90874454213049        0.04324307703404
C            0.40836666196194       -1.00211271097016       -0.12085743857716
C            1.00469540562353        0.24948099041327       -0.26168783180639
C            0.13921316670575        1.37866816702407       -0.40176656504106
O            0.42405379996899        2.56156028044330       -0.69621295331943
N           -1.23996958992668        0.95720297261790       -0.21559171363355
C           -2.14321421914708        2.10196657007274        0.01094837615113
C           -1.82927759334866       -0.26613412423673       -0.13396760383501
O           -3.02162949176315       -0.47564788631693       -0.02762157120949
N           -0.89597867657494       -1.34923462938126       -0.12933914954476
C           -1.48674043647759       -2.67298529298058       -0.03411045117108
H            4.11797250528875        0.89498502519019        0.79958604315784
H            3.49742121066152        1.84856744176590       -0.60693847723708
H            2.65877380566344        1.94092316561355        0.92434338447855
H            3.46983687988535       -1.83663710734761        0.12369296633752
H           -1.49089466235379        2.97346733933467       -0.05247640158560
H           -2.91761486141980        2.18963182353523       -0.75363671076085
H           -2.59428691978648        2.03962596633155        1.00728988203873
H           -1.26728624454494       -3.16837159035436        0.91175749211650
H           -1.23951252998530       -3.30870008981539       -0.88313773499279
H           -2.55203911542294       -2.45778389335671       -0.05744487998958
H            1.18476506732368       -2.85810338639872        0.19782589454803
25
 energy: 11.548715833636 xtb: 6.6.1 (8d0f1dd)
C            3.20995677887850        1.26140697640363        0.31265632408525
N            2.40205337219787        0.13230219407278       -0.16872231998065
C            2.62810728156460       -1.20850395794726        0.06424215522731
N            1.42253472673865       -1.90789109905144        0.04433094732211
C            0.41649838041103       -1.00345015974876       -0.15056528040278
C            0.99138364681023        0.24806855629755       -0.33518872768265
C            0.13568299785822        1.36033244523368       -0.50968786809125
O            0.44599023981797        2.54969763954982       -0.82446962361340
N           -1.22411998114385        0.95639879327413       -0.25580894681335
C           -2.12402319874321        2.09751211948479        0.02598133146235
C           -1.81269523197445       -0.25262531114396       -0.15496043112268
O           -3.01152160036287       -0.44948172988889       -0.01956843313369
N           -0.90243501152565       -1.35320234242331       -0.15966092354282
C           -1.49230819730628       -2.67037451360155       -0.02866937687734
H            4.18011295197574        0.81051311052261        0.69309310997740
H            3.33252451898982        2.00629906144918       -0.56328976958746
H            2.66002702983072        1.83642993425292        1.16221038785382
H            3.48436791626664       -1.82051824539151        0.14183230742154
H           -1.47908467871503        2.99000821625639       -0.05980085338255
H           -2.94188195683330        2.19086437982364       -0.69751883654942
H           -2.52655386069278        2.01665349829054        1.04680407198655
H           -1.27004290395003       -3.15051974048510        0.92927924552944
H           -1.23761473066393       -3.33747046556127       -0.85665704701813
H           -2.55698950918405       -2.46120428627785       -0.05776825444611
H            1.18224568769082       -2.85221647121843        0.24894070752572
25
 energy: 11.881023346749 xtb: 6.6.1 (8d0f1dd)
C            3.16986880636978        1.22710446267414        0.31953601984244
N            2.34547910270848        0.18059313714490       -0.20104258940338
C            2.65015218736079       -1.22874953085155        0.13147879158836
N            1.37861380603616       -1.90432814833558        0.01690983726462
C            0.44144822062956       -1.03478917293629       -0.17402370127955
C            0.92574389533474        0.24071326435028       -0.38640871826809
C            0.10208898123458        1.30948182164097       -0.62272450714411
O            0.45713011399924        2.49883073703307       -0.76225564477200
N           -1.23111581915801        0.99348044410035       -0.27046829635893
C           -2.10586462935102        2.10322716441120        0.03238833532588
C           -1.77113210815219       -0.20814745537634       -0.15620687803906
O           -2.97621608183016       -0.39373816925082       -0.01959104559270
N           -0.93304284067447       -1.32696272086040       -0.19264592062717
C           -1.49702870862636       -2.63377305483318       -0.02735930245665
H            4.14583699053956        0.83345397905831        0.57181038071647
H            3.23820271359585        2.04010517119860       -0.45917793215145
H            2.70034039975226        1.68405655920575        1.21806045033090
H            3.57251409030257       -1.75789550040469        0.13713127437646
H           -1.47029510200618        3.01685100123716       -0.05194878233347
H           -2.94992677706409        2.15284008807319       -0.65003008287652
H           -2.48376548370702        1.99438461850422        1.04778977961034
H           -1.23848273180083       -3.11462746767532        0.93228066784729
H           -1.20450163308892       -3.33074550442613       -0.83105604003819
H           -2.57717088170277       -2.47667770696029       -0.06041918824332
H            1.22333815723382       -2.87565941454930        0.28500698882906
25
 energy: 4.592995137833 xtb: 6.6.1 (8d0f1dd)
C            3.13191333633122        1.23324264278180        0.35991432355355
N            2.34753781917568        0.15344886099648       -0.22173161602889
C            2.62867767244118       -1.20048335338691        0.12549965732469
N            1.41233334117080       -1.90656892553551        0.03921847623275
C            0.42911703959448       -1.03690594361967       -0.20965572535583
C            0.94932532174537        0.22566766929674       -0.43489032910193
C            0.10928434974069        1.33592260748679       -0.69875968225665
O            0.46539706942625        2.49546761880879       -0.94532484060244
N           -1.21385458413028        1.00458070301225       -0.31772116380850
C           -2.08697551279160        2.11853577764716        0.05759625688394
C           -1.77790779542877       -0.21899144871301       -0.17598999991230
O           -2.97316625597004       -0.39231812486179       -0.00232055979386
N           -0.91683406618018       -1.33721557561042       -0.22582817321914
C           -1.49406284835897       -2.64902709729473       -0.02923191652851
H            4.14337141883180        0.79215772362528        0.53581203910432
H            3.14382064217301        2.08297455065123       -0.36247086679222
H            2.70059508781526        1.63917855332005        1.32974364305224
H            3.54882639176503       -1.73364990063425        0.13288024067977
H           -1.47213601362591        3.02724105800784       -0.04139202317308
H           -2.97761546371957        2.18051620900602       -0.58530031131946
H           -2.40503731111500        1.97937694595189        1.10979635433778
H           -1.23854025754146       -3.10131328166806        0.94015237031742
H           -1.21728198971132       -3.35302001539347       -0.82484181209433
H           -2.57243175562236       -2.48524548302700       -0.05609110663808
H            1.24785903191995       -2.86454316867515        0.32797066128596
25
 energy: 4.000147182260 xtb: 6.6.1 (8d0f1dd)
C            3.09242971310021        1.21844429690924        0.40133549398552
N            2.34035253460230        0.13476653758033       -0.23393057944053
C            2.60799567321759       -1.18767901310414        0.14342369905282
N            1.42486954772968       -1.90709219950728        0.05699789604247
C            0.42299530772460       -1.05109044990312       -0.24625271851022
C            0.95719609938193        0.20484805443552       -0.47803788031575
C            0.11285049528021        1.33176310537736       -0.76688140444483
O            0.46805003533771        2.46789054365715       -1.11380130873017
N           -1.20573640192320        1.01631244575910       -0.35100271478212
C           -2.05564423208831        2.12984928222860        0.08645267770873
C           -1.77591012296684       -0.22029630240618       -0.19649238228640
O           -2.96279115154573       -0.37963083527621        0.01650458081383
N           -0.91212609232725       -1.33469253422183       -0.26847443738015
C           -1.49167867708842       -2.64599546201743       -0.03456930726357
H            4.10528164533228        0.81169421827876        0.48667200375938
H            3.04371700560501        2.14327926408832       -0.25384069510896
H            2.69655842251926        1.52661384821206        1.41461356536880
H            3.54654544673198       -1.69788536082919        0.10506415819026
H           -1.46464124057756        3.03431809063959       -0.02109006638986
H           -2.97833528500951        2.19543960069904       -0.50884847408127
H           -2.32512758520998        1.96833847797440        1.14686834043507
H           -1.22447272091249       -3.06395479345127        0.94509802885962
H           -1.21788812553366       -3.35917340016001       -0.81668262098700
H           -2.57208018742654       -2.49181243351393       -0.05342511247266
H            1.27980456398193       -2.85522637927652        0.36733315412420
25