25
 energy: 0.000000000000 xtb: 6.6.1 (8d0f1dd)
C            3.23720163006194        1.16630919979326        0.08434469647475
N            2.29877817382611        0.07527477071623        0.03981603040599
C            2.58028210190900       -1.21425402444508        0.03006176031096
N            1.43813958087363       -1.93419271955128        0.00098261760884
C            0.39035688448383       -1.05887472636071       -0.00790371836672
C            0.93510056364412        0.21347819449412        0.01709077491437
C            0.09450143893243        1.40504303904423       -0.00410947031874
O            0.49712751527797        2.54126714362870       -0.00342325688240
N           -1.25076640035757        1.06271879480407       -0.03085478223738
C           -2.21907211982101        2.15522099834493       -0.05001256985998
C           -1.81739487048744       -0.20012725993278       -0.04692818574614
O           -2.99983886758376       -0.37846417018721       -0.07008878229737
N           -0.92618586207120       -1.30210215599479       -0.03682761578324
C           -1.46982264913417       -2.64643102187190       -0.06029820460571
H            3.71247264356769        1.21471455160235        1.06488849150277
H            4.00791497605742        1.03430808813993       -0.67357694370751
H            2.69910007168542        2.09770118228144       -0.09130154882931
H            3.56654120610678       -1.63682992603973        0.04233140067262
H           -1.67107961066214        3.09322851271934       -0.02552706933167
H           -2.82428953597071        2.09428624779827       -0.95318082946668
H           -2.87644029173232        2.07745725625962        0.81450067533302
H           -1.17061996399332       -3.19584890659852        0.83242232437030
H           -1.14560257411436       -3.17511610292205       -0.95688275822323
H           -2.55549792440841       -2.55659984320617       -0.07459039797972
H            1.38130855184625       -2.94313852034425       -0.01389874181052
25
 energy: -2.844223235076 xtb: 6.6.1 (8d0f1dd)
C            3.24981021686793        1.17649344831304        0.08641254510488
N            2.30547676140211        0.09884955663729        0.03928465853498
C            2.60126864478215       -1.22579813857497        0.03346142170948
N            1.42913999833253       -1.93613869155620        0.00605443270872
C            0.38222950149855       -1.05633210123466       -0.00736717430378
C            0.92327155102380        0.21824749284455        0.01535479421992
C            0.08912616856925        1.38383041918841       -0.00725480906174
O            0.50567003518726        2.54474507139969       -0.00605529533960
N           -1.28988715803082        1.04581317866854       -0.03706522165596
C           -2.20379055407810        2.17729970075853       -0.03791474566497
C           -1.90935105698891       -0.20647735769042       -0.08613819130417
O           -3.11102830401053       -0.40991710223637       -0.12041546752288
N           -0.96247254616292       -1.29816518002281       -0.04345578438587
C           -1.45362790024333       -2.66012912717933       -0.05485336798894
H            3.73534185639596        1.21821624214779        1.06556624751055
H            4.01734939600957        1.04030175059196       -0.67802088841466
H            2.71135131005541        2.10593441818335       -0.08519577982603
H            3.58530061941429       -1.64394786612389        0.04633452118667
H           -1.62628590377962        3.10260248348075       -0.03277063867118
H           -2.82197967363372        2.12153944565230       -0.93032354369712
H           -2.83731983292377        2.12329486398354        0.84530216036988
H           -1.13377293398302       -3.20658557907393        0.83663512188800
H           -1.11498644258835       -3.19223209344887       -0.94735234034936
H           -2.53819154213681       -2.59114639251096       -0.06481430380294
H            1.37957245695730       -2.94126984002533       -0.00837445509662
25
 energy: 7.488221653092 xtb: 6.6.1 (8d0f1dd)
C            3.26409966782630        1.18208362100174        0.08921685647875
N            2.30325753220304        0.12264776180975        0.03856183363017
C            2.61168088128860       -1.23242745257541        0.04120260764118
N            1.41223264833830       -1.93153310758253        0.01436499275025
C            0.36288316912232       -1.05443557306095       -0.00630415502755
C            0.90313320220097        0.22014741566952        0.01295676448147
C            0.07418486276570        1.34737738231090       -0.01343575936213
O            0.49825083081493        2.52317932783870       -0.01389579859398
N           -1.35044881577190        1.02233512608450       -0.04689463377405
C           -2.17928072284275        2.21917780995415       -0.01766508877425
C           -2.04414361217181       -0.21254699401935       -0.14631732336007
O           -3.24565902313041       -0.46226420975898       -0.21803462227946
N           -1.01255190092150       -1.28987061747665       -0.05483073363707
C           -1.42150875552089       -2.68285686325981       -0.04702447918854
H            3.76947960594335        1.21556158914604        1.06255095873772
H            4.02771600654050        1.04608290197511       -0.68386335873093
H            2.73601900010224        2.11818251186677       -0.07162114283222
H            3.59678878303370       -1.64002899390447        0.05580511355160
H           -1.54955484520515        3.11852215686341       -0.05208269931074
H           -2.83272142110233        2.18209756099227       -0.88423556990234
H           -2.76650887737494        2.22050776782060        0.90319792301877
H           -1.06413440891590       -3.21952243645500        0.84254658758368
H           -1.06135675910951       -3.22129470161173       -0.93202216327879
H           -2.50724423002134       -2.66603566063100       -0.04656179574808
H            1.38760184984469       -2.93605772082552        0.00141958207393
25
 energy: 22.857356258090 xtb: 6.6.1 (8d0f1dd)
C            3.27143634405311        1.18005477820460        0.09391675544726
N            2.29226573086043        0.13452807871483        0.04008555183328
C            2.60456261205919       -1.23221567574749        0.05206174911985
N            1.39719940375867       -1.92789076462334        0.02127501936710
C            0.34053500728606       -1.05920028387273       -0.01105546180220
C            0.88363090833425        0.21633197629268        0.00779745502740
C            0.05085457854011        1.32351388725794       -0.02790253363224
O            0.47494814529417        2.50257637377581       -0.02760410497343
N           -1.41058212383981        1.00680137316764       -0.06382359821910
C           -2.15740975217543        2.26463967561091        0.00253851078857
C           -2.16172811094884       -0.21485104561508       -0.20465810686088
O           -3.34903208881896       -0.51130839693716       -0.31158177794977
N           -1.05324754788347       -1.28818986965647       -0.07158322753091
C           -1.38595331110434       -2.70871069366008       -0.04130468116341
H            3.79521697398516        1.20129409141285        1.06016684222343
H            4.03015555003574        1.04534751113287       -0.68692083177295
H            2.76210069840824        2.12951582938806       -0.05289723500615
H            3.59522969750352       -1.62769474056294        0.07175530521444
H           -1.47102335215201        3.12923548191205       -0.08155030715985
H           -2.86110256115408        2.25951891913670       -0.82634502623872
H           -2.68043944616274        2.33374924081668        0.96914667696017
H           -0.98523565608420       -3.22356346238283        0.84839362759083
H           -1.00299666479620       -3.24893438047765       -0.91885508987082
H           -2.47242368309780       -2.76104359513360       -0.02699489108072
H            1.40525331603539       -2.93447570598225        0.01297327583614
25
 energy: 33.614002375783 xtb: 6.6.1 (8d0f1dd)
C            3.27059150453880        1.17266454716826        0.10015659660485
N            2.27838710711082        0.13515232227353        0.04335417281615
C            2.58887545433023       -1.22706155161066        0.06234044717929
N            1.38927422975156       -1.92736558001794        0.02384203029967
C            0.32352960280572       -1.06771333138365       -0.02087504191315
C            0.86986674396589        0.20937854681481        0.00049782117135
C            0.03255970834335        1.31645703165822       -0.04666226684782
O            0.45959358666177        2.48827873649690       -0.04672088098704
N           -1.45445838847044        1.00588586336257       -0.08278975964482
C           -2.14437862046227        2.29762180689907        0.01581433296712
C           -2.23839028386739       -0.20757950119684       -0.24187463935400
O           -3.40523545737024       -0.53991487319487       -0.36491782361721
N           -1.07419267781252       -1.29308725741782       -0.08744122968281
C           -1.35725264495654       -2.72754726668441       -0.03956133933834
H            3.80447192731099        1.17889627619204        1.06124056250017
H            4.02397056622281        1.03870182831940       -0.68663466535383
H            2.77894187263941        2.13423862303462       -0.03358489832493
H            3.58601256843829       -1.61194962422994        0.08992982675568
H           -1.42928113862423        3.13392442837592       -0.11190093367052
H           -2.89367198147863        2.32490702330461       -0.77200961306578
H           -2.60022626238982        2.41077735335802        1.01532911991906
H           -0.92492464685334       -3.21787687269424        0.85113597617301
H           -0.95959740876069       -3.26545420451451       -0.91287829052534
H           -2.43882620999360       -2.83666564272663       -0.01127846788764
H            1.42657551685621       -2.93564007941439        0.02252285997423
25
 energy: 37.220893041237 xtb: 6.6.1 (8d0f1dd)
C            3.26478494576732        1.16447095810168        0.10516602268572
N            2.26676644761961        0.12943891409721        0.04691388105963
C            2.57381899196987       -1.21938960402794        0.06918918969053
N            1.38872359078538       -1.92856394680453        0.02349981117489
C            0.31546173325972       -1.07556547240135       -0.02839983596637
C            0.86291945373455        0.20292668446799       -0.00481811335783
C            0.02626675260354        1.31840405668872       -0.05962873933529
O            0.45865290215316        2.47942290078934       -0.06392298279911
N           -1.47578026093451        1.01417783204800       -0.09558322866970
C           -2.14101557704722        2.31192633262617        0.02162034308750
C           -2.27149166373997       -0.19157496009893       -0.25256898370054
O           -3.41944332375706       -0.54715069452097       -0.38378394358182
N           -1.07387465256391       -1.30141899229238       -0.09474733514032
C           -1.34117165848295       -2.73545145647460       -0.04051202423348
H            3.80133781695927        1.15776062760733        1.06343590946986
H            4.01346179761463        1.03120815417808       -0.68556822487975
H            2.78337008486961        2.13223413930218       -0.01920629236756
H            3.57554718421240       -1.59794199273201        0.10259510644379
H           -1.42599571164938        3.13362427619570       -0.13921377820443
H           -2.91848388768737        2.35993754370521       -0.73208269696631
H           -2.54548561207845        2.43954723007873        1.03386360108589
H           -0.89647989438552       -3.21007216841674        0.84966803319468
H           -0.93950989321731       -3.26933039759934       -0.91364327264798
H           -2.41428963470649       -2.87277282907920       -0.00254392789986
H            1.44412473663720       -2.93681853326630        0.02730537800523
25
 energy: 38.026457211728 xtb: 6.6.1 (8d0f1dd)
C            3.25782707698362        1.15928699509168        0.10952286628507
N            2.25902180177333        0.12378018026408        0.05102664920086
C            2.56515792761176       -1.21169967351644        0.07505885166478
N            1.39275983081586       -1.93052359929092        0.02303959884877
C            0.31374344475693       -1.08150902826820       -0.03193207636144
C            0.85935892947880        0.19872663555823       -0.00794599270485
C            0.02625601101058        1.32027698043288       -0.06689974450811
O            0.45963849691256        2.47589167187604       -0.07551685074551
N           -1.48552052583263        1.02098606037763       -0.10575358193995
C           -2.14180482834362        2.31607691865600        0.02409236872306
C           -2.28422736252086       -0.17072121259699       -0.25238611155876
O           -3.41827792331756       -0.54707062003975       -0.39023567002010
N           -1.06076785551937       -1.31176128087945       -0.09647029402606
C           -1.33388237986447       -2.73868554188994       -0.04280902265548
H            3.79352534069250        1.14349875268579        1.06659162348168
H            4.00327655960798        1.02649686446896       -0.68341101100204
H            2.77927561330581        2.12783629703051       -0.00952512591020
H            3.56907454889486       -1.58786299199404        0.11000439530744
H           -1.42828413501477        3.12907485145500       -0.17432263786615
H           -2.94494223883512        2.37127197275161       -0.69799743279637
H           -2.50215745948300        2.45519116052241        1.04751851921910
H           -0.88723403414432       -3.20852979215041        0.84536315697877
H           -0.93463083395134       -3.26984847336666       -0.91820058185312
H           -2.40117768442556       -2.88372403062268       -0.00006061109264
H            1.45620634734411       -2.93743049438326        0.02828261147855
25
 energy: 39.347704604710 xtb: 6.6.1 (8d0f1dd)
C            3.25247403806778        1.15716929242397        0.11260056995709
N            2.25470290343711        0.12001799647615        0.05519917186837
C            2.56347254815155       -1.20585297330158        0.08181746875674
N            1.39912507372159       -1.93337671298394        0.02408491456813
C            0.31486299599843       -1.08697878286348       -0.03319762332178
C            0.85713472228394        0.19586241548882       -0.00954459793964
C            0.02832289013365        1.31862669992942       -0.06917735581628
O            0.45837451249194        2.47473076929754       -0.08079198501786
N           -1.49374266786986        1.02408806945803       -0.11590149345773
C           -2.14197553323289        2.32002695622041        0.02546398570324
C           -2.29731071280660       -0.14347135688035       -0.25572356526102
O           -3.41981784863233       -0.54466475053285       -0.39677794797588
N           -1.04271934891026       -1.32374606924324       -0.09758006260244
C           -1.32954423577661       -2.74339811976221       -0.04439873400445
H            3.78771499343277        1.13621425467863        1.06874018308833
H            3.99586812908559        1.02459792504456       -0.68167342740051
H            2.77322449969394        2.12462389956135       -0.00361928124555
H            3.56811047842838       -1.58195093758483        0.11397688861055
H           -1.43403965942760        3.12722651397493       -0.20673394818394
H           -2.96961469657827        2.37557745258191       -0.66517222516846
H           -2.46148117369496        2.46878196926977        1.05695778266647
H           -0.88362851602527       -3.21558360505424        0.84191183200360
H           -0.93622654747170       -3.27572430729319       -0.92235589947124
H           -2.39584901277311       -2.88490601880276        0.00045867406348
H            1.46477683620890       -2.93886197793077        0.02847057172809
25
 energy: 43.606675206463 xtb: 6.6.1 (8d0f1dd)
C            3.24789443819963        1.15766603636830        0.11580339525396
N            2.25283517588710        0.11686218437543        0.06114701419326
C            2.57025575228634       -1.19970329965923        0.09279733564945
N            1.41287286164881       -1.93882346110832        0.02714715773285
C            0.31994590176581       -1.09694420192780       -0.03277259538262
C            0.85602306392351        0.19175828358025       -0.01014576789163
C            0.03219544524643        1.31181018820500       -0.06810563005582
O            0.45235844479572        2.47336063834939       -0.08108128143140
N           -1.50981521941236        1.02419194023417       -0.12909421007503
C           -2.14203275835491        2.32774937732119        0.02598643857491
C           -2.33014678795704       -0.09327850456310       -0.26602948440800
O           -3.43471276331209       -0.53850044828271       -0.40510263666848
N           -1.01250807007690       -1.34537021169748       -0.09865779376098
C           -1.32445134399090       -2.75468416432655       -0.04626789752612
H            3.78341912155172        1.13455321354278        1.07079519411042
H            3.98994773064311        1.02561756308047       -0.67935634831907
H            2.76534124113385        2.12275394599974        0.00083070891364
H            3.57516050629513       -1.57654900561916        0.11535742345819
H           -1.44243429052854        3.12684177192539       -0.25105239750402
H           -3.00103901346964        2.37742422204955       -0.62016568345909
H           -2.40351832363326        2.49002460665942        1.06759880266536
H           -0.88567857583995       -3.23756542523900        0.83814440731050
H           -0.94383499552415       -3.29277430894509       -0.92790530434403
H           -2.39333817324347       -2.87450186846806       -0.00125348476439
H            1.47747529990215       -2.94289046968249        0.02841653387544
25
 energy: 55.061905629837 xtb: 6.6.1 (8d0f1dd)
C            3.24562432609663        1.16126780591714        0.11833138718452
N            2.25540540335182        0.11370227737685        0.06874784606348
C            2.59166261840100       -1.19256150584613        0.10929070784442
N            1.44221828523304       -1.94921482652188        0.03369301073971
C            0.33275854303442       -1.11774636437908       -0.02916447043027
C            0.85778444173274        0.18360128674291       -0.00885362424406
C            0.04096820795935        1.29686226955261       -0.06119388055530
O            0.44149361942232        2.46896818075861       -0.07299346996515
N           -1.54449541731657        1.02171928012170       -0.14428478853521
C           -2.14190465737559        2.34533008539736        0.02522411174693
C           -2.41555120830012        0.00244391077600       -0.28956404550066
O           -3.48532692497789       -0.52461105358605       -0.41624657222180
N           -0.96160143024689       -1.38697748029073       -0.09814966109258
C           -1.31505751662719       -2.77990048102545       -0.04750947717363
H            3.78209021761477        1.14106160269897        1.07217158919057
H            3.98773738833827        1.03009191469214       -0.67674791187596
H            2.75719169692586        2.12273546016440        0.00171801335491
H            3.59707344806861       -1.56901446134772        0.11028797904769
H           -1.45576732413893        3.13035200302767       -0.30491726160103
H           -3.03579941474098        2.38613263755689       -0.55985801716216
H           -2.32326858008639        2.52159326350730        1.07219534096407
H           -0.89466468787871       -3.28515341648669        0.83554154972937
H           -0.95690727296757       -3.32926841122782       -0.93425314237877
H           -2.39252287916669       -2.85036367872518       -0.00557727502875
H            1.50307378558078       -2.95202169668172        0.02914595804697
25
 energy: 76.658766907566 xtb: 6.6.1 (8d0f1dd)
C            3.24777203679506        1.16968955470839        0.11987191294011
N            2.26681100201064        0.10976995933554        0.07793014111734
C            2.64030728410674       -1.18354677482945        0.13401243472132
N            1.50203058795770       -1.96937590452504        0.04646710379341
C            0.36185407848635       -1.15861855104057       -0.01957963253046
C            0.86578560741768        0.16919520085553       -0.00556073432605
C            0.06403781291340        1.26891943403034       -0.04499922504369
O            0.42418162938576        2.46208104099633       -0.05251896503229
N           -1.61367401890946        1.01495089147161       -0.16288819702837
C           -2.14422989103079        2.37825497044021        0.02254063558569
C           -2.60857328324191        0.19408183771811       -0.33812348434251
O           -3.60589568021850       -0.49229816776652       -0.42570987064296
N           -0.86516933357899       -1.46955771551977       -0.09349780730695
C           -1.29602524347220       -2.83109493508933       -0.04667275902214
H            3.78421655040624        1.16016200261942        1.07367161980454
H            3.99302026238437        1.03953942344382       -0.67257673905050
H            2.74846711455398        2.12492438125003       -0.00368381950337
H            3.64491825333257       -1.55944457065089        0.09259482265726
H           -1.47839382265654        3.13775164039735       -0.37057215106227
H           -3.07220522929075        2.40544328019169       -0.47682090870132
H           -2.21065263130486        2.56443329336130        1.06324699101269
H           -0.91486666452826       -3.37726315681473        0.83722994033370
H           -0.97718444377044       -3.39754953971861       -0.94239249647156
H           -2.39345814833720       -2.80113837678341       -0.01558250768775
H            1.54914083852547       -2.97028061590922        0.03064759193348
25
 energy: 111.124564796582 xtb: 6.6.1 (8d0f1dd)
C            3.26085449807193        1.18299675104041        0.11564427961753
N            2.29121196068327        0.11109405428312        0.07797877061601
C            2.70829138675549       -1.18453452604587        0.15040062471055
N            1.56810092233835       -1.99019736717988        0.05817149690102
C            0.40328767014491       -1.19850714297087       -0.00570924835404
C            0.88345806610506        0.16160778864128       -0.00136461257875
C            0.10115634803304        1.24165168188023       -0.02046572494972
O            0.40674880332736        2.46677678484923       -0.02172924244778
N           -1.68212954147052        1.00049665038933       -0.16228615358936
C           -2.15325359797352        2.40513739640083        0.01569301902865
C           -2.83958430925035        0.41951146061927       -0.38978210354086
O           -3.75434440269219       -0.44847778612691       -0.40761349032698
N           -0.75156073035471       -1.56310594141107       -0.08317230438775
C           -1.27817720339329       -2.88680253086935       -0.04188264922785
H            3.79500012450753        1.19321791958044        1.07337641856680
H            4.01375686934395        1.05211302947398       -0.67055337760132
H            2.74676895584417        2.13176670529094       -0.02115902111220
H            3.70427141176023       -1.56720563303643        0.06274280122561
H           -1.50751660715518        3.14428985045797       -0.37441254703605
H           -3.05718298524410        2.40846077640504       -0.44536915299132
H           -2.16695303559016        2.56810149471778        1.01567597260268
H           -0.94427698096552       -3.47630014801903        0.85042365517213
H           -0.99875743577626       -3.46572320070922       -0.94732411671794
H           -2.41161739787136       -2.72752465937740       -0.02959878112500
H            1.57466187875798       -2.98981480611171        0.02934938369328
25
 energy: 91.879003107491 xtb: 6.6.1 (8d0f1dd)
C            3.26159725864130        1.18325698302323        0.11763538475494
N            2.29032194575384        0.11652145505798        0.07322640838593
C            2.69243581629565       -1.19138225793424        0.14067945419888
N            1.53870969999645       -1.97680249581632        0.05381540282613
C            0.39361799109343       -1.17409162129776       -0.01265551332947
C            0.88380365338863        0.16940624260309       -0.00135723368121
C            0.08518530443903        1.25603265726187       -0.02569664504267
O            0.41346454985309        2.47469700654398       -0.02821785801796
N           -1.63995514681029        0.99700939587911       -0.15659164686581
C           -2.15117138806696        2.38201365253928        0.00896431660216
C           -2.73188655381345        0.30754701625474       -0.36669874969459
O           -3.69335425308671       -0.45882036845896       -0.39716118723083
N           -0.81196981766923       -1.52211470444562       -0.09445682719543
C           -1.29670453287589       -2.86279770804016       -0.04801677220632
H            3.79397849771568        1.19275893505484        1.07691214855026
H            4.01558398373571        1.05275658011281       -0.66764032770899
H            2.74926816743490        2.13307129849886       -0.01907237802513
H            3.68877449718841       -1.57314215634746        0.07487941597941
H           -1.47893107456139        3.13673382669527       -0.37372953524269
H           -3.07949777427658        2.38514546089926       -0.48418316638354
H           -2.19688759007876        2.56282379324769        1.05737662057237
H           -0.94544955965493       -3.43514835706291        0.84511586750044
H           -0.99723927946758       -3.43858775315084       -0.94610907466770
H           -2.42197377244100       -2.74897130031669       -0.03080109463256
H            1.55049404520273       -2.97888697862892        0.03081688670169
25
 energy: 94.889024670873 xtb: 6.6.1 (8d0f1dd)
C            3.27592057634391        1.18385527742644        0.10206121341853
N            2.30140083794735        0.12630158699300        0.04564920354328
C            2.68803408263174       -1.21419060079235        0.10594622185988
N            1.50446424590428       -1.96289711707609        0.04032003649332
C            0.39194535104807       -1.14465529479971       -0.01257227460507
C            0.89288274708427        0.18802476608014        0.00006679111719
C            0.08848600598978        1.27672761080411       -0.00496379710189
O            0.42928780462580        2.49520812251291       -0.02115429595770
N           -1.59003562004752        0.98777423869062       -0.10126756286275
C           -2.15679594299374        2.35318082905007        0.00870915012847
C           -2.65865336972955        0.22782248004470       -0.33192581210243
O           -3.65605976246697       -0.46540470313893       -0.35202438016624
N           -0.85121427029816       -1.47890319823434       -0.08620405356640
C           -1.30735498429711       -2.83218443227977       -0.04005423011843
H            3.80638298202987        1.20063237511088        1.06691545168240
H            4.03430915946544        1.05132310179441       -0.68006046547197
H            2.76552194152657        2.13802288810631       -0.03869050465894
H            3.67384893439693       -1.60544404177664        0.06635366170632
H           -1.47012875723726        3.13580153517601       -0.20524639625219
H           -2.93958236823343        2.35802215830171       -0.64039104094791
H           -2.42409795811027        2.46345007245209        0.97233253621673
H           -0.94351477910789       -3.38092728536874        0.86348721906327
H           -0.98557149664905       -3.39367200307012       -0.93173155070217
H           -2.44189205377215       -2.75072345263615       -0.02408869824503
H            1.48463136188525       -2.96811631119852        0.02556747367704
25
 energy: 92.685789551700 xtb: 6.6.1 (8d0f1dd)
C            3.24490250690656        1.16482257107653        0.09932674212961
N            2.26531714063105        0.09981008139015        0.04405255562346
C            2.64820372576281       -1.18268133925115        0.11763252925811
N            1.50479934900583       -1.96529232636467        0.03114879965728
C            0.36478915765507       -1.17058342098945       -0.02019365510422
C            0.86834932679416        0.14976899268664        0.00385474192596
C            0.04375024193248        1.26216686175497        0.05555981908667
O            0.44282822314844        2.43991773697659       -0.03187774800292
N           -1.62915151939951        0.99364469820648       -0.11962701900934
C           -2.13262130964563        2.39741674765297        0.03789594319042
C           -2.65653027537115        0.22664439088967       -0.30762782863454
O           -3.65409288435940       -0.50023437992338       -0.45206398290047
N           -0.84481545473588       -1.46559417537370       -0.07904208209126
C           -1.26938353177458       -2.82423883346085       -0.03966616171743
H            3.78392135042317        1.16508847935013        1.05094544606988
H            3.99495087950470        1.04627892063586       -0.68954156915985
H            2.74858056013670        2.11941349419565       -0.02558469166468
H            3.66504277176344       -1.54318307278270        0.08430436847391
H           -1.43404792283640        3.16177036172790       -0.29992665720292
H           -2.97240291458292        2.46381882532912       -0.55249565567671
H           -2.36779850964690        2.56473099178820        0.97420844893354
H           -0.92581931439600       -3.39550741325327        0.83600035129411
H           -0.99056261046619       -3.43152905202703       -0.92744234607202
H           -2.34811006519103       -2.81602897174161        0.00443231452841
H            1.56211574667732       -2.97139156632100        0.03276123321231
25