25
 energy: 0.000000000000 xtb: 6.6.1 (8d0f1dd)
C            3.23720163006194        1.16630919979326        0.08434469647475
N            2.29877817382611        0.07527477071623        0.03981603040599
C            2.58028210190900       -1.21425402444508        0.03006176031096
N            1.43813958087363       -1.93419271955128        0.00098261760884
C            0.39035688448383       -1.05887472636071       -0.00790371836672
C            0.93510056364412        0.21347819449412        0.01709077491437
C            0.09450143893243        1.40504303904423       -0.00410947031874
O            0.49712751527797        2.54126714362870       -0.00342325688240
N           -1.25076640035757        1.06271879480407       -0.03085478223738
C           -2.21907211982101        2.15522099834493       -0.05001256985998
C           -1.81739487048744       -0.20012725993278       -0.04692818574614
O           -2.99983886758376       -0.37846417018721       -0.07008878229737
N           -0.92618586207120       -1.30210215599479       -0.03682761578324
C           -1.46982264913417       -2.64643102187190       -0.06029820460571
H            3.71247264356769        1.21471455160235        1.06488849150277
H            4.00791497605742        1.03430808813993       -0.67357694370751
H            2.69910007168542        2.09770118228144       -0.09130154882931
H            3.56654120610678       -1.63682992603973        0.04233140067262
H           -1.67107961066214        3.09322851271934       -0.02552706933167
H           -2.82428953597071        2.09428624779827       -0.95318082946668
H           -2.87644029173232        2.07745725625962        0.81450067533302
H           -1.17061996399332       -3.19584890659852        0.83242232437030
H           -1.14560257411436       -3.17511610292205       -0.95688275822323
H           -2.55549792440841       -2.55659984320617       -0.07459039797972
H            1.38130855184625       -2.94313852034425       -0.01389874181052
25
 energy: -2.010294629888 xtb: 6.6.1 (8d0f1dd)
C            3.25074143889685        1.17627195253755        0.08632977987332
N            2.30573757799317        0.09904235346155        0.03943865904188
C            2.60216636156910       -1.22496300193269        0.03370124575895
N            1.43019075586031       -1.93573306622896        0.00649587733173
C            0.38101824156115       -1.05638791169714       -0.00703948613947
C            0.92312967014808        0.21763125644351        0.01558564115426
C            0.08861745376409        1.38262178354227       -0.00709980304797
O            0.50848102336868        2.54271613140001       -0.00631452372207
N           -1.29310533198198        1.04564998487390       -0.03709455592313
C           -2.20171665291666        2.18077430729978       -0.03676868762145
C           -1.92196714187287       -0.20678687638549       -0.09038419256539
O           -3.12423689786416       -0.41391196917779       -0.12482072250182
N           -0.96587961435509       -1.29739243411445       -0.04371566028702
C           -1.45161499067731       -2.66168897540082       -0.05426926309382
H            3.73668530928619        1.21761738519020        1.06529949829698
H            4.01828734676728        1.04001531217572       -0.67817363156999
H            2.71289790255374        2.10603558598892       -0.08496836334342
H            3.58695103867966       -1.64184420544543        0.04652870230172
H           -1.62430395943087        3.10646587726383       -0.03358356461204
H           -2.82049956598312        2.12306574202234       -0.92819615158228
H           -2.83315232631533        2.12715522395260        0.84769654503665
H           -1.13083722551010       -3.20842486958006        0.83699137780487
H           -1.11265772722706       -3.19398295660422       -0.94672529899164
H           -2.53591430741584       -2.59381839020845       -0.06381688552463
H            1.38319628903830       -2.94109963720466       -0.00806263992697
25
 energy: 12.895445733678 xtb: 6.6.1 (8d0f1dd)
C            3.26721585529233        1.18191184933099        0.08913748257702
N            2.30486666019206        0.12387166407528        0.03891114431475
C            2.61558041783188       -1.23105328013641        0.04157241410251
N            1.41546412454811       -1.93111945936967        0.01504972872413
C            0.36053728817807       -1.05492530630735       -0.00525235823404
C            0.90353038754131        0.21848258746380        0.01386591283965
C            0.07457359736988        1.34395460558892       -0.01264857102149
O            0.50795688493729        2.51841935941008       -0.01490063896814
N           -1.35874668908652        1.02164293691641       -0.04590193074902
C           -2.17389035412742        2.22757834803721       -0.01520447494461
C           -2.08165915155164       -0.21194063917174       -0.15608476862110
O           -3.28297306719357       -0.47411414264531       -0.22747689759170
N           -1.02159036525603       -1.28711795204613       -0.05468363362025
C           -1.41671042454174       -2.68588965844557       -0.04568110090204
H            3.77308767807395        1.21456906295681        1.06236279603561
H            4.03089579849706        1.04543476630513       -0.68414707033778
H            2.73996576366232        2.11830196760417       -0.07145107720352
H            3.60276505385144       -1.63474951930407        0.05593851091386
H           -1.54679779431103        3.12915466407567       -0.05402751909595
H           -2.82775556263949        2.18448797095113       -0.88005606874497
H           -2.75677600751039        2.22907523038908        0.90805770045107
H           -1.05791342097223       -3.22465099627033        0.84290713155304
H           -1.05658971218942       -3.22516894111236       -0.93086442961274
H           -2.50175853749388       -2.67092059936117       -0.04412440085622
H            1.39893624483382       -2.93620591676254        0.00173601513927
25
 energy: 35.738764656034 xtb: 6.6.1 (8d0f1dd)
C            3.27755975667852        1.18015590564391        0.09408273067161
N            2.29580724573577        0.13656909069583        0.04091361209749
C            2.61210786723754       -1.23020271858763        0.05238512646423
N            1.40354579607996       -1.92780759245398        0.02181844944472
C            0.33767005990738       -1.06134836352705       -0.00963688571586
C            0.88520478420178        0.21281388171815        0.00958925380469
C            0.05236489991678        1.31786158059927       -0.02698491321854
O            0.49089706646885        2.49476709213006       -0.02920434190686
N           -1.42527927486113        1.00538916791906       -0.06236018465474
C           -2.14856336538387        2.27810952383786        0.00581101112949
C           -2.22883721501646       -0.21230408849295       -0.21898712664535
O           -3.41365612283325       -0.53166484959687       -0.32321535924354
N           -1.06771397139007       -1.28499409117246       -0.07046827995972
C           -1.37908804306008       -2.71344978257395       -0.03930043426223
H            3.80198906111096        1.20106970008269        1.06021975801696
H            4.03680853940703        1.04482698534715       -0.68671870024509
H            2.76948316174949        2.12999837954267       -0.05304147537529
H            3.60669152258640       -1.61860204128337        0.07139440063094
H           -1.46698910730117        3.14652686411823       -0.08389997401981
H           -2.85157535309318        2.26455726978445       -0.82144963116590
H           -2.66551773214110        2.34749586895380        0.97526044007380
H           -0.97667851975220       -3.23266846393652        0.84834443758283
H           -0.99627718320265       -3.25462648097077       -0.91742533736907
H           -2.46432549300464       -2.76830896997149       -0.02314750287101
H            1.42658628789547       -2.93513526563404        0.01305482288354
25
 energy: 54.839732683804 xtb: 6.6.1 (8d0f1dd)
C            3.27996449778390        1.17307941390957        0.10069887599024
N            2.28408081025895        0.13758662873714        0.04495299995525
C            2.60038545310524       -1.22415320967265        0.06247178594286
N            1.40010388830397       -1.92812711035591        0.02405661870322
C            0.32155801117681       -1.07300841696405       -0.01919375425052
C            0.87306271233450        0.20334547615653        0.00334292771233
C            0.03551174860888        1.30903267089438       -0.04595024405300
O            0.48006823557736        2.47723829453726       -0.04841483062353
N           -1.47752478338623        1.00449308595733       -0.08205162210832
C           -2.13220786469765        2.31609971504792        0.01939903502608
C           -2.34023023728830       -0.20096359620719       -0.26133692818770
O           -3.49998323921691       -0.56837951907665       -0.37663702367484
N           -1.09173059587304       -1.29204888235775       -0.08408893067588
C           -1.34823629010284       -2.73459629273373       -0.03665254629745
H            3.81466231060313        1.18007626714079        1.06157212810016
H            4.03455092320530        1.03841469894805       -0.68556325196809
H            2.79050368938693        2.13539682390593       -0.03424828390663
H            3.60342015339469       -1.59846361477195        0.08839945729932
H           -1.42200939823460        3.15616893934850       -0.11351931026618
H           -2.87947986955914        2.33651617515710       -0.76726350232535
H           -2.58006481705300        2.42977348488693        1.02126066892937
H           -0.91501490221630       -3.23199168315271        0.85086751158545
H           -0.95136149903977       -3.27317785336788       -0.91130254491030
H           -2.42770936471813       -2.84636419023765       -0.00603873219452
H            1.45989509558240       -2.93691870355727        0.02227339234534
25
 energy: 66.479300137661 xtb: 6.6.1 (8d0f1dd)
C            3.27720753756666        1.16472811736317        0.10562437440331
N            2.27451904473589        0.13106674242159        0.04942112260059
C            2.58896283227007       -1.21501194813322        0.06883676913844
N            1.40565703960918       -1.93071125167567        0.02376862042300
C            0.31609255782770       -1.08533103042068       -0.02558481251052
C            0.86834775013920        0.19372125515246       -0.00013771721471
C            0.03136152242459        1.30978077647611       -0.05769195883194
O            0.48231869756573        2.46433538642581       -0.06401823469535
N           -1.50926473188342        1.01450828554813       -0.09561367240333
C           -2.12647936613574        2.33537247044774        0.02540248033195
C           -2.41317003192218       -0.17652869575826       -0.27874112667964
O           -3.54585175981427       -0.58308846295795       -0.39760239737181
N           -1.08908160726737       -1.30520263065510       -0.08682588955853
C           -1.32874003306931       -2.74524078482164       -0.03612124378084
H            3.81466422116325        1.16041011118086        1.06347335971106
H            4.02772129219722        1.03065083953915       -0.68399221450676
H            2.79925784495692        2.13377236853721       -0.02111205895792
H            3.59857104083456       -1.57983221685513        0.09835360097571
H           -1.41487718273868        3.15885320765266       -0.13966262927531
H           -2.89984146790499        2.38145287122354       -0.72788914366008
H           -2.52092646602026        2.46436883179387        1.03844680878220
H           -0.88589822262105       -3.23067577924661        0.84971190493758
H           -0.93000174262743       -3.27971957092706       -0.91177511866611
H           -2.39886115528017       -2.88385096596160        0.00400972351453
H            1.49052705393004       -2.93879932417731        0.02675334944180
25
 energy: 79.188596753024 xtb: 6.6.1 (8d0f1dd)
C            3.27223050656317        1.15610045096891        0.11016710819773
N            2.26687126994183        0.11939672371950        0.05590180924020
C            2.58089479039908       -1.20144867733451        0.07549555019369
N            1.42205411569056       -1.93622043141330        0.02348899152114
C            0.31905351917515       -1.10159727063909       -0.02884000722748
C            0.86817127531372        0.18231292133390       -0.00130016423607
C            0.03491690501071        1.31228288859316       -0.06386612823265
O            0.48714353706601        2.45253708498547       -0.07417245318740
N           -1.54098129567011        1.02953194701118       -0.10984060973622
C           -2.12621131203306        2.34929197674488        0.02912370009765
C           -2.49627559191270       -0.12772387917099       -0.29004110431967
O           -3.59178518172474       -0.59487860802813       -0.41046404509020
N           -1.05819508424260       -1.32944921734910       -0.08060272242957
C           -1.31082050028524       -2.75432725666386       -0.03622970242729
H            3.80817680614287        1.14303183240970        1.06602640295874
H            4.01948045012613        1.02227300259135       -0.68102923573252
H            2.80108181525043        2.12758960992763       -0.01180886236940
H            3.59646156804713       -1.55996896844100        0.10326019175118
H           -1.41436310981814        3.15576620929810       -0.17974359586313
H           -2.92564064776135        2.41673830138959       -0.68607095214046
H           -2.46155730140350        2.49377812125784        1.05104998655347
H           -0.87178550715875       -3.23909992849497        0.84569790219236
H           -0.92076872893380       -3.28611662592445       -0.91673613963622
H           -2.37216898564867       -2.89946215275659        0.00939615318189
H            1.52623135580200       -2.94130945184317        0.02817182288755
25
 energy: 103.952723507795 xtb: 6.6.1 (8d0f1dd)
C            3.26760855257727        1.14473854881038        0.11371862592784
N            2.26158109487557        0.09665741825930        0.06570206368918
C            2.57830836402916       -1.17811360667045        0.08637110432357
N            1.46207942520974       -1.94984723290956        0.02506833343749
C            0.33405728567999       -1.13265430321423       -0.03046842132615
C            0.87533446236885        0.16333946468298       -0.00096547706792
C            0.05046730212574        1.31410956342510       -0.06324007690626
O            0.49407575489114        2.43606627168541       -0.07825790055650
N           -1.59930267140730        1.05512744613226       -0.13229621196072
C           -2.13028678846783        2.37106869316968        0.03416357725091
C           -2.66871876683582       -0.00519188746315       -0.31367206920862
O           -3.68615676368978       -0.61636676759441       -0.42758248513762
N           -0.96838980794815       -1.38305661232490       -0.06304313608253
C           -1.28095214789153       -2.77199358828340       -0.03387325094845
H            3.79923036036364        1.12489371351843        1.06716562908032
H            4.01182586128474        1.01095808176705       -0.67738823127173
H            2.80221138882999        2.11676764727187       -0.00575382793879
H            3.60123108951733       -1.53474387828855        0.10412966211986
H           -1.42319734217711        3.15087047850483       -0.23138855985112
H           -2.95534164481076        2.46878703462936       -0.62778746831215
H           -2.38097416623106        2.53117317832538        1.05583624003855
H           -0.86168570943316       -3.27013997514736        0.84223603474782
H           -0.91731069856339       -3.30632763183669       -0.92455655794348
H           -2.33651789531719       -2.89880613390422        0.01389315451888
H            1.58303812895599       -2.94828732037305        0.02902314552492
25
 energy: 131.748554004587 xtb: 6.6.1 (8d0f1dd)
C            3.26688985514609        1.13856479657570        0.11475886792271
N            2.26622122744641        0.06861002624052        0.07394690766818
C            2.58901952702455       -1.15244153174488        0.09650037170470
N            1.52540106976225       -1.97126715295207        0.02901025262132
C            0.36484035988918       -1.17236150712467       -0.02912694711892
C            0.89442019521406        0.14496001937040       -0.00133999721149
C            0.08527528850935        1.31606419690733       -0.05678879702684
O            0.50113341824004        2.42541963379907       -0.07475704742929
N           -1.66737791291395        1.08104198314316       -0.15589389361958
C           -2.14148602926930        2.38592460798243        0.03947228794159
C           -2.90911710170018        0.19122831457711       -0.34538100473474
O           -3.80410696800025       -0.63274938766740       -0.42455692190747
N           -0.81654463872044       -1.46488864765696       -0.03950094373379
C           -1.25288062586228       -2.79643675200781       -0.03027626755049
H            3.79038737318087        1.11875704630217        1.06749989781041
H            4.01028436991183        1.00547701688718       -0.67326856020578
H            2.80029336964135        2.10693162556916       -0.00685721137913
H            3.61542638992805       -1.52059927278055        0.09997490700269
H           -1.44080083707489        3.13898701524449       -0.26931610782593
H           -2.97047494009234        2.50653434696447       -0.58222390055108
H           -2.31895437295078        2.55055320081162        1.04747158860936
H           -0.87109928831947       -3.31866761960702        0.84286919554330
H           -0.92766422721490       -3.33586823961840       -0.93392396315252
H           -2.31338953621073       -2.86483887204823        0.01034745167599
H            1.63651870237155       -2.95990624499470        0.02839373109411
25
 energy: 158.979762192518 xtb: 6.6.1 (8d0f1dd)
C            3.27484986839380        1.14762233892066        0.11259324573948
N            2.28824549559479        0.05677324648337        0.06624526915000
C            2.61869731981133       -1.13997563199925        0.09252261590017
N            1.58935473343867       -1.98419824166980        0.02545889080937
C            0.40321155750265       -1.18929968850356       -0.02563597754971
C            0.92141664138314        0.14579668790255       -0.00453204911188
C            0.12760898185860        1.31368934032965       -0.02727791912503
O            0.51735266897493        2.42690756648317       -0.07242810677388
N           -1.71178945357180        1.07477664043259       -0.16632647585738
C           -2.14596315568818        2.38583067796747        0.03740470184299
C           -3.11909410621678        0.36388426377280       -0.36275649076446
O           -3.88423855500342       -0.64177476440658       -0.40649965061524
N           -0.69716798442757       -1.54517424274324       -0.01565717165965
C           -1.25710367889871       -2.82343918265159       -0.02827179458658
H            3.78781258255230        1.13150368369746        1.06941603259045
H            4.01872055120241        1.01543442247248       -0.67178666178587
H            2.79296206240203        2.10667282189257       -0.01357747647100
H            3.63919048636988       -1.52936263798421        0.10479567110887
H           -1.44882059172924        3.13391844248924       -0.27299166317499
H           -2.96518464183283        2.50116142762701       -0.58205263308451
H           -2.31055953950154        2.54032952145878        1.03623762049708
H           -0.90055026433324       -3.35790780175467        0.84861719066461
H           -0.94834458198411       -3.35643492682599       -0.94062200722370
H           -2.33266304462965       -2.82048339351515       -0.00081211414462
H            1.65427131626869       -2.96722196770365        0.02497084977279
25
 energy: 138.233679154668 xtb: 6.6.1 (8d0f1dd)
C            3.28260112455901        1.16945254501866        0.11214442179973
N            2.31065065991461        0.08644799638125        0.05845047717860
C            2.66275217327919       -1.15934206034673        0.08236687970117
N            1.60971593021760       -1.97930257126430        0.02569570170950
C            0.42880907393696       -1.15992634197276       -0.01952424624990
C            0.92716871853429        0.17675320047787       -0.00710148071499
C            0.14523618833929        1.29887964207603       -0.02557672506121
O            0.51904512048108        2.45464054603049       -0.06803867667707
N           -1.68189629703600        1.01554892745809       -0.16363529084096
C           -2.13393663278782        2.37101320249675        0.02827409294191
C           -3.12956443209419        0.37034237973296       -0.35920102044279
O           -3.85945710678679       -0.57935034658846       -0.38340742155673
N           -0.71621378940149       -1.58176638345186       -0.01597483400087
C           -1.29043340935780       -2.85222682016407       -0.03052057629120
H            3.79250784000322        1.15474350069925        1.07637877743049
H            4.02622516409322        1.02464058029304       -0.67212759564988
H            2.77933046518557        2.11782317651488       -0.02213654683774
H            3.66509073759593       -1.55705370842668        0.10216414261627
H           -1.42822849039327        3.15599623200813       -0.23899558167999
H           -2.96119486701522        2.45222392744935       -0.63675637599700
H           -2.37752141451608        2.51157695419009        1.05711995307498
H           -0.91881270249045       -3.37385560437797        0.85844207210921
H           -0.95913368826446       -3.36249448576174       -0.94218421042755
H           -2.38679989310073       -2.79628763259576       -0.01149776038989
H            1.60627419504041       -2.96944825370444        0.02267572040321
25
 energy: 151.191247727288 xtb: 6.6.1 (8d0f1dd)
C            3.29682545147250        1.16175508308671        0.10566445041529
N            2.32433605462249        0.09133136013100        0.06476191618586
C            2.69279851754534       -1.16926730739414        0.07799032820333
N            1.63021555795225       -1.97819123209160        0.03090537883556
C            0.42999891042029       -1.16336522216865       -0.00621635311363
C            0.92301957866051        0.16764974529615        0.00589166147409
C            0.13928311958597        1.29261142500330       -0.03570446874946
O            0.54723134246518        2.44134436284097       -0.05006827434605
N           -1.72293752775153        1.00249092949041       -0.14709299389411
C           -2.11488863366702        2.41157283936843        0.03350392196598
C           -3.26695078761556        0.37264730686001       -0.39072623199103
O           -3.96330206165850       -0.61140360048142       -0.41334483325486
N           -0.76562596108868       -1.57802153716383       -0.01485730819245
C           -1.26150947661812       -2.86981053420245       -0.02131684078944
H            3.81311520944496        1.16004135219874        1.06697547952028
H            4.04172070228942        1.02495657046263       -0.68189691710604
H            2.79097879357653        2.11061515427706       -0.03104832837347
H            3.70495292350472       -1.53101680585967        0.08854480141121
H           -1.42036484614038        3.20968533451095       -0.20219743280431
H           -2.91853680775504        2.49133210936110       -0.65734702322331
H           -2.41285742627394        2.52341068301355        1.04750629762332
H           -0.92763794812871       -3.41434870596652        0.86340527033920
H           -0.95891257003015       -3.39514854066878       -0.93147233776590
H           -2.33685466945219       -2.77992076151046        0.00041905163612
H            1.64811722257576       -2.98192140622145        0.02475468214116
25
 energy: 168.831599663890 xtb: 6.6.1 (8d0f1dd)
C            3.31691966093002        1.16591116393217        0.09452695040488
N            2.36086194781809        0.09008544155307        0.05650029570073
C            2.72463687185823       -1.19723812748215        0.05521426398656
N            1.63667897065378       -1.97640682984998        0.03206767429886
C            0.43273420810282       -1.15650025864582        0.01392516952885
C            0.94127053388205        0.16621901486625        0.02077322672520
C            0.17519399255126        1.31680652648801       -0.03097732271433
O            0.61827960473921        2.45909221013917       -0.03085289236406
N           -1.70703905612370        0.99479789458501       -0.09037545392773
C           -2.10467643448515        2.39321991594051        0.02904100146228
C           -3.39300921401763        0.39123984745498       -0.40974202616690
O           -4.03684198691299       -0.59779783828084       -0.38964760908058
N           -0.79287295301160       -1.53781055730706       -0.01574514562619
C           -1.25647482798831       -2.86148968885010       -0.01574612816257
H            3.83109896999819        1.19983922558318        1.05931440518283
H            4.07137626712102        1.05038712075194       -0.68932573751467
H            2.79255359104406        2.11137902275418       -0.05170813285925
H            3.73941764372244       -1.54247960730288        0.07349937195396
H           -1.42861044496617        3.22870352231680       -0.12310665555089
H           -2.83634198780323        2.41162161473402       -0.74571398713493
H           -2.53369111430013        2.44332760106354        1.02029920984958
H           -0.95944392225662       -3.43576516681786        0.86771661153078
H           -0.97508619480429       -3.40582979407561       -0.91984052031462
H           -2.33501826557554       -2.73183883373445       -0.00335190216780
H            1.63029880776030       -2.99044481764404        0.02028922910731
25
 energy: 185.556458496545 xtb: 6.6.1 (8d0f1dd)
C            3.33598432868999        1.16899244295579        0.08786028399048
N            2.41078439932845        0.08798032987304        0.05024844282376
C            2.76351409723998       -1.23939265139439        0.03090505516440
N            1.64035482976346       -1.97641163940166        0.03690670677204
C            0.43205741926183       -1.16338029172425        0.03921519644653
C            0.96589447117728        0.15134262193588        0.03776843247838
C            0.23735348270516        1.36838382073354       -0.05602024593139
O            0.73546057071498        2.49175035181227       -0.02402578262394
N           -1.66880154994202        0.99359676614667       -0.00580450001012
C           -2.06884467611107        2.36456900093960        0.02230615271001
C           -3.65474484689872        0.38381531018529       -0.47872055047223
O           -4.20261991133415       -0.61121541228878       -0.35987945974315
N           -0.84484063213344       -1.44586264549489       -0.02805672566012
C           -1.23083185592319       -2.84615630644162       -0.01030605417353
H            3.84474574359377        1.24111520045980        1.05940010345932
H            4.10025743122847        1.07840609100672       -0.69287275130414
H            2.79156428882381        2.11665332394038       -0.06741417989898
H            3.78850977338792       -1.53977414949219        0.06673391339239
H           -1.40709848622944        3.24944719124877       -0.06441585610799
H           -2.77747792526222        2.32166166878874       -0.82927812445106
H           -2.63764721423183        2.37579656786270        1.03860563156371
H           -0.97556900081494       -3.46349944522679        0.86762351203121
H           -0.98232427979695       -3.42017757524835       -0.90780803014764
H           -2.31715963660680       -2.69516614782195       -0.00410353278288
H            1.63369384730583       -3.00344582118231        0.01816625862225
25
 energy: 187.506472553039 xtb: 6.6.1 (8d0f1dd)
C            3.34118210452010        1.17391182038019        0.08369989622373
N            2.43694348821536        0.09189743240646        0.03871600891440
C            2.77019129184271       -1.25754363023497        0.01986705889694
N            1.63497975291176       -1.97316832599242        0.03491382449212
C            0.44492771926046       -1.17729297680561        0.04936616009463
C            0.98910587526658        0.14862355990759        0.04966757024673
C            0.28796562595900        1.42507521807231       -0.03334801760444
O            0.77569518354804        2.53388852887395       -0.01554233041343
N           -1.57163527607624        1.02298683583112        0.02972353895171
C           -2.02771003442953        2.31552288062221        0.00038343710957
C           -3.82173436419982        0.33259252673454       -0.52643641838539
O           -4.27952440197644       -0.68624568021717       -0.34426110758814
N           -0.83413636348295       -1.36021698329335       -0.02178800651861
C           -1.23316475107938       -2.82327996432027       -0.00727654043688
H            3.84709540865716        1.24312623290310        1.05958482349658
H            4.10201308824888        1.07727089645141       -0.69731426679708
H            2.79266563912763        2.12670850792908       -0.07137268470120
H            3.79575214883811       -1.54269931183841        0.06954710372715
H           -1.40680192218023        3.24828062542651       -0.05364995943192
H           -2.78085070420257        2.27079419776638       -0.85207510549318
H           -2.66235527570329        2.34379622025323        1.04339608398612
H           -0.98359065961631       -3.45634107514723        0.86857950924361
H           -0.99093859761646       -3.40460329912171       -0.90569053824428
H           -2.34454758101629       -2.68541892713717       -0.00675922815879
H            1.63068727311987       -2.99863670727776        0.01510308453736
25