25
 energy: -40.410759446470 gnorm: 8.790010346536 xtb: 6.6.1 (8d0f1dd)
C            3.21700374761244        1.13900966361653       -0.08205521844071
N            2.20800586421485        0.11267770307276       -0.08979271995281
C            2.43631960167668       -1.18115988504495       -0.05960980012629
N            1.26898271248958       -1.85320014060368       -0.07368458873503
C            0.23354654247823       -0.94787797271400       -0.12450829648887
C            0.84140492968767        0.32471423029928       -0.11592418737735
C            0.18886501341178        1.59632699929422        0.10288291339441
O            0.72621975181290        2.66055761708486        0.27402454463001
N           -1.22426917571609        1.40509221159404        0.16037729671596
C           -2.01826348083812        2.28539223484799        0.59125195568607
C           -2.02581065217490       -0.15623561471561       -0.82106672772147
O           -3.16453556969038       -0.27426092048859       -0.41259933048388
N           -1.04855986193157       -1.23945855771041       -0.18055977999738
C           -1.59672753360149       -2.53404106973328        0.13500574753569
H            3.53970268613076        1.34276773470810        0.94043457016671
H            4.07678929898388        0.81914758193118       -0.66792546087784
H            2.80700610076858        2.05889103782777       -0.49351764388689
H            3.40627909887226       -1.63969023502952       -0.02684290464802
H           -1.68874896427510        3.26231556271942        0.93443084289989
H           -1.83404198832946        0.01366101900650       -1.15906048446820
H           -3.07322845842771        2.03739780197624        0.59696741491920
H           -1.16243694979400       -2.92927096212910        1.05208570343680
H           -1.45453835931344       -3.24217678349974       -0.68438650890226
H           -2.66647781681848       -2.38472119614014        0.28712420678660
H            1.16794497687114       -2.85761951856980       -0.05187992616439
25
 energy: -42.083245003615 gnorm: 0.532245326743 xtb: 6.6.1 (8d0f1dd)
C            3.21699826540078        1.13901770761011       -0.08204926853038
N            2.20801859562197        0.11265690978714       -0.08981761125395
C            2.43633012091670       -1.18114754711270       -0.05962062618911
N            1.26896578748277       -1.85315405794051       -0.07378350489338
C            0.23328033596392       -0.94758877340073       -0.12475558453026
C            0.84136187085771        0.32474553500308       -0.11582719579037
C            0.18889497611387        1.59625658529789        0.10289931662529
O            0.72619353117918        2.66056765135865        0.27397417345136
N           -1.22472696326413        1.40475330389148        0.16068633917443
C           -2.01821991220947        2.28546407698621        0.59111452527316
C           -2.15276855650850       -0.27096894572340       -0.59166385367809
O           -3.18233438081650       -0.28030570579615       -0.39986878600080
N           -1.05006071374776       -1.24309529107535       -0.17625685367559
C           -1.59647833386751       -2.53446907601886        0.13508861125485
H            3.53968629686648        1.34277538648334        0.94044298968675
H            4.07679298235927        0.81914654183598       -0.66790716188893
H            2.80700575455044        2.05888993364847       -0.49352538941638
H            3.40627300249187       -1.63970143752660       -0.02685137304208
H           -1.68874910236029        3.26231712491449        0.93445340845873
H           -1.68733857227079        0.13853080197009       -1.40553430774828
H           -3.07322330040206        2.03740338654139        0.59702307737812
H           -1.16240241884644       -2.92932118801481        1.05208135177898
H           -1.45455929456893       -3.24217517239498       -0.68442026223853
H           -2.66646201906575       -2.38474250948908        0.28716641980391
H            1.16795356222317       -2.85761669923509       -0.05187681610949
25
 energy: -42.126694023262 gnorm: 0.122402373773 xtb: 6.6.1 (8d0f1dd)
C            3.21452020842425        1.14064860964320       -0.08741345312069
N            2.20494476175003        0.11367549894082       -0.09417976701212
C            2.43421535853238       -1.17981591612619       -0.06635429341674
N            1.26552526467324       -1.85223351883698       -0.07710248534898
C            0.22750673409381       -0.94863379079539       -0.10889234712525
C            0.83708835481310        0.32383819622788       -0.11116521697223
C            0.18580196574373        1.59715524492395        0.11232193531313
O            0.72589546234832        2.66214348751310        0.27089215770680
N           -1.22439126354331        1.40018817153061        0.18799173749861
C           -2.01774306169055        2.28950910909903        0.59945954059194
C           -2.07620698651903       -0.26729163759572       -0.62361555271659
O           -3.30997175484716       -0.25016260116325       -0.42742390551138
N           -1.05983213908291       -1.24994847647596       -0.14339673882364
C           -1.59633526527888       -2.54971101839993        0.14815733297253
H            3.53928481688828        1.34456291156209        0.93459155679359
H            4.07421340906104        0.82178025676421       -0.67434256941739
H            2.80403519841266        2.06080016263438       -0.49781917249480
H            3.40497830793349       -1.63795906711507       -0.03525706639320
H           -1.69023018380755        3.26835323165253        0.93585986869100
H           -1.60208036696037        0.14170050727382       -1.44193173102998
H           -3.07166190191970        2.03886310865982        0.60953964782664
H           -1.15952628549122       -2.94555131203025        1.06113570988189
H           -1.45168060834132       -3.24607536718290       -0.68074785387998
H           -2.66578414571590       -2.40070947202357        0.29668459922033
H            1.16786563462357       -2.85688777708015       -0.05582031533353
25
 energy: -42.137760700889 gnorm: 0.084424956404 xtb: 6.6.1 (8d0f1dd)
C            3.20728071895465        1.13894253408447       -0.09041009946228
N            2.19621689711711        0.11301520938190       -0.09618163597881
C            2.42236078630386       -1.18143616153230       -0.07272310876440
N            1.25151023586911       -1.85074618665491       -0.07860478576789
C            0.21758745453875       -0.94406846782728       -0.10756787970644
C            0.82882417878623        0.32477814766491       -0.10322085301766
C            0.17539803121890        1.59608676415085        0.12776762286942
O            0.71437704273952        2.66342966011247        0.27088631957380
N           -1.23253672781060        1.39174445811652        0.22239736636835
C           -2.02472784234433        2.28866938903732        0.62213548440013
C           -2.02750360440340       -0.25122301787294       -0.67579763465851
O           -3.21803793513862       -0.24057116018331       -0.41724479243063
N           -1.07124504209412       -1.24310016565141       -0.14428446081163
C           -1.59953444554269       -2.55324351904750        0.16339511295721
H            3.53250538984175        1.34315762309480        0.93139315545711
H            4.06699818220610        0.81920173912457       -0.67679694800981
H            2.79862004030199        2.05984209397473       -0.50119843826660
H            3.39211148674387       -1.64221221039930       -0.04710033814197
H           -1.69891948095325        3.28520654885814        0.91332005942531
H           -1.56560740266204        0.15100791618679       -1.50783596394006
H           -3.07840614446133        2.03845359814484        0.63643170972691
H           -1.16037804561339       -2.95658442645694        1.07488411503759
H           -1.44764939676575       -3.25065840341813       -0.66397602676398
H           -2.67189259746685       -2.42573508371501        0.31130586187865
H            1.15307973473458       -2.85571833757317       -0.05980222407391
25
 energy: -42.140697153294 gnorm: 0.056698233172 xtb: 6.6.1 (8d0f1dd)
C            3.20113747355083        1.13628125194650       -0.09304637156780
N            2.19104827892649        0.11027541760463       -0.09477965564506
C            2.41402418033788       -1.18538878026532       -0.07743780310819
N            1.24157889063763       -1.85062362455290       -0.07629703069857
C            0.21246007774048       -0.93965295640978       -0.09742471315244
C            0.82544757160176        0.32536692070650       -0.09086223522840
C            0.17168227758540        1.59855398855451        0.14088581821651
O            0.71054771812847        2.66787672964444        0.26821794190409
N           -1.23242210728747        1.38570681188237        0.24664024710517
C           -2.02996923715262        2.29060824917020        0.61801873797377
C           -1.99602203863050       -0.23248285730328       -0.71158916073840
O           -3.15443114522794       -0.28139329131278       -0.44443297497704
N           -1.08078224463268       -1.23089883984593       -0.14104147409987
C           -1.60500211164303       -2.54485825807403        0.17441520295812
H            3.52544873496718        1.34336404523165        0.92837475915358
H            4.06020836346281        0.81457915411937       -0.67898532435005
H            2.79116903820043        2.05566967741686       -0.50654272970680
H            3.38212240759227       -1.64944398348797       -0.06311473121350
H           -1.70650547635511        3.28774290979753        0.90687337883656
H           -1.54157976969444        0.16690366317264       -1.55709358724475
H           -3.07814747607659        2.01831498477617        0.68205671727518
H           -1.15936969404888       -2.94111391911218        1.08657583263618
H           -1.44540376684867       -3.24439847399471       -0.65066379324009
H           -2.67793269031320       -2.42709410317493        0.32542021461011
H            1.14112425927949       -2.85565617488946       -0.06299564779843
25
 energy: -42.141126723924 gnorm: 0.053040397188 xtb: 6.6.1 (8d0f1dd)
C            3.20046005291231        1.13565095200241       -0.09207638532694
N            2.19264599565888        0.10818415430990       -0.09518887682848
C            2.41605933351082       -1.18778864481219       -0.08066365872886
N            1.24420331043837       -1.85300256487689       -0.07792523701047
C            0.21663633285048       -0.94145600633883       -0.09853530806267
C            0.82763823703350        0.32336486708375       -0.09111597327323
C            0.16889901772866        1.59562287718526        0.13896970650378
O            0.70451596700928        2.66523208565798        0.27220679762699
N           -1.23270847726903        1.37308950072465        0.26258817030436
C           -2.03006550720574        2.27018371406849        0.65038603813631
C           -1.99468677876141       -0.23152959059972       -0.72295133116466
O           -3.15160674855779       -0.26921748536159       -0.44897016831470
N           -1.07771853540724       -1.22758802214827       -0.14468618100985
C           -1.60524911086020       -2.53687946796048        0.17792132115988
H            3.52052553817910        1.34543397787689        0.93009598268829
H            4.06145201179067        0.81383871859693       -0.67484212502359
H            2.78927880629775        2.05306231620645       -0.50881379135682
H            3.38366631384441       -1.65233232326137       -0.07051467733570
H           -1.71354078220079        3.28809977917699        0.88598649097167
H           -1.53998703741034        0.17071697129840       -1.57252431142284
H           -3.08099016324115        2.01411348294997        0.67734023271281
H           -1.15804277379190       -2.92258318997676        1.09327867474459
H           -1.44603664106611       -3.24165842042000       -0.64221919055647
H           -2.67760015392817       -2.41643113207744        0.32922168579155
H            1.14268330654568       -2.85788800770440       -0.06579626732508
25
 energy: -42.141749177543 gnorm: 0.046261885491 xtb: 6.6.1 (8d0f1dd)
C            3.19971859237624        1.13521721025401       -0.08985260570517
N            2.19490685364838        0.10553978974868       -0.09576558561766
C            2.41917115722222       -1.19064708082477       -0.08452833040362
N            1.24826241696500       -1.85650616046613       -0.08115867106877
C            0.22210960873554       -0.94491587672945       -0.10124432584368
C            0.83042543261740        0.32053922978356       -0.08979689058118
C            0.16693280565257        1.59219828993513        0.14129979666431
O            0.70008253525086        2.66253551259846        0.27526215600888
N           -1.23351059140080        1.36650241036776        0.26177284617481
C           -2.03446575898386        2.26379440383741        0.64390467539854
C           -1.99359148225218       -0.23242465734407       -0.73547536864423
O           -3.15324360059019       -0.25033344419617       -0.45767685420859
N           -1.07312126988591       -1.22550096837442       -0.15083995818794
C           -1.60591927131095       -2.52780638773202        0.18346505456063
H            3.51262993274984        1.34949571011449        0.93362564684741
H            4.06469515665241        0.81361010732048       -0.66654944121646
H            2.78754698497626        2.04973843312490       -0.51197598057903
H            3.38633364317502       -1.65552602009727       -0.07874847991976
H           -1.72059819778976        3.27801298275705        0.88421832846031
H           -1.53707819746582        0.17359091079995       -1.59146665768845
H           -3.08187853161668        1.99614389212670        0.70321945083247
H           -1.15814327071348       -2.89950829444604        1.10387753110710
H           -1.44886922131339       -3.24175377603667       -0.62836425739731
H           -2.67748838374771       -2.40253766201928        0.33452832153163
H            1.14552417114903       -2.86122001290219       -0.07055878262438
25
 energy: -42.142617047614 gnorm: 0.031882298941 xtb: 6.6.1 (8d0f1dd)
C            3.19886600890351        1.13556124052838       -0.08573738282254
N            2.19789825340722        0.10272522671370       -0.09871462877675
C            2.42236550755675       -1.19360650559067       -0.09223683984738
N            1.25208111199547       -1.86021213497859       -0.09162022597614
C            0.22742920438005       -0.94874057542214       -0.10875963063701
C            0.83423190710558        0.31794984009905       -0.09005185921254
C            0.16784369893303        1.59062991726265        0.14388666495014
O            0.70092017521445        2.66047269339598        0.27986752922778
N           -1.22951002274211        1.36080743055746        0.26452925303820
C           -2.03735218112814        2.25415321798940        0.64226046002402
C           -1.99079127454127       -0.22911573855997       -0.74153912176514
O           -3.15580047478927       -0.25385752101105       -0.47682621195780
N           -1.06924914899451       -1.22366478082574       -0.16434818416151
C           -1.60897239589921       -2.51658221160277        0.19259510480614
H            3.49480341256951        1.36033190063062        0.94087888411982
H            4.07420535278861        0.81317819422101       -0.64633131251035
H            2.78830353261984        2.04468871081157       -0.52127045008241
H            3.38880960309629       -1.65952760999168       -0.09091189749195
H           -1.73141616798752        3.26656292464296        0.88253718916414
H           -1.53240449158750        0.18736744431020       -1.61222169767326
H           -3.08059103050161        1.97452467609472        0.72708952036069
H           -1.16118028629824       -2.86883908754603        1.12084798553341
H           -1.45808724700030       -3.24840071753455       -0.60390277754562
H           -2.67934047606286       -2.38340076213953        0.34474413460222
H            1.14736894306225       -2.86476723045485       -0.08359288746631
25
 energy: -42.143293037411 gnorm: 0.014671592801 xtb: 6.6.1 (8d0f1dd)
C            3.19806205847074        1.13689297646987       -0.07949004127361
N            2.19987944104303        0.10143670440952       -0.10381771553045
C            2.42527148878721       -1.19460243428871       -0.10332800017670
N            1.25519355558296       -1.86248785114505       -0.10902039619079
C            0.23007448389236       -0.95232755391945       -0.12086372471840
C            0.83610924181800        0.31528036724289       -0.09537876390714
C            0.16794559404284        1.58746488979958        0.14387495831292
O            0.70271280185060        2.65595517590144        0.28437227537594
N           -1.22701412807622        1.35502503013424        0.26814382185311
C           -2.04014823801963        2.24498370125437        0.64384392109977
C           -1.98368677455651       -0.22635652499208       -0.73704848692726
O           -3.15110330216274       -0.25816646155423       -0.48297455794829
N           -1.06727395892230       -1.22611542849432       -0.18054883868985
C           -1.61348176482187       -2.50959287761529        0.20414005887968
H            3.46917351774254        1.37505381850822        0.95170945145196
H            4.08830074295189        0.81116342499289       -0.61529972221032
H            2.79518695196216        2.04020295251007       -0.53471513871400
H            3.39169631037964       -1.66079145229678       -0.10319477054598
H           -1.74149713307931        3.25993927437114        0.87942374324847
H           -1.52462710403897        0.20541089727123       -1.62708008673585
H           -3.08034099834601        1.95919400086360        0.73615678279266
H           -1.16671644016394       -2.84701838428042        1.13870359747529
H           -1.46990439632796       -3.25902004381282       -0.57730539100514
H           -2.68309188593279       -2.36619971877435        0.35522840567747
H            1.14971145002431       -2.86708594095547       -0.10435976369364
25
 energy: -42.143514294466 gnorm: 0.005777334826 xtb: 6.6.1 (8d0f1dd)
C            3.19836701253738        1.13784519783779       -0.07543500313684
N            2.20007888746309        0.10253196295664       -0.10753541926579
C            2.42632568511651       -1.19315632693589       -0.11048077142260
N            1.25606009166261       -1.86154556383900       -0.12040582706382
C            0.22921929255885       -0.95233938901047       -0.12882249994593
C            0.83564326883029        0.31477011190115       -0.10155416203228
C            0.16853971377169        1.58489979702597        0.14341088266605
O            0.70460490105393        2.65252410122775        0.28807814484272
N           -1.22660367491645        1.35265775513970        0.26951701927735
C           -2.04032848199136        2.24241391777939        0.64421770351225
C           -1.98170496102910       -0.22725977682537       -0.72615967570792
O           -3.14845894919748       -0.26050423995928       -0.47429434253739
N           -1.06772553944460       -1.23002337951033       -0.18766023560174
C           -1.61563894042728       -2.50991142256314        0.20963403825630
H            3.45159445575510        1.38436776471086        0.95839326664124
H            4.09774086759553        0.80695989677705       -0.59266672419784
H            2.80529654179300        2.03820335175633       -0.54503928380365
H            3.39333031468044       -1.65869601034643       -0.10815488784321
H           -1.74335909255319        3.26120009969874        0.87542552709948
H           -1.52340809509032        0.21495527542515       -1.62656989136966
H           -3.08064297871000        1.95589769949233        0.72856618381908
H           -1.16973550149759       -2.84527495782328        1.14499465956132
H           -1.47514328120207       -3.26465851917707       -0.56685255688960
H           -2.68516128438143       -2.36126678614721        0.35881704166981
H            1.15154126172246       -2.86635201799130       -0.11825156862745
