72
 energy: 0.000000000000 xtb: 6.6.1 (8d0f1dd)
N           -1.47310921155849        2.74401293103706        2.22063921685122
C           -1.55658879776851        2.16490285539332        1.13274273951491
C           -2.74549199786261        2.05621232186130        0.23826248438941
C           -3.31377553111525        0.64333411542669        0.32332512650568
C           -4.30230156009016        0.24487110156316       -0.58026161703006
C           -4.85238763031941       -1.02286490450319       -0.53363588718165
O           -5.81419972815119       -1.48606034185536       -1.36157882725342
C           -6.39655633239252       -0.60827000183299       -2.29568474302620
C           -4.39972501531283       -1.94646102182611        0.44396929121966
O           -4.98748311285188       -3.16145997157803        0.41085992006324
C           -4.66362127904578       -4.10093827755394        1.40909127743729
C           -3.42072513477031       -1.54561384810496        1.33436546260297
C           -2.88302799614223       -0.26315800396994        1.27400150770375
C           -2.19303798107274        2.30467000305896       -1.18742977106749
C           -1.26651538239283        1.17243369445008       -1.65249429687285
C            0.01082524939134        1.09745454476277       -0.89354803499847
N            0.61779393476578       -0.02034948052406       -0.57705522512502
C            2.00145210352228       -0.02376006389122       -0.15611399603240
C            2.92554934655222       -0.53865282675074       -1.27700088804721
C            4.35756843073516       -0.43050757231754       -0.83075544324989
C            5.07346135469827        0.73206409086248       -1.03980965825901
C            6.38627986649936        0.84224441421807       -0.60344822702769
C            7.00047264773336       -0.20824756335880        0.05722314418200
O            8.26703657141718       -0.21011313101264        0.52410943644933
C            9.06912227848686        0.92943601033931        0.31863058007678
C            6.27039964270142       -1.40439753960823        0.28033466008274
O            6.94829939911432       -2.38012925705718        0.92751999079483
C            6.31537317745639       -3.61583200086742        1.15217711710877
C            4.96302794628964       -1.49347471867959       -0.16064430359178
C           -0.05511211367372       -1.29906247805359       -0.62085686319744
C           -3.86758037025447        3.07992600430699        0.58498060215443
C           -4.49286159663096        2.77383493050346        1.94313289484366
C           -3.39165179876499        4.52917666589254        0.54797523472093
H           -4.66030026466202        0.94509067363451       -1.31640568823548
H           -6.85037928558380        0.25803162192116       -1.80468845313260
H           -7.17287442604349       -1.18600110843259       -2.79318157561361
H           -5.66836817451085       -0.26952966318766       -3.04040255244073
H           -4.88416720672258       -3.71589460520039        2.40913542187496
H           -5.29223570620378       -4.96637458756866        1.20969236903657
H           -3.61139813139015       -4.39919835331056        1.35529357841967
H           -3.07077796610445       -2.21868765711333        2.10002662693138
H           -2.14562754426994        0.02067850696302        2.01001344383370
H           -3.02188875377605        2.38238012313952       -1.88813545054866
H           -1.65198530896729        3.25146700677685       -1.20556284570283
H           -1.81103374245520        0.23006524641044       -1.62116301628650
H           -0.99335688527853        1.37490212198123       -2.69443256973690
H           -0.67628064361333        1.65183887049447        0.61785727145403
H            0.63525841192517        1.98466369793744       -0.92314021190751
H            2.11132552493482       -0.65949692842762        0.72532613231274
H            2.30680473056284        0.98978251704176        0.11078972794250
H            2.76694198818247        0.06750735147374       -2.17075252200790
H            2.67954581369920       -1.57455627803457       -1.51167743520200
H            4.62169998552446        1.56295612048703       -1.56123579000624
H            6.92357674630170        1.75715815945204       -0.79119596719031
H            8.65159112996149        1.81001823324363        0.81701555159939
H            9.20136171144928        1.14042857828877       -0.74698991949293
H           10.03428838009630        0.69003240176163        0.76064937965836
H            7.05567174969094       -4.23621171795340        1.65347565939075
H            5.43848001056755       -3.50813558175093        1.79970565785717
H            6.02060041905269       -4.09420497120334        0.21253282636366
H            4.40102758497114       -2.40127266373392       -0.00490198249042
H           -0.22071299714579       -1.61775583601871       -1.65116008982042
H           -1.01972258008625       -1.24102717432227       -0.10935206830928
H            0.55899954147532       -2.04486085926761       -0.12333730421426
H           -4.63991875734388        2.95501092798550       -0.18098088071825
H           -3.76095216473977        2.90314704960906        2.73380821053058
H           -4.87457614030224        1.75695641518947        1.97884603101694
H           -5.31925552549014        3.45579210326349        2.12325564252114
H           -2.60025590131176        4.69225046143352        1.27368918226171
H           -3.03987406413880        4.81897652321898       -0.43870975059559
H           -4.22191740670577        5.18069648090034        0.80616693961239
H           -0.59832433787845        2.77744694953323        2.72958984441332
72
 energy: -5.707285723075 xtb: 6.6.1 (8d0f1dd)
N           -1.49659117101106        2.78780719544780        2.23728768289745
C           -1.54848760756673        2.15730483896463        1.15267428726668
C           -2.74210537401555        2.06403986038051        0.24606093867315
C           -3.31048182266849        0.65282893438441        0.32774850160620
C           -4.29622005649250        0.24937679276188       -0.57533152421145
C           -4.84242543079393       -1.01827533800468       -0.52805338028102
O           -5.81032949610312       -1.48772292632044       -1.36352653786932
C           -6.38532795977722       -0.60948437791388       -2.29674350555816
C           -4.39405827409265       -1.93599459199482        0.44807828922851
O           -4.98358745729776       -3.16242093620706        0.41331248909889
C           -4.63946422611869       -4.10171189955279        1.39814929495581
C           -3.42213806809580       -1.53514755539064        1.34375706257218
C           -2.88690884688898       -0.25299673942595        1.28309422908905
C           -2.18985731903108        2.30859355593470       -1.18272186962274
C           -1.26803999103602        1.18121914226768       -1.67465853798413
C           -0.00093334105843        1.11781969008317       -0.91164431436472
N            0.61002353670960       -0.06455968298636       -0.54996496119943
C            1.98806301372855       -0.04441060869558       -0.16416334510403
C            2.93094380848237       -0.53668770306862       -1.28624003473115
C            4.35583133846430       -0.42983865450980       -0.84158376239285
C            5.07489521609380        0.73397128641830       -1.04317604187073
C            6.38526391754952        0.84417829262575       -0.60157033378256
C            6.99470818836671       -0.20819122676800        0.05789574269282
O            8.27346622572129       -0.21248667442247        0.52979550405092
C            9.06818904842773        0.92646638246604        0.32249699586662
C            6.26603172060911       -1.39935954522678        0.27791684234005
O            6.94719072259004       -2.38354156446788        0.92896592432947
C            6.30985614439476       -3.61436547285019        1.15028180518195
C            4.96186024030029       -1.49096512338120       -0.16758982483382
C           -0.07506805979243       -1.32842510701933       -0.60155185830574
C           -3.86763824233645        3.07996124010695        0.58156758374811
C           -4.49638466064936        2.77913217376585        1.94101001744526
C           -3.39619679641206        4.53280217514826        0.54483439452294
H           -4.64780252084242        0.94619627775353       -1.31842084850187
H           -6.83951284090519        0.25976124426517       -1.80910147738589
H           -7.16222081900354       -1.18661094687293       -2.79601463648677
H           -5.65599992747467       -0.27072974801965       -3.04076144798837
H           -4.85616296139668       -3.73156275230493        2.40561383620607
H           -5.25708717111150       -4.97477465046036        1.19366151449274
H           -3.58353695735386       -4.38461377886698        1.33654478580328
H           -3.07346403282547       -2.20873002901704        2.11089608401761
H           -2.14795610291060        0.03275749581401        2.01603950133420
H           -3.02051917378305        2.40402556202915       -1.88265897547414
H           -1.63656535437395        3.24943328835238       -1.19440496198652
H           -1.81028964770486        0.23852627683134       -1.63185994387474
H           -1.01841545673099        1.38289158809455       -2.72390642466936
H           -0.68297769041155        1.65129219198203        0.66096595498153
H            0.65121876311051        1.97454453273708       -0.96467603462670
H            2.11754599190402       -0.67800739070755        0.71884187048673
H            2.28200921561233        0.97425525870903        0.10483133320233
H            2.76453294544555        0.07830475838350       -2.17269063195621
H            2.68098894722727       -1.57071866709742       -1.52684553639118
H            4.62206806889259        1.56580414215450       -1.56206135506046
H            6.92432669770282        1.75925539376892       -0.78764513944240
H            8.65124793446003        1.80877157058198        0.82029527968093
H            9.20059553832971        1.14023403905992       -0.74371596342468
H           10.03460964572271        0.68823019475741        0.76416491077460
H            7.04826159970454       -4.23708843894252        1.65331405800956
H            5.43118526133140       -3.50639415282745        1.79554084641930
H            6.01494021671589       -4.09342062359149        0.21034555291724
H            4.39768323693369       -2.39769946263173       -0.01061434780144
H           -0.29414832178725       -1.62152736831358       -1.63091336837147
H           -1.03209950044165       -1.34540367660861       -0.06128179522557
H            0.57095223253739       -2.08658679596322       -0.16222388547124
H           -4.64099213539945        2.95692618454722       -0.18595721233329
H           -3.76026413138336        2.90907720644035        2.72760453606655
H           -4.87370020207966        1.76004117978704        1.97729541583603
H           -5.32517832453226        3.46018755384796        2.11981537509866
H           -2.60550968241447        4.69426889715723        1.27101901995383
H           -3.03828000631248        4.81782654382937       -0.44156370173484
H           -4.22870637737730        5.18510564780577        0.79847677003760
H           -0.60475545026286        2.78742061977330        2.72932835172838
72
 energy: -5.078165704840 xtb: 6.6.1 (8d0f1dd)
N           -1.50149655983848        2.80485983851391        2.23999115753321
C           -1.54736628262811        2.16299741977860        1.16120911257609
C           -2.73801614576005        2.06837315187954        0.24924484348808
C           -3.30679843336062        0.65810427450124        0.33102540998107
C           -4.28969766742201        0.25291403935400       -0.57407930095049
C           -4.83623144214700       -1.01439879748668       -0.52554412274678
O           -5.80141661825392       -1.48633617804282       -1.36284212500294
C           -6.37494863455436       -0.60970201984459       -2.29845835063782
C           -4.39020966135712       -1.92957174007883        0.45354482244086
O           -4.97665281369884       -3.15689831610975        0.41785439131394
C           -4.61531327648872       -4.10338815672398        1.38876676204868
C           -3.42221858421874       -1.52667182123499        1.35229254739335
C           -2.88746526760172       -0.24462469882359        1.29069168923808
C           -2.18374069343125        2.31446205434994       -1.17877990002756
C           -1.27236844830361        1.18282543852049       -1.68370259918728
C           -0.00179247819687        1.10085202330273       -0.93548117076310
N            0.58806593531972       -0.08538897039952       -0.53836551895744
C            1.97499222533690       -0.05849331427228       -0.16837522191975
C            2.92671396348374       -0.53351576228724       -1.29333219146466
C            4.35250020345576       -0.42642712959494       -0.84592677524047
C            5.07394183278034        0.73690825238587       -1.04500569864451
C            6.38377809837970        0.84613793243827       -0.60043827045869
C            6.99226367097305       -0.20720741247318        0.05873636042872
O            8.27091159649253       -0.21330678649940        0.53294389547414
C            9.06748670971651        0.92465850750042        0.32588738057921
C            6.26208492639506       -1.39789797700870        0.27586861716249
O            6.94168757287723       -2.38334805494246        0.92725647201023
C            6.30400221702870       -3.61379313547545        1.14831111098452
C            4.95864951017464       -1.48839284987659       -0.17251102945335
C           -0.09756346058225       -1.35635412023049       -0.58380243749847
C           -3.86700049724498        3.08259798157926        0.57944896241851
C           -4.49777745465331        2.78323052608658        1.93837203118586
C           -3.39884091221015        4.53632264636170        0.54102789455618
H           -4.63696995770471        0.94720065238374       -1.32144450330134
H           -6.82927595367541        0.26091518861698       -1.81324495210095
H           -7.15142054155909       -1.18736266469311       -2.79785549009099
H           -5.64424041388774       -0.27268438836606       -3.04186286266701
H           -4.82893499923136       -3.74850059463237        2.40216036175745
H           -5.22232597169562       -4.98213322271051        1.17703561792352
H           -3.55655529269112       -4.37095468391770        1.31761109947801
H           -3.07687202352113       -2.19826342092245        2.12275067484770
H           -2.14987446613247        0.04309501926743        2.02416724655984
H           -3.01530922663083        2.42210239482136       -1.87647515398676
H           -1.62191482354486        3.25002805918999       -1.18524610332730
H           -1.81949307869021        0.24422389134547       -1.64333771808870
H           -1.02881186128241        1.38882412621036       -2.73391319301968
H           -0.68224357770782        1.64977357624209        0.68469977337342
H            0.65676092227255        1.95586110411531       -0.98763823989903
H            2.11594035094358       -0.69429507292482        0.71046263944498
H            2.26274465962683        0.96185635886321        0.10307323887543
H            2.76165985862795        0.08879449947207       -2.17508421453339
H            2.68236365277478       -1.56711026161515       -1.54111413695647
H            4.62284924743347        1.57007367650274       -1.56299730169575
H            6.92405046660894        1.76101080481994       -0.78468964763414
H            8.65166314558542        1.80732890217141        0.82405267626909
H            9.20004229215705        1.13927130646405       -0.74024118053359
H           10.03365428409346        0.68479310220594        0.76752448570770
H            7.04153487973942       -4.23679865539336        1.65258573508172
H            5.42465879580922       -3.50523664497935        1.79239187031245
H            6.01017666510524       -4.09300413813101        0.20818491685487
H            4.39443987320067       -2.39520357808194       -0.01572899131015
H           -0.36895837685463       -1.61834315071511       -1.60736444221105
H           -1.03945258307322       -1.44967581981935       -0.01114716102147
H            0.58520139157700       -2.11933636063954       -0.20799657060307
H           -4.63874940040012        2.95684772092680       -0.18959196412231
H           -3.76169019601603        2.91570940891183        2.72449336587792
H           -4.87290006752131        1.76340488923571        1.97573709725092
H           -5.32811055614810        3.46317092773630        2.11540375221889
H           -2.61102672834972        4.70016051773818        1.26944796463464
H           -3.03723248523556        4.81892882564629       -0.44479279340407
H           -4.23332806009112        5.18791334959882        0.79049934839904
H           -0.61238612777117        2.80730503411103        2.73680835148579
72
 energy: -3.762954966033 xtb: 6.6.1 (8d0f1dd)
N           -1.50659616285187        2.82273903805729        2.24120867401837
C           -1.54624610446435        2.16885129067918        1.16905978389929
C           -2.73366670122146        2.07261215476877        0.25212281281607
C           -3.30263662549755        0.66312513527328        0.33412714622822
C           -4.28284113081094        0.25632798452110       -0.57293856354690
C           -4.82986245703008       -1.01057536385857       -0.52304866781864
O           -5.79250935651375       -1.48482739306608       -1.36209804113379
C           -6.36457294696527       -0.60988133286591       -2.30017080569073
C           -4.38614364578693       -1.92322845245898        0.45898109770465
O           -4.97011513245716       -3.15128102270928        0.42299875610381
C           -4.59116266273867       -4.10495051408165        1.37937586227199
C           -3.42210427582168       -1.51835155387156        1.36087921081109
C           -2.88789180067626       -0.23640113232257        1.29839201512397
C           -2.17734126840730        2.32051570762563       -1.17506236341469
C           -1.27676368099033        1.18364923016584       -1.69226851646730
C           -0.00308968785967        1.07930059113151       -0.95719841862961
N            0.56572009020765       -0.10816381195468       -0.52631648480365
C            1.96076204101157       -0.07282321571530       -0.17129957447102
C            2.92075585293957       -0.53009066575878       -1.29953094001698
C            4.34745950555826       -0.42228303029615       -0.84896492201025
C            5.07191053679567        0.74003476092315       -1.04635261543497
C            6.38159815677849        0.84805078052953       -0.59971320787728
C            6.98928097489882       -0.20611796259636        0.05916265458098
O            8.26752418160651       -0.21388065047668        0.53585832189374
C            9.06643083145416        0.92284387903111        0.32925728651911
C            6.25769284908089       -1.39629301939768        0.27351871607361
O            6.93610954192984       -2.38289647968327        0.92500567128003
C            6.29819661186271       -3.61303603513025        1.14621917894922
C            4.95461881268521       -1.48535683412987       -0.17692771767323
C           -0.12186710679702       -1.38573737065725       -0.56631002720214
C           -3.86549682369610        3.08522161250757        0.57767944031492
C           -4.49896839018352        2.78726290645242        1.93578610531138
C           -3.40111499397393        4.53999685946683        0.53729901226027
H           -4.62597813150094        0.94822282087061       -1.32435591291088
H           -6.81915206231466        0.26211265032717       -1.81754340892102
H           -7.14060665804523       -1.18815229319003       -2.79961318695077
H           -5.63260197977651       -0.27465875678065       -3.04312427857510
H           -4.80179058807023       -3.76591037106303        2.39866674347258
H           -5.18745146974947       -4.98926089081799        1.16030419768486
H           -3.52972681348910       -4.35703017654046        1.29863809358698
H           -3.08036527286899       -2.18800020161425        2.13474372300175
H           -2.15204757437365        0.05322410712238        2.03278437078791
H           -3.01010543838385        2.44018908601784       -1.87019307174981
H           -1.60714005662539        3.25102888857225       -1.17618344083798
H           -1.83059677699854        0.24958173298252       -1.65500145179199
H           -1.03873830756963        1.39460158544929       -2.74318606992355
H           -0.68141721908549        1.64770788548571        0.70832659159813
H            0.66273608865852        1.93242821157965       -1.00877477901022
H            2.11386049019084       -0.71127834424182        0.70280759319290
H            2.24231865289524        0.94940283662519        0.10259522952235
H            2.75819352684307        0.09932649261087       -2.17686996366297
H            2.68332871897190       -1.56342042656566       -1.55510060268708
H            4.62319576597098        1.57439724489235       -1.56410732616716
H            6.92334840351457        1.76258722471530       -0.78212500032053
H            8.65199208769497        1.80597431099204        0.82781796282607
H            9.19958312910600        1.13833252948672       -0.73671212634569
H           10.03218837617474        0.68111588946369        0.77105553945433
H            7.03487560986492       -4.23618233782898        1.65187436513239
H            5.41816182983128       -3.50390650065173        1.78914630173030
H            6.00547435590310       -4.09274068373372        0.20604411660069
H            4.39096680697439       -2.39269019399048       -0.02075760450191
H           -0.44631231748108       -1.61259654527110       -1.58209928082507
H           -1.04318390447647       -1.55343549697167        0.03939613382682
H            0.59016128675711       -2.15380943065184       -0.25566128856480
H           -4.63534298462987        2.95625983200133       -0.19287957722244
H           -3.76365775349607        2.92237475833224        2.72205490294736
H           -4.87222135007408        1.76682731330459        1.97428476314653
H           -5.33083994083443        3.46610237650136        2.11044377695546
H           -2.61630353791936        4.70662496676858        1.26801147788841
H           -3.03615993127830        4.82047066551779       -0.44795621977472
H           -4.23788750233319        5.19048226104282        0.78240292590084
H           -0.62019656411867        2.82777257102116        2.74223036725113
72
 energy: -1.782824200369 xtb: 6.6.1 (8d0f1dd)
N           -1.51154891514463        2.84089276445084        2.24144176012726
C           -1.54469688734771        2.17549850430862        1.17604177245510
C           -2.72919299142388        2.07690464134956        0.25483760959725
C           -3.29797831575205        0.66787628931536        0.33678374718001
C           -4.27570787510209        0.25941385449206       -0.57210927437295
C           -4.82340255320105       -1.00698295458763       -0.52038154363528
O           -5.78376905717163       -1.48343999105650       -1.36092173752746
C           -6.35435746990158       -0.61021052093391       -2.30146729470029
C           -4.38202751409674       -1.91698799811873        0.46476322456715
O           -4.96366911465992       -3.14582582626786        0.42887157030482
C           -4.56697249567665       -4.10669395882149        1.37016593875451
C           -3.42201903322776       -1.51000619054584        1.36976608171251
C           -2.88813389090430       -0.22830283982720        1.30592696709115
C           -2.17031443481596        2.32739553677724       -1.17089779304755
C           -1.28145081377199        1.18449409314370       -1.69970312337163
C           -0.00455314258635        1.05631671516810       -0.97815819350818
N            0.54404340388313       -0.13207656881409       -0.51726254909370
C            1.94612693215574       -0.08679335887359       -0.17471191705097
C            2.91467080126761       -0.52701720526163       -1.30520613556100
C            4.34206515969168       -0.41786791994197       -0.85119131905758
C            5.06912938425304        0.74360885371743       -1.04690574445118
C            6.37859095618995        0.85066394289259       -0.59813408054550
C            6.98559988903355       -0.20443942103194        0.06013244228101
O            8.26326365248443       -0.21402336077501        0.53891035288445
C            9.06542763030046        0.92071549764356        0.33254781556737
C            6.25318911304113       -1.39456804914537        0.27114849607072
O            6.93063172308967       -2.38214256038332        0.92273358966389
C            6.29274813290723       -3.61211549996237        1.14445718246541
C            4.95060072962529       -1.48236587038653       -0.18143926611768
C           -0.14749317472114       -1.41650853503600       -0.54909767914696
C           -3.86382214765375        3.08785878817607        0.57596461908681
C           -4.49981459776952        2.79117979968544        1.93324487303344
C           -3.40306820978569        4.54363362931399        0.53340300360522
H           -4.61486003356265        0.94871461259770       -1.32773247366529
H           -6.80925447856320        0.26314694032243       -1.82148769243758
H           -7.12994683046950       -1.18906518583236       -2.80097287454539
H           -5.62118941780308       -0.27681059016824       -3.04404984374040
H           -4.77436391190742       -3.78413210182798        2.39533481661699
H           -5.15226974070551       -4.99649851057005        1.14336656748725
H           -3.50310798752722       -4.34305812801384        1.27992311011800
H           -3.08434596250422       -2.17738860542334        2.14748561099467
H           -2.15432291920383        0.06329651588771        2.04146646961742
H           -3.00437204774937        2.45930156987470       -1.86315940346616
H           -1.59146346937350        3.25277476546033       -1.16655713726452
H           -1.84339298457704        0.25550615618923       -1.66492789622364
H           -1.04819492525597        1.40003948139383       -2.75088716026391
H           -0.68052112351849        1.64598395365354        0.73037237700789
H            0.66710539362198        1.90870550716281       -1.02612757150860
H            2.10936740252795       -0.72804430191545        0.69455489974558
H            2.22171761607312        0.93715868441039        0.10260197116147
H            2.75455805965479        0.10900956133293       -2.17863792326100
H            2.68443762642599       -1.56034161863283       -1.56730354571188
H            4.62303316864732        1.57905889608774       -1.56485135654916
H            6.92171041885681        1.76517924051428       -0.77783094197951
H            8.65346712789668        1.80476405133224        0.83154735573995
H            9.19928378692354        1.13678745036650       -0.73329791284237
H           10.03062397708733        0.67617806916384        0.77432693316847
H            7.02874495901207       -4.23507264383640        1.65162845444951
H            5.41205107277577       -3.50253426530013        1.78631988207877
H            6.00121438195278       -4.09266732755063        0.20437868008505
H            4.38816621052760       -2.39085587858755       -0.02733266372823
H           -0.52494239986497       -1.61063449278255       -1.55275142236889
H           -1.04630159251148       -1.65403986882756        0.08885854531799
H            0.58834860735343       -2.18833110892817       -0.30700626938512
H           -4.63166302839559        2.95541363598496       -0.19610076345460
H           -3.76553540599477        2.92893567987174        2.71989392269800
H           -4.87143121027981        1.77022681092905        1.97295862693891
H           -5.33306408364928        3.46901779081802        2.10541558394190
H           -2.62123918013366        4.71319397408015        1.26635673458989
H           -3.03501099005308        4.82199072235726       -0.45136810655090
H           -4.24207786906129        5.19291151382809        0.77426422462106
H           -0.62788912470091        2.84861668743909        2.74653649727899
72
 energy: 0.681866390102 xtb: 6.6.1 (8d0f1dd)
N           -1.51608364060170        2.85953967189024        2.24146612614324
C           -1.54304376034022        2.18268356598238        1.18308075657132
C           -2.72445990133906        2.08138141274017        0.25744400962855
C           -3.29293934302276        0.67265668627944        0.33959124881278
C           -4.26832295121584        0.26264667406052       -0.57111024933231
C           -4.81670277035985       -1.00331206563407       -0.51774906138271
O           -5.77488015545639       -1.48181620392028       -1.35974350134020
C           -6.34388576878986       -0.61048330079194       -2.30297306355674
C           -4.37761505753070       -1.91091537724493        0.47033383575992
O           -4.95697702292358       -3.14063178925427        0.43470181011081
C           -4.54268745756794       -4.10814298999417        1.36098855130641
C           -3.42152583608174       -1.50186419867465        1.37835260638526
C           -2.88796472751899       -0.22033998635750        1.31345018160628
C           -2.16357344630673        2.33402394965278       -1.16726144089935
C           -1.28608097747153        1.18508590772684       -1.70659542735854
C           -0.00645992734148        1.03180982250071       -0.99721293876311
N            0.52248973522436       -0.15638629939167       -0.50669495122428
C            1.93149514699018       -0.10167088672884       -0.17607775310422
C            2.90734104861556       -0.52403369011258       -1.30975166483995
C            4.33599887475956       -0.41380887908500       -0.85291931553379