25
 energy: 105.260942666806 xtb: 6.6.1 (8d0f1dd)
C            3.28839704247967        1.17966933217576        0.04597661317121
N            2.31947870398687        0.10631529269061        0.03349033821667
C            2.66507565789763       -1.17068850588094        0.02194374719830
N            1.56821228202361       -1.94397383890132        0.04411063350648
C            0.41750900590537       -1.10721189220545        0.09728077133599
C            0.96025796742332        0.21352204032934        0.08778743845235
C            0.18067280156658        1.45481277639367        0.09113758006717
O            0.73262183813062        2.56514325266009        0.04828191467945
N           -1.13143296978892        1.20777543908640        0.10486581223546
C           -2.06625100757591        2.26815219689854        0.18986463283968
C           -3.18790393347041       -0.65913718460288       -1.60274463911782
O           -4.15992454868367       -0.17015961120357       -1.33029640157494
N           -0.79526458432960       -1.45056716975324        0.23752644249126
C           -1.32048609000801       -2.76471280276630        0.21326356945727
H            3.78534144277068        1.24198944051084        1.01719373242543
H            4.05092820399095        1.01376763551749       -0.72051964460798
H            2.76229661630686        2.11766853178872       -0.13553029229177
H            3.67991301593704       -1.53158427794373        0.00055639692932
H           -1.55469624231103        3.22489477551887        0.26915970312599
H           -2.72227411571786        2.26843833865526       -0.68766963208181
H           -2.69325842174611        2.09767097941843        1.06950522006638
H           -0.70562673320221       -3.45235399820499        0.79224936933830
H           -1.41577626780929       -3.15419772129885       -0.80489149725409
H           -2.28590307824164       -2.69664445496331        0.69260830709080
H            1.58825645957657       -2.95092592668000        0.05228452748245
