25
 energy: 106.741454220003 xtb: 6.6.1 (8d0f1dd)
C            3.31318160827241        1.15672240414290        0.09831052479819
N            2.35903838304412        0.07237442907124        0.07254735335453
C            2.70189867439692       -1.20219129012342        0.05895667088467
N            1.60481232690967       -1.97171069055030        0.06507472198049
C            0.45207193062793       -1.14028287987564        0.07778033364061
C            0.99041546725563        0.18631584761314        0.08806750468936
C            0.20716219095322        1.41500266420282        0.05678725869928
O            0.73244125738111        2.53294588695549       -0.07236169051130
N           -1.11271385531565        1.14109362416669        0.17665822858289
C           -2.03206891102229        2.22533388812853        0.17620554194427
C           -3.83531604684353        0.47557721776306       -1.29714785469951
O           -4.15513503699089       -0.56243637245883       -0.98191141282567
N           -0.77311112008031       -1.47273291344170        0.09593023723183
C           -1.27788423217341       -2.80407709905124        0.05047844700400
H            3.80720728152080        1.20669442804473        1.07260755016796
H            4.07157882068283        1.02617955344095       -0.67603356510086
H            2.77931149640643        2.09416968055400       -0.06864596669160
H            3.72044315998293       -1.54549468928816        0.06267876701355
H           -1.68524744041238        3.11629326382827       -0.38359475376484
H           -2.99982295026874        1.94472154878759       -0.29411641282005
H           -2.17520821102089        2.50625612259474        1.23136491959412
H           -0.94381893060855       -3.39641065619835        0.90773574005035
H           -1.00786008467249       -3.34380344593253       -0.86524729048372
H           -2.35947794640150       -2.70754136367185        0.08952151606101
H            1.61906756041809       -2.97718380706643        0.05367042121834
