25
 energy: 0.000000000000 xtb: 6.6.1 (8d0f1dd)
C            3.23720132972391        1.16630909158653        0.08434468864950
N            2.29877796055224        0.07527476373246        0.03981602671198
C            2.58028186251803       -1.21425391179017        0.03006175752192
N            1.43813944744728       -1.93419254010258        0.00098261751768
C            0.39035684826767       -1.05887462812143       -0.00790371763344
C            0.93510047688824        0.21347817468824        0.01709077332874
C            0.09450143016486        1.40504290868848       -0.00410946993748
O            0.49712746915594        2.54126690785742       -0.00342325656480
N           -1.25076628431515        1.06271869620815       -0.03085477937476
C           -2.21907191394203        2.15522079838987       -0.05001256521996
C           -1.81739470187490       -0.20012724136556       -0.04692818139228
O           -2.99983858926755       -0.37846413507442       -0.07008877579474
N           -0.92618577614240       -1.30210203518959       -0.03682761236648
C           -1.46982251276835       -2.64643077634382       -0.06029819901142
H            3.71247229913541        1.21471443890471        1.06488839270555
H            4.00791460421487        1.03430799217987       -0.67357688121503
H            2.69909982127087        2.09770098766290       -0.09130154035862
H            3.56654087521359       -1.63682977417947        0.04233139674524
H           -1.67107945562430        3.09322822573871       -0.02552706696334
H           -2.82428927394145        2.09428605349656       -0.95318074103337
H           -2.87644002486466        2.07745706351925        0.81450059976605
H           -1.17061985538665       -3.19584861009707        0.83242224714061
H           -1.14560246782873       -3.17511580834413       -0.95688266944647
H           -2.55549768731684       -2.55659960601237       -0.07459039105944
H            1.38130842369251       -2.94313824728853       -0.01389874052104
25
 energy: -4.721313835389 xtb: 6.6.1 (8d0f1dd)
C            3.20496741969576        1.26246935301514        0.09523847852462
N            2.34723047545587        0.09802370545095        0.03234622621188
C            2.62099973001989       -1.26817561972817        0.03429421876545
N            1.42041001783295       -1.96369280298043        0.00429789828616
C            0.40783055586463       -1.08426509473361       -0.01259356644986
C            0.95109838715608        0.18948515909819        0.00475889367313
C            0.13917534918427        1.33343366043362       -0.02040472569012
O            0.52716940012053        2.50264189058379       -0.04933919074138
N           -1.25612963924857        1.01805462931955       -0.03287796526453
C           -2.17843045868383        2.13692912496895       -0.04632566614204
C           -1.82207935252744       -0.21681822183471       -0.04942651027469
O           -3.02313723795734       -0.40308926504855       -0.07152007092893
N           -0.93948200280430       -1.31489444101633       -0.03991024040278
C           -1.50445480122002       -2.64194031275278       -0.06258797898159
H            3.72208194052114        1.36304600674181        1.05949494539358
H            3.98005483391391        1.23910732499281       -0.68319697617435
H            2.56719634861308        2.13808971152320       -0.04262582811874
H            3.58363602150697       -1.71742112943196        0.04532770892473
H           -1.59968555553592        3.05482000355641       -0.02921521804358
H           -2.77808247779869        2.11019299551748       -0.94980771417645
H           -2.80435115024522        2.10574218252180        0.83829395119716
H           -1.23038350021881       -3.20684106126756        0.83038274455722
H           -1.19386509094153       -3.18355430761869       -0.95851077481780
H           -2.58677750062603       -2.51497644305087       -0.07672630931135
H            1.31019274651284       -2.96306240879012       -0.00827642346706
25
 energy: 1.135214144251 xtb: 6.6.1 (8d0f1dd)
C            3.13994079352563        1.33595840119704        0.10302417157237
N            2.38680447426225        0.07370948783260        0.04920459748861
C            2.64844657301782       -1.30831020303570        0.04131061990032
N            1.44206581447420       -2.01068635066635        0.01085020159224
C            0.42664623205143       -1.13022387113978       -0.01168282348362
C            0.98185732753012        0.13714130988767        0.00127257785479
C            0.16867782869490        1.27418227269580       -0.04835552350166
O            0.55089983956210        2.44046635429344       -0.13851667048397
N           -1.23370035334575        0.98427765247719       -0.03821110897869
C           -2.12789951266393        2.12698598087767       -0.04404073661271
C           -1.80610216336853       -0.24192004356708       -0.05308458602308
O           -3.00523483834675       -0.42721895043660       -0.07675100924582
N           -0.92748966978947       -1.34512063368875       -0.04168343887762
C           -1.53667598659328       -2.65321925695452       -0.06376865172624
H            3.67864353442815        1.50481751272633        1.04807894659559
H            3.90029661268754        1.42590646509819       -0.69433291595658
H            2.41671732758658        2.14619998282367       -0.00217082212512
H            3.59390921263240       -1.79221301376690        0.04820063198082
H           -1.52635151701098        3.02656763101352       -0.03513737810454
H           -2.72760662027453        2.13136194454651       -0.94329481123651
H           -2.72456552844674        2.13521991451816        0.85683079211286
H           -1.29229611494356       -3.23079650212149        0.82912385216775
H           -1.24646465920680       -3.20336594314097       -0.96029426011453
H           -2.61441990821799       -2.48033162293549       -0.07666129211484
H            1.31428106852698       -3.01468980410152        0.00747779953310
25
 energy: 10.054886130262 xtb: 6.6.1 (8d0f1dd)
C            3.07343303740546        1.41484362654439        0.11269112131268
N            2.41960792919185        0.06691038263758        0.06972080976315
C            2.68465104238288       -1.33073946012003        0.05363431894546
N            1.47942961165584       -2.04009671046775        0.01846874498231
C            0.44864029353091       -1.17093845750191       -0.01013657699371
C            1.01128121374739        0.09571743328355       -0.00232771092419
C            0.19269695678322        1.22641943623145       -0.09383376526317
O            0.56246734303390        2.39116013963969       -0.26056127851961
N           -1.20446664984814        0.95857288866170       -0.04537800185547
C           -2.07645159645027        2.12171867480725       -0.04044857411858
C           -1.78267299930849       -0.26009197327305       -0.05681451485921
O           -2.98160876024959       -0.42430231127658       -0.07827513408325
N           -0.91404924761259       -1.37409433996435       -0.04425123053289
C           -1.56835643979706       -2.66360147650868       -0.06644987961325
H            3.62258449876413        1.64542022462190        1.03686219860849
H            3.79902473818040        1.60073521772113       -0.70668815729929
H            2.27674386801062        2.15567253256829        0.03809113618577
H            3.60859386946801       -1.85734702711486        0.05494854576927
H           -1.45325543765707        3.00310994205540       -0.04041233856739
H           -2.67614619816476        2.15447976104541       -0.93430345103632
H           -2.64245612647332        2.16228763762793        0.87639195267206
H           -1.35347549984657       -3.25431337309442        0.82542229347962
H           -1.29669208019681       -3.22274875292432       -0.96274315114065
H           -2.64107395583273       -2.44741080442923       -0.07860866003981
H            1.38460112248258       -3.04975621609134        0.01723021706062
25
 energy: 21.551099347194 xtb: 6.6.1 (8d0f1dd)
C            3.01916986275050        1.49541093638891        0.14284567641611
N            2.42219941304410        0.06640439240684        0.03794799160470
C            2.71240876121089       -1.33687189899560        0.08494665276791
N            1.51334161333129       -2.06586235041980        0.03359477334314
C            0.46439512870526       -1.21027389248539       -0.01619821115279
C            1.02746595569095        0.05877040250238       -0.03310566953194
C            0.21251868564833        1.18666533391181       -0.15534638268093
O            0.56901330686307        2.34824166310381       -0.39674192454342
N           -1.17526384114311        0.93784904561714       -0.05465817421283
C           -2.02458758200272        2.11936510357942       -0.03260741962153
C           -1.76232969678245       -0.27359292275734       -0.05776377797029
O           -2.96342465096978       -0.40908829429319       -0.06347565217355
N           -0.90539811006029       -1.40162446803126       -0.04876817864199
C           -1.60082401330857       -2.67332452666202       -0.07028277415988
H            3.57083717439002        1.77073987662708        1.03544546009837
H            3.67338942859963        1.76012521831689       -0.71011211683905
H            2.15973005317054        2.16520048279462        0.11655840730407
H            3.61583596938034       -1.90826143738208        0.07613548142971
H           -1.38136174396310        2.98448496067359       -0.04823982695152
H           -2.62969941382858        2.17300056427466       -0.91526919113990
H           -2.55324226012003        2.18260104690900        0.90204900951330
H           -1.41219840863926       -3.27708009603554        0.81926176255031
H           -1.34636684925059       -3.24061212869035       -0.96642243262285
H           -2.66808340691763       -2.41765411663721       -0.08048827668577
H            1.45244595741369       -3.08115664591599        0.04343370656700
25
 energy: 35.024778404571 xtb: 6.6.1 (8d0f1dd)
C            2.97238760392022        1.57084391062762        0.20471585120085
N            2.42685054249309        0.06699738887947       -0.00744607137966
C            2.72752265373818       -1.33070671981495        0.14525612678513
N            1.54108554473288       -2.08221396882975        0.06798075625632
C            0.47792222517570       -1.24266066606584       -0.02432490433635
C            1.03653321314992        0.02955753841704       -0.08409851836793
C            0.22973235371275        1.15727247366886       -0.23561333078249
O            0.58436896879322        2.30625173795124       -0.53752686045691
N           -1.14664164960681        0.92476451585782       -0.06827664668983
C           -1.97688769543675        2.11746804953768       -0.01985312058494
C           -1.74449751837213       -0.28361226138154       -0.05400727154430
O           -2.94885258497007       -0.39499387184748       -0.02178650493732
N           -0.89793035557651       -1.42521190257201       -0.05314923142066
C           -1.63301610836718       -2.68086074601051       -0.07397200967846
H            3.58626804275065        1.90993756761956        1.03103936730462
H            3.52626758778685        1.90433340310287       -0.70528616422368
H            2.06990731621999        2.17133858616745        0.24815015057475
H            3.61584491324916       -1.93725430794891        0.12171495143598
H           -1.31533075297985        2.96651393187048       -0.05917259911386
H           -2.61040728383575        2.17777428767532       -0.87381101930019
H           -2.46228412398450        2.19767486369540        0.93573069882182
H           -1.47174763476508       -3.29618611426651        0.81318942782925
H           -1.39630986823847       -3.25564784466224       -0.97017604146232
H           -2.69362971786211       -2.38477540052973       -0.08045776269443
H            1.52622631912657       -3.09973509601531        0.07106624198156
25
 energy: 48.631621246295 xtb: 6.6.1 (8d0f1dd)
C            2.95955058491321        1.68154466691031        0.29186463922374
N            2.41506045726055        0.00966912572371       -0.10518440922726
C            2.69862480465100       -1.32139032630198        0.17159701778530
N            1.53383798817196       -2.09814063384066        0.13651138804500
C            0.47050552235129       -1.27256270814071       -0.03011881771496
C            1.03034588165507       -0.00317006464628       -0.15208592931385
C            0.24210786911012        1.13712532853841       -0.32992390156518
O            0.60943996177447        2.25904546427724       -0.67416877872072
N           -1.12315145779728        0.90673829633293       -0.08999147213267
C           -1.93271189076612        2.11245014269705       -0.00417578111025
C           -1.73334873777870       -0.29835143618036       -0.05132525767629
O           -2.93868130382768       -0.38634773463557        0.02441649479205
N           -0.90462207821472       -1.45032342325113       -0.05747060543916
C           -1.67062253800095       -2.69012228433024       -0.07957132962062
H            3.69067021616818        2.01327446814284        1.01691610329557
H            3.38201691246912        2.05786225421327       -0.68315732003273
H            2.03533231423050        2.18938318396286        0.43146484797490
H            3.62050209895867       -1.87568116723625        0.16442568523304
H           -1.25264704215227        2.94493565988938       -0.07765649119467
H           -2.62658264438985        2.16939018143117       -0.80777671061595
H           -2.36045650476594        2.20733403361139        0.97898124160296
H           -1.53461803526245       -3.31744057314833        0.80326667072958
H           -1.44633460305545       -3.26921986218165       -0.97638937376785
H           -2.72284402965735       -2.35712515050233       -0.08339349735772
H            1.57020284423253       -3.11156866278116        0.13482440480032
25
 energy: 48.782238856318 xtb: 6.6.1 (8d0f1dd)
C            2.95652538408502        1.79309096004835        0.35202404491274
N            2.39373465214108       -0.07135842957037       -0.18415282640423
C            2.66478827516111       -1.34031779458967        0.13180305627853
N            1.51338879721605       -2.11957822842803        0.18131661550169
C            0.45566790346494       -1.29995825371912       -0.04106070215381
C            1.02396373183506       -0.04179600431654       -0.22196983354314
C            0.25783687183275        1.12013126399963       -0.41749728179319
O            0.63924837693157        2.21094676550657       -0.80051147834859
N           -1.09523739851944        0.89485272604261       -0.11503728657475
C           -1.89204904800308        2.11107388150815        0.00722972968516
C           -1.72107528788888       -0.30797693934151       -0.04943520723005
O           -2.92474654617291       -0.37619114733231        0.06691790104299
N           -0.91365229188541       -1.47231375902682       -0.06384102584672
C           -1.70947453955999       -2.69394150966569       -0.08303389184321
H            3.79860420947747        1.97850653573039        0.98170497626325
H            3.23152224169149        2.20458839968761       -0.65574613729514
H            2.02514465166288        2.21079785173882        0.62368062005879
H            3.62457378324160       -1.82762337399921        0.18811304063404
H           -1.19652496025200        2.92886707351521       -0.09171617652719
H           -2.64228117945019        2.16602479479689       -0.74584645843062
H           -2.26505248498601        2.20607310455447        1.01735060866220
H           -1.59508049444570       -3.32870652536291        0.79743193598261
H           -1.49843350119580       -3.27998790877899       -0.97884308295218
H           -2.75213335022767       -2.32536233966451       -0.08249076097246
H            1.55637667349897       -3.12508449038435        0.22090262279278
25
 energy: 45.782789225867 xtb: 6.6.1 (8d0f1dd)
C            2.93384322657920        1.86660141727716        0.41110221498518
N            2.37924474761993       -0.11538042057764       -0.23078940952985
C            2.64160587681064       -1.35824343327499        0.10386494226742
N            1.49090697954623       -2.13061861114763        0.18979790868951
C            0.44079980065335       -1.31407699392429       -0.06684849622997
C            1.01910120174431       -0.06565548678553       -0.28875718096393
C            0.26891927413698        1.10610893059976       -0.50017520670895
O            0.66331701077146        2.17344609064398       -0.91934309376771
N           -1.07390767749601        0.88750474078861       -0.15130966350948
C           -1.85471855850008        2.11084040698649        0.01873041460760
C           -1.70929613112119       -0.31286257836670       -0.05337839437223
O           -2.90950155005956       -0.35964800520284        0.10778452029359
N           -0.92396262771458       -1.48980055428057       -0.07695179754688
C           -1.74812054926811       -2.69523480200270       -0.08969032559265
H            3.84617371762735        1.84577846373369        0.95702092558720
H            3.07160423213098        2.27870964236174       -0.60002582143193
H            2.01987967555294        2.21564212350397        0.79176542263448
H            3.62642334888177       -1.77415088217914        0.22015913323108
H           -1.15040823699374        2.91981384003498       -0.11277029061685
H           -2.65817307360532        2.16566359160003       -0.67877548347124
H           -2.17176635017510        2.19610680289202        1.05503000233821
H           -1.65709299592314       -3.33904965734419        0.78705133537562
H           -1.55165889250799       -3.28918774015463       -0.98358420998196
H           -2.78185384383072       -2.29332996117081       -0.08250874645003
H            1.50397680997346       -3.12978399925099        0.28075770070255
25
 energy: 44.746446389661 xtb: 6.6.1 (8d0f1dd)
C            2.91500363826973        1.98917413985142        0.47818121242391
N            2.37478104916374       -0.17179400832685       -0.27280246348086
C            2.61632832491876       -1.40026692157890        0.07238224642264
N            1.45953369372254       -2.15408622750444        0.17019606030200
C            0.42653106101967       -1.31822084988134       -0.09869345679350
C            1.02195635825110       -0.08552839234638       -0.34758563808805
C            0.27520441577685        1.09203809262835       -0.57921207839209
O            0.67120945002732        2.13635876661798       -1.04202598318952
N           -1.06027889339353        0.88152316031786       -0.19194987105726
C           -1.81794344696956        2.10647700234276        0.02916719950902
C           -1.70100166390782       -0.31866368701848       -0.05549021141883
O           -2.89552131251769       -0.34392245524775        0.15016465727580
N           -0.93541497588910       -1.50329556412461       -0.09337896806413
C           -1.77730019342264       -2.69873827361437       -0.09662276151838
H            3.84493868101690        1.85633789434950        0.95870279063182
H            2.89730971300062        2.29292649656873       -0.55804914899672
H            2.01298842368909        2.20309498379684        0.95052731059108
H            3.60326396273067       -1.79890881172687        0.21800080759599
H           -1.10062467895923        2.90089043132040       -0.13495296808084
H           -2.66998089437501        2.16842831508594       -0.61016349547232
H           -2.07610884116435        2.18224417356616        1.08887393598148
H           -1.71074549206784       -3.35297624091426        0.77281754204433
H           -1.60475489826961       -3.29628823089627       -0.99180037904390
H           -2.79458985129519       -2.27605352450735       -0.06245145358170
H            1.43332052652740       -3.14527092026974        0.31689054071433
25
 energy: 43.578941739540 xtb: 6.6.1 (8d0f1dd)
C            2.91483061521478        2.16027353037537        0.56523502326648
N            2.37255714196792       -0.23671744589251       -0.31960932044598
C            2.58895433324279       -1.45690492373338        0.03978887364832
N            1.42246861602516       -2.18865608210770        0.14152512618891
C            0.41020338472711       -1.32796618750110       -0.13234694361340
C            1.02406858905419       -0.11154069872392       -0.40671768948836
C            0.28015528102343        1.07676246439452       -0.65870353430577
O            0.67020139670513        2.10105996287584       -1.16671237188465
N           -1.04883726303348        0.88015403872319       -0.23321992877559
C           -1.78250576056969        2.10304754607266        0.04012550723079
C           -1.69806617058242       -0.31279791521910       -0.05871479404037
O           -2.88126026996884       -0.31947523534171        0.20120540272069
N           -0.95101860779296       -1.50996529902469       -0.11493967433639
C           -1.79606099176425       -2.70374744136856       -0.11148777320290
H            3.87452267296365        2.00463154055331        0.97236229807700
H            2.80177358253419        2.32610725523535       -0.47685570729756
H            2.02162787538555        2.16755496535390        1.09900201012516
H            3.56816274638363       -1.85763721384467        0.21473820678588
H           -1.05720777977682        2.88170308553237       -0.16598207606672
H           -2.67936596195301        2.17634506551546       -0.53961942054066
H           -1.97805663428835        2.16956352028158        1.11834479684718
H           -1.72382811208860       -3.37938916514194        0.73460766753614
H           -1.65312978362754       -3.29923648751226       -1.00980606844309
H           -2.79799144467316       -2.28497175633701       -0.03480845511220
H            1.35248107147141       -3.16753869183073        0.34813833215819
25
 energy: 41.487853942389 xtb: 6.6.1 (8d0f1dd)
C            2.91331822497473        2.34545900050167        0.63159162347406
N            2.37029767743959       -0.30313757211517       -0.36362901665235
C            2.56108041937200       -1.52064995323570        0.00836446553492
N            1.38222860582777       -2.23031747742463        0.10941741951940
C            0.39312627256719       -1.34313926311029       -0.16924639663140
C            1.02401307947994       -0.14288788683030       -0.46619587404169
C            0.27268266565126        1.05488213437206       -0.73727541572216
O            0.63862395848008        2.06064801694662       -1.29673259286214
N           -1.04521679249782        0.88111987478581       -0.27312953917589
C           -1.75547236287679        2.09970707403256        0.05475858305082
C           -1.69745477780640       -0.30110648281004       -0.05879638638490
O           -2.86751594366973       -0.29329641395857        0.25221696548085
N           -0.96635186075136       -1.50286661481609       -0.13936240650387
C           -1.80145258502233       -2.70617004582240       -0.12372392431323
H            3.90839663444838        2.21751126094272        0.97084568175766
H            2.70583636981633        2.47106778492830       -0.39757078711680
H            2.07841973673360        2.08836469750842        1.20801330537122
H            3.52655700744351       -1.93697726240899        0.20714717959082
H           -1.03146163431128        2.86479963434432       -0.20900181843769
H           -2.69222695397118        2.18055191655528       -0.46764665464612
H           -1.88460225576701        2.15491332721093        1.14898239356082
H           -1.66351687129646       -3.38141829059275        0.71486364219857
H           -1.69802252414345       -3.30253504343621       -1.02393155611299
H           -2.80172512690053       -2.31469985461932       -0.00630838600069
H            1.26902498334812       -3.19283797118824        0.37433896129819
25
 energy: 39.195239679310 xtb: 6.6.1 (8d0f1dd)
C            2.91253644769170        2.51289913019670        0.69555796938688
N            2.37387887973727       -0.37743665069611       -0.39933034457732
C            2.53674184389905       -1.59430246396883       -0.02046921713601
N            1.34395420433692       -2.28184397241649        0.07441456212845
C            0.37955016260223       -1.36749984188438       -0.20522869972965
C            1.03086787059051       -0.18677609453781       -0.51634841056277
C            0.29955198531080        1.03278605818140       -0.76088255281166
O            0.70082337685672        2.06307640691739       -1.24930628991650
N           -1.02467258119964        0.88423249470689       -0.28197535909748
C           -1.73117192482017        2.10188493522819        0.07412397328415
C           -1.69167969629464       -0.28681882543022       -0.05197403488966
O           -2.85106735677010       -0.26805354087322        0.29354601859289
N           -0.97490008598224       -1.49152165282105       -0.15388685925930
C           -1.78860218992512       -2.70150284593709       -0.12944525527189
H            3.94115427260081        2.43997167247968        0.96752331466065
H            2.60596166570899        2.70305645120635       -0.30266537740929
H            2.17923596883435        2.09220758940790        1.34032197871209
H            3.48497458144679       -2.03073511278270        0.19912634897604
H           -1.04700950454214        2.88239878944616       -0.24332346053114
H           -2.70434372748544        2.17517665398030       -0.39565337566586
H           -1.79525644336008        2.16285468632676        1.17531521842425
H           -1.60332425699080       -3.38176120148155        0.69483452429487
H           -1.74068221514533       -3.29905366395165       -1.03421299150545
H           -2.79662208598724       -2.34832431651781        0.02255968816126
H            1.18824500244477       -3.22517255103662        0.38916707963918
25
 energy: 38.788574244753 xtb: 6.6.1 (8d0f1dd)
C            2.92697124177341        2.68290854967851        0.71771093407768
N            2.37731565099968       -0.45288761549729       -0.42380012560791
C            2.51408598987433       -1.67066423197382       -0.04823702081088
N            1.30739611934537       -2.33556174301654        0.04135304362087
C            0.36642544967735       -1.39476393564799       -0.23357263983314
C            1.03929379644426       -0.23131954594909       -0.54654650432510
C            0.33528715517189        1.01357289345954       -0.73785944163958
O            0.75559092492007        2.07341055653155       -1.13688234988544
N           -0.99650675783108        0.88188146088497       -0.26751784744761
C           -1.70240079862550        2.10898390832666        0.08615668475685
C           -1.68510136892513       -0.27836627128696       -0.03474602644082
O           -2.84137309829352       -0.25209974311118        0.31797322291779
N           -0.98228105828040       -1.48577476388326       -0.16120293509649
C           -1.77647392004412       -2.69953469190157       -0.13432933286882
H            3.96508666615017        2.61954737829586        0.97575613014622
H            2.55449064474654        2.95264476946278       -0.24324109290620
H            2.24578684680662        2.14952027098636        1.33886898229335
H            3.44560605705300       -2.12607842616620        0.18834366459289
H           -1.07557980034346        2.91256937683707       -0.28656915478473
H           -2.70549388418139        2.17482834464745       -0.32724860621928
H           -1.68577513468475        2.21047185204085        1.17936235234193
H           -1.53968718446385       -3.38226370948104        0.67575211478007
H           -1.77887597934424       -3.29119333926977       -1.04649670528816
H           -2.79128734708115       -2.38864671249806        0.05038840825696
H            1.11302098902994       -3.25833019395836        0.39849364606983
25
 energy: 38.899280365174 xtb: 6.6.1 (8d0f1dd)
C            2.96249376471139        2.84023193245972        0.70706583945095
N            2.37827542627660       -0.52184659429784       -0.43061706691584
C            2.49221307746715       -1.74475684203769       -0.07395498228268
N            1.27272049560366       -2.38654384477448        0.00889138461348
C            0.35057710571147       -1.42102157065847       -0.24930120687046
C            1.04551924597357       -0.26704895950779       -0.53894238085925
C            0.36658873262731        1.00225246121687       -0.66541716326310
O            0.80225523414085        2.07643968122481       -1.00854571228569
N           -0.96662088817640        0.87375915397309       -0.23404372420156
C           -1.65994518066222        2.11891295040243        0.09504456627806
C           -1.68283962655544       -0.27698945444824       -0.02213643897887
O           -2.84787492009550       -0.24643953048963        0.29793560889615
N           -0.99655002965754       -1.48818634585974       -0.17011670642263
C           -1.76843791330939       -2.70770429916755       -0.14019462255871
H            3.99636348113074        2.78146278321063        0.99979109830586
H            2.57749307581128        3.16310322303940       -0.23537080400393
H            2.28656426641195        2.25502954349477        1.27023730364614
H            3.41071985021881       -2.21338706355106        0.17653507981623
H           -1.06453122985124        2.91553959126622       -0.34988489769678
H           -2.66837855396126        2.14994904127634       -0.28498002057241
H           -1.59424639154295        2.26835251162619        1.17389703817389
H           -1.47420458790728       -3.38981504461475        0.65127805409286
H           -1.81914436986679       -3.27786349110485       -1.06658250956239
H           -2.78670540447670       -2.43355812197828        0.07672534254877
H            1.04751928058101       -3.29896955756390        0.37719372230903
25