25
 energy: 0.000000000000 xtb: 6.6.1 (8d0f1dd)
C            3.23720163006194        1.16630919979326        0.08434469647475
N            2.29877817382611        0.07527477071623        0.03981603040599
C            2.58028210190900       -1.21425402444508        0.03006176031096
N            1.43813958087363       -1.93419271955128        0.00098261760884
C            0.39035688448383       -1.05887472636071       -0.00790371836672
C            0.93510056364412        0.21347819449412        0.01709077491437
C            0.09450143893243        1.40504303904423       -0.00410947031874
O            0.49712751527797        2.54126714362870       -0.00342325688240
N           -1.25076640035757        1.06271879480407       -0.03085478223738
C           -2.21907211982101        2.15522099834493       -0.05001256985998
C           -1.81739487048744       -0.20012725993278       -0.04692818574614
O           -2.99983886758376       -0.37846417018721       -0.07008878229737
N           -0.92618586207120       -1.30210215599479       -0.03682761578324
C           -1.46982264913417       -2.64643102187190       -0.06029820460571
H            3.71247264356769        1.21471455160235        1.06488849150277
H            4.00791497605742        1.03430808813993       -0.67357694370751
H            2.69910007168542        2.09770118228144       -0.09130154882931
H            3.56654120610678       -1.63682992603973        0.04233140067262
H           -1.67107961066214        3.09322851271934       -0.02552706933167
H           -2.82428953597071        2.09428624779827       -0.95318082946668
H           -2.87644029173232        2.07745725625962        0.81450067533302
H           -1.17061996399332       -3.19584890659852        0.83242232437030
H           -1.14560257411436       -3.17511610292205       -0.95688275822323
H           -2.55549792440841       -2.55659984320617       -0.07459039797972
H            1.38130855184625       -2.94313852034425       -0.01389874181052
25
 energy: -5.434568993317 xtb: 6.6.1 (8d0f1dd)
C            3.24185243554415        1.18316765940168        0.08694822866260
N            2.30947403528061        0.09394862362893        0.03818316795735
C            2.59958111702733       -1.23562670273658        0.03019842877099
N            1.42676208976798       -1.94340549073042        0.00072309854628
C            0.39609766260435       -1.05915837843051       -0.00833206423193
C            0.93131364508355        0.21908858225956        0.01542317607684
C            0.10400198200050        1.39270818114589       -0.00515425144107
O            0.50208404212878        2.55796840984547       -0.00430381368956
N           -1.25819013501670        1.04880203388555       -0.03112907050936
C           -2.21641769355802        2.14640355773675       -0.04976767922092
C           -1.82314665287686       -0.20163519535766       -0.04742697453057
O           -3.02002813787370       -0.38239371904805       -0.07061810038047
N           -0.93498307883055       -1.30286362014570       -0.03721192704640
C           -1.47546090228093       -2.64392597283114       -0.06040710538512
H            3.72139508688511        1.23819760922659        1.06810708126144
H            4.01144401175375        1.05780758182946       -0.67621480961023
H            2.69215841035943        2.10614492001281       -0.08821469494266
H            3.57666146809418       -1.66439415826596        0.04261814320040
H           -1.65284995636403        3.07649472450969       -0.02576350446742
H           -2.82210812285566        2.09368193041277       -0.95397038406302
H           -2.87349480357818        2.07756738283436        0.81652993186103
H           -1.17328931300076       -3.19591934200286        0.83161811562360
H           -1.14853191040845       -3.17526466983772       -0.95634196115960
H           -2.56067383232248       -2.55102510432744       -0.07456682058884
H            1.35856322037281       -2.94734024084346       -0.01389231454609
25
 energy: -6.321639494966 xtb: 6.6.1 (8d0f1dd)
C            3.24246791124120        1.20704396011348        0.09049204449724
N            2.32383278693109        0.10423983345445        0.03579559156583
C            2.61483719349974       -1.25959899308242        0.03108964215611
N            1.41249313999649       -1.94934256428137        0.00094531037285
C            0.40095019082338       -1.06077969791256       -0.00933967092718
C            0.93211232655435        0.22044660916999        0.01267809295448
C            0.11734281486203        1.37113424810886       -0.00787830280304
O            0.49746412676562        2.55481410748365       -0.00745055980219
N           -1.26413363967783        1.02937176793522       -0.03212212688501
C           -2.20487947926959        2.13536596995959       -0.04919307015910
C           -1.82599336932557       -0.20697204727203       -0.04839138072217
O           -3.02942931951454       -0.39065128965821       -0.07133099342898
N           -0.94306162801482       -1.30392461406189       -0.03807124755762
C           -1.48572361712337       -2.64034737390949       -0.06077128503707
H            3.73292156671995        1.28752102718006        1.06813673968052
H            4.01365988783036        1.11633398983643       -0.67948249161722
H            2.66993738239190        2.11882051689774       -0.07822523754906
H            3.58096076417587       -1.70533564574314        0.04363501938516
H           -1.60999232561415        3.04729081793940       -0.02676318252022
H           -2.81263286778466        2.09525617114642       -0.95340563019445
H           -2.86065805160292        2.08112587533652        0.81994285235957
H           -1.18519857278711       -3.19699591653948        0.83030264324601
H           -1.16117064933283       -3.17659373145123       -0.95605219822030
H           -2.57067063557081       -2.53839132065566       -0.07446901425885
H            1.32677873176242       -2.95080309782229       -0.01303764838803
25
 energy: -3.316452337701 xtb: 6.6.1 (8d0f1dd)
C            3.22776076801234        1.25013222895258        0.09528336561433
N            2.34655858808504        0.10553604964933        0.03357415345617
C            2.63199953688480       -1.29371112024654        0.03356869013690
N            1.40059117779263       -1.96171953636203        0.00241200011662
C            0.40804741070206       -1.07141754013093       -0.01108622680021
C            0.94154688827769        0.21083855801554        0.00877019121572
C            0.13807995323915        1.33971166635869       -0.01398306339239
O            0.49119905631425        2.53862730461189       -0.01569771696074
N           -1.26379097128688        1.00068980913380       -0.03489137061373
C           -2.17283688755316        2.12343845343720       -0.04806437444076
C           -1.82540592515794       -0.22103390325500       -0.05050697208419
O           -3.03320907074421       -0.40729547673782       -0.07278604003931
N           -0.94791272610246       -1.31223481225112       -0.03997924635203
C           -1.50646802399788       -2.63913956080722       -0.06175634408482
H            3.73738909181749        1.37944082173273        1.06355646572404
H            4.00091203980842        1.24088106981710       -0.68758777541125
H            2.60243085851612        2.13713595043548       -0.05410526596521
H            3.58225422643507       -1.77132095761849        0.04629879911492
H           -1.52301064457672        3.00180646851332       -0.03022159134476
H           -2.78541918699462        2.10426856024292       -0.95021788602579
H           -2.82324081418724        2.09498965948806        0.82720688833241
H           -1.21750783906344       -3.20360571885667        0.82893719316508
H           -1.19525640425974       -3.18383091984241       -0.95746586574393
H           -2.59052208413894       -2.51181458640323       -0.07417819887748
H            1.28802565011436       -2.96134386570516       -0.01004591259230
25
 energy: 1.066181212506 xtb: 6.6.1 (8d0f1dd)
C            3.19804071737030        1.29307956450721        0.09901434292500
N            2.36416438390875        0.09961704288433        0.03357142150743
C            2.64685168713913       -1.31971058145560        0.03628238158205
N            1.40173363768579       -1.97901957394888        0.00464152746652
C            0.41555974099572       -1.08926828628474       -0.01250634475017
C            0.95347710090190        0.19214588035433        0.00595455884276
C            0.15729571314220        1.31402097197129       -0.02092957821821
O            0.49851848069216        2.51879991921741       -0.02571934388122
N           -1.25367228724283        0.97823836309735       -0.03853586140822
C           -2.13297115468272        2.11935587930795       -0.04696467356215
C           -1.82006929011519       -0.23545058541381       -0.05294264671287
O           -3.03054320400038       -0.41964360273716       -0.07428079040277
N           -0.94678443955902       -1.32677136100917       -0.04215639854825
C           -1.52918422305109       -2.64325195266928       -0.06300198605676
H            3.72344899575508        1.46398893100654        1.05700631840908
H            3.96642181551709        1.36786925588996       -0.69851011297684
H            2.51225872608295        2.14893926103749       -0.02630597149402
H            3.58503282075541       -1.82183912111447        0.04959857806793
H           -1.43871887226589        2.96876507127081       -0.03550405768058
H           -2.75091551532891        2.11897099737316       -0.94565218622821
H           -2.77471231446998        2.11533643282905        0.83575884075123
H           -1.25667721009444       -3.21588987397030        0.82791082163817
H           -1.23661282504129       -3.19677031274771       -0.95997589448675
H           -2.61148127334287       -2.48516041737243       -0.07381656217153
H            1.27175345718429       -2.97732329985123       -0.00590248646437
25
 energy: 7.262259892902 xtb: 6.6.1 (8d0f1dd)
C            3.15532464780203        1.34208995433912        0.10302834860389
N            2.38009647346368        0.09171928552640        0.03484083971057
C            2.66364892056896       -1.34360517506083        0.03958948810968
N            1.41014128601329       -2.00103149301412        0.00751495911012
C            0.42467818913541       -1.11404701902037       -0.01400745193717
C            0.96653885861386        0.16639029151356        0.00306386330718
C            0.17946919058302        1.28559787239395       -0.02952995533271
O            0.51724239680285        2.49310529680692       -0.03817756838534
N           -1.23664903917392        0.95631681309745       -0.04326277812947
C           -2.08360981450843        2.11908199887476       -0.04556653150291
C           -1.81033235119640       -0.25045486646093       -0.05592690873278
O           -3.02330699711408       -0.42839734000483       -0.07591338916737
N           -0.94329421292553       -1.34677137550622       -0.04492257316301
C           -1.55670433856361       -2.65089845725984       -0.06470868264486
H            3.69570504585510        1.55449933178265        1.04881711402769
H            3.91013059009988        1.50722890869326       -0.71151421843936
H            2.40225379329056        2.15878493607356        0.00629236236495
H            3.59090724437269       -1.86681226200050        0.05386699550338
H           -1.34897714485786        2.94008614711612       -0.04280691394771
H           -2.70808003548995        2.13851599468529       -0.93922401325361
H           -2.71276525485837        2.14152950843461        0.84661202877903
H           -1.30485609574361       -3.23369603984086        0.82615089528163
H           -1.28776590849363       -3.21511510275944       -0.96311702848634
H           -2.63613790948844       -2.45663809626126       -0.07340201779386
H            1.26855713374866       -2.99845050997639       -0.00066296773436
25
 energy: 15.014562838004 xtb: 6.6.1 (8d0f1dd)
C            3.10862442677523        1.39229256841015        0.10758023353182
N            2.39433634069508        0.08466356410511        0.03727047024353
C            2.68052851166366       -1.36304516946214        0.04354469382788
N            1.42360417904370       -2.02413984115090        0.01068449643208
C            0.43450127750919       -1.14205696105286       -0.01579014878581
C            0.97990470569081        0.13801451436127       -0.00020643887152
C            0.20107990870358        1.25718278859872       -0.03969176095957
O            0.53981560356107        2.46580276892691       -0.05270666776970
N           -1.21616725870008        0.93659190702144       -0.04886658701722
C           -2.03219243301002        2.12031247022658       -0.04365699251618
C           -1.79764491527994       -0.26461990411685       -0.05930994046192
O           -3.01262918651030       -0.43331234331518       -0.07745710633053
N           -0.93829268769871       -1.36942104591233       -0.04834180500382
C           -1.58696447251078       -2.66003907450804       -0.06697942063090
H            3.66161660935565        1.64370975869618        1.03986618511480
H            3.84022580582535        1.64090164916608       -0.72317326520895
H            2.29740633272360        2.16819525968645        0.03946513759654
H            3.59821434792054       -1.90432165222829        0.05898008027794
H           -1.26639191211214        2.91649856794119       -0.05169398896958
H           -2.66407510316813        2.15753876412521       -0.93063338692713
H           -2.64461615076024        2.16734770064956        0.85955746546999
H           -1.35794299954043       -3.25405168782067        0.82324687421550
H           -1.34494069256272       -3.23553669197154       -0.96687295349615
H           -2.66229345462870       -2.42795683466486       -0.07288331126624
H            1.27650788495090       -3.02152247353915        0.00510203365239
25
 energy: 24.364050783830 xtb: 6.6.1 (8d0f1dd)
C            3.06073867537136        1.44256375591114        0.11291673585558
N            2.40606121179695        0.07951044869705        0.04089921986050
C            2.69677204041450       -1.37682704576697        0.04829006120978
N            1.44157838526542       -2.04724526353445        0.01399689695166
C            0.44436889428601       -1.17281079358998       -0.01796595950616
C            0.99240436513002        0.10817157819251       -0.00400574218812
C            0.21965952959003        1.22839641060788       -0.05175395414806
O            0.55934210697448        2.43788011527565       -0.07010502629113
N           -1.19402320567570        0.91782522290866       -0.05533320731005
C           -1.97894921872744        2.12286381521989       -0.04079260936656
C           -1.78330541362818       -0.27899554842359       -0.06298520272752
O           -2.99979156229364       -0.43562578127978       -0.07864849573982
N           -0.93274125188459       -1.39494551286623       -0.05250600326603
C           -1.62002089944131       -2.67106378680666       -0.06998250760951
H            3.62174329423802        1.73257895792106        1.03169754595649
H            3.76130259334618        1.76427285325488       -0.73219471543591
H            2.20384837561531        2.17868026689444        0.07034231111767
H            3.60689590507367       -1.93220638985280        0.06483878760420
H           -1.18698098206414        2.89651347637416       -0.06168983694547
H           -2.61920560108628        2.17752664215491       -0.91961174923336
H           -2.57005911665692        2.19370459104350        0.87548679916201
H           -1.41567748518013       -3.27718695203965        0.81889012682649
H           -1.40797998541117       -3.25795268408259       -0.97141157546445
H           -2.68994646567008       -2.40085653169737       -0.07237261167200
H            1.29618047855375       -3.04574324234362        0.01103460850706
25
 energy: 30.896622979007 xtb: 6.6.1 (8d0f1dd)
C            3.00868619711953        1.49962103318014        0.11932144917575
N            2.42258919118118        0.06548525749160        0.05105294455621
C            2.69861618471957       -1.36197083699344        0.05703481236833
N            1.49224752005758       -2.07331432196324        0.01942963378808
C            0.45331747455633       -1.21580422404844       -0.02228431614720
C            1.02599620086321        0.06199050236821       -0.01058735790060
C            0.21789612995525        1.21357547979697       -0.07254766187852
O            0.56953351349472        2.40260250708155       -0.10276252377073
N           -1.15108475165445        0.91605459082390       -0.06627257929280
C           -1.91908266945167        2.13244879937244       -0.03512831967990
C           -1.75674583205166       -0.29516662555467       -0.06896973317813
O           -2.96392004147367       -0.42283470161150       -0.07955109001468
N           -0.90950782989242       -1.43612771148484       -0.06057146672964
C           -1.66562921621228       -2.69063092316402       -0.07556767918304
H            3.56216289901966        1.81987069867931        1.01007889284414
H            3.61625123734247        1.87819809386021       -0.72712051976117
H            2.16049870888387        2.18046314513081        0.11380887673808
H            3.60014139415681       -1.94480222979584        0.07379817161870
H           -1.15338535824127        2.89595709519912       -0.08074781400921
H           -2.56944306110314        2.19150290613168       -0.89555729068465
H           -2.46356958569086        2.21370164946058        0.89963393753744
H           -1.50261469058252       -3.30841103851281        0.81003554217626
H           -1.50664097121541       -3.28594210304595       -0.97946391590579
H           -2.72044850726334       -2.36835383375922       -0.07048536099657
H            1.36635053141863       -3.07908460647047        0.02045726447695
25
 energy: 48.497945660894 xtb: 6.6.1 (8d0f1dd)
C            2.98933063999151        1.55608568444555        0.13537954630729
N            2.45187364215305        0.06825056174204        0.06006963693094
C            2.72268786841775       -1.37459251844865        0.07013537287201
N            1.51326476974434       -2.09263536876045        0.02579945769135
C            0.46901383250995       -1.24681799511780       -0.02744438620075
C            1.04597467824667        0.03626920993259       -0.02113795231585
C            0.23835089097594        1.16763563913781       -0.10144756651879
O            0.56400384719956        2.37264298028028       -0.15460396523831
N           -1.12832507631984        0.88423100028070       -0.08004795274222
C           -1.86952265262901        2.11996874954515       -0.02841384176348
C           -1.73767575049741       -0.31423345486513       -0.07639437165283
O           -2.94914053438455       -0.42174278719613       -0.08041821023010
N           -0.90454358009697       -1.46608688408640       -0.07050884706916
C           -1.71736479582407       -2.69628134470072       -0.08269286625043
H            3.56243098553470        1.93269451294153        1.00314194667440
H            3.52223266149196        2.03686948357329       -0.74816792634337
H            2.08509320736574        2.18772070728554        0.18507249496834
H            3.60691986956208       -1.98637799283347        0.08834357554431
H           -1.07339271063341        2.86399384443948       -0.10907881333419
H           -2.54492237324146        2.19441695780217       -0.86875866668375
H           -2.36584886801597        2.22938736176210        0.93605402333893
H           -1.59282875435112       -3.33369368771995        0.79848165811794
H           -1.61061043691321       -3.30673752020313       -0.98926554037915
H           -2.76005682383266       -2.32038811240673       -0.06873166403853
H            1.39527013148249       -3.10155042465755        0.03166875446269
25
 energy: 66.579565402873 xtb: 6.6.1 (8d0f1dd)
C            2.98187147222567        1.61543640705205        0.15986299954719
N            2.47946762361365        0.06760519789626        0.07329291852818
C            2.73675386446775       -1.36987210744869        0.09100764378894
N            1.54278101805477       -2.10810075402918        0.03434569072136
C            0.47893864349547       -1.28090192392813       -0.03525319066958
C            1.06874379826176        0.00629190488431       -0.04062925903386
C            0.26042950022024        1.12179140014934       -0.15374414076401
O            0.58430545191304        2.32629058447099       -0.25817905282052
N           -1.09773745279439        0.86166825558770       -0.09821605661722
C           -1.83127335133384        2.10559715165150       -0.01359760882147
C           -1.71731323695892       -0.33047371701830       -0.08396341010694
O           -2.93102667071117       -0.40304493549102       -0.07535450010600
N           -0.90167432222669       -1.50201543448636       -0.08548664388512
C           -1.77564847081459       -2.70417816510278       -0.09448813010316
H            3.58486062071097        2.04497709287780        0.98876026304721
H            3.39584484422113        2.17638647989640       -0.74941331733002
H            2.04065484816691        2.18867028503835        0.28756494998985
H            3.60467571864608       -2.00742377449103        0.10838012059854
H           -1.02619993149512        2.84165842029054       -0.15064259411929
H           -2.54793882306595        2.18589756101114       -0.81852671876184
H           -2.25183866765298        2.23328817722643        0.98850100489587
H           -1.69215181607630       -3.35756538013479        0.77822713562782
H           -1.72954082047854       -3.31806617321448       -1.00314775984310
H           -2.79693928098267       -2.28167507942153       -0.06766064719434
H            1.45217010852979       -3.12321287109438        0.04539419957883
25
 energy: 76.571504156178 xtb: 6.6.1 (8d0f1dd)
C            2.98583252519189        1.66009689705208        0.19501177578514
N            2.49261936520782        0.06569177174801        0.08301375568186
C            2.74182724080693       -1.36318053699571        0.11303782075941
N            1.55846815024522       -2.11669373378551        0.04346094387070
C            0.48108359453803       -1.30437845004077       -0.04258700770760
C            1.07821713753631       -0.01306205269954       -0.06653768910013
C            0.27682897715923        1.09270373099333       -0.23398473642668
O            0.60823312428572        2.29082070199140       -0.42227396328327
N           -1.08052139408423        0.84601643380632       -0.11592073599162
C           -1.80965601353054        2.09253019183828        0.00874397000803
C           -1.70790415176712       -0.34190204403482       -0.08510473048327
O           -2.92333916325644       -0.38776896154335       -0.05641536137407
N           -0.90709676903122       -1.52713436337546       -0.09954884138884
C           -1.81702177213720       -2.70854632631266       -0.10804043442098
H            3.63640257143695        2.10893066530432        0.97907218555454
H            3.29259693619614        2.26338335233760       -0.73011703037616
H            2.03781909561691        2.19531180577923        0.40817187905270
H            3.60275966250417       -2.00834935095434        0.12777402048181
H           -1.00616367504000        2.82845344817120       -0.18508911556001
H           -2.57781566643029        2.16948740717552       -0.75170888728934
H           -2.15822019651607        2.22367116689312        1.03980488194087
H           -1.75591519622825       -3.37234244823081        0.75527094189929
H           -1.81378693394307       -3.31348436972029       -1.02058885689207
H           -2.82087613119365       -2.25523995357798       -0.06631262788370
H            1.49784335036875       -3.13598637964697        0.05790173929065
25
 energy: 79.677351252357 xtb: 6.6.1 (8d0f1dd)
C            2.96692624213895        1.70685063155318        0.23894893237001
N            2.48058800286451        0.05805661755564        0.08495061891528
C            2.73823821380664       -1.35415012913484        0.13956686085712
N            1.56635416917933       -2.12605512234474        0.05729147950246
C            0.47541961993749       -1.32813794532699       -0.05077152691569
C            1.07089506505265       -0.03422942466460       -0.10183812908993
C            0.29548966013694        1.07402392818726       -0.35131325407742
O            0.66622493062547        2.24266736476570       -0.64925440669462
N           -1.06558017146216        0.83908622657104       -0.13307190808376
C           -1.78269976846521        2.08854524310067        0.04195212434754
C           -1.70366637193630       -0.34824912898551       -0.08201593316883
O           -2.91990423184714       -0.37205003750534       -0.02115751289299
N           -0.91981758780055       -1.54816178302211       -0.11467759175451
C           -1.84507993879592       -2.71481045388525       -0.12458823691751
H            3.68826471490570        2.14279772587985        0.96608158726652
H            3.17431920066545        2.31185240053953       -0.68203640822207
H            2.03145715621170        2.20807732598528        0.54816501559366
H            3.60788516318699       -1.97826656299300        0.14756866590828
H           -0.99290460489223        2.82683309461117       -0.20507071588636
H           -2.60724068592392        2.16215267520914       -0.66361220649814
H           -2.06429844860115        2.20964269873402        1.08748967337695
H           -1.79019360000728       -3.38620291719330        0.72773908366871
H           -1.87045946127614       -3.29966447707691       -1.04276920395300
H           -2.83420490788225       -2.24422475050109       -0.06403210250930
H            1.54620230811430       -3.14735459788665        0.07348899100485
25
 energy: 73.739303883154 xtb: 6.6.1 (8d0f1dd)
C            2.94390422946025        1.73180658958898        0.28511244630684
N            2.44873517579572        0.04757238588296        0.06561217184458
C            2.72523109374710       -1.34511868644405        0.16321954238463
N            1.56090150617061       -2.12757266749269        0.07853473601452
C            0.46646598183959       -1.33569065066588       -0.06151244000894
C            1.05060682226184       -0.04192392952047       -0.14364525619270
C            0.29654034640086        1.07102806244350       -0.47889032162810
O            0.69670453589439        2.19586110226024       -0.85564726434789
N           -1.06226996089121        0.84053744648476       -0.15569431261082
C           -1.75983029848732        2.09107315774489        0.06916471486780
C           -1.70499055049073       -0.34706592522809       -0.08321956159862
O           -2.91906799449839       -0.36591152111201        0.01984280306462
N           -0.93143688510278       -1.55127287655858       -0.12843882617817
C           -1.84543002106345       -2.71388281916469       -0.13680217603654
H            3.75207208518891        2.10430267446154        0.94990727697784
H            3.06101100441755        2.32016117728541       -0.64306943662589
H            2.04219355257558        2.21068901456275        0.70622041978243
H            3.61873923971341       -1.92957193530334        0.16420787517358
H           -0.99464082121208        2.83314611092288       -0.21605674743838
H           -2.63292550144291        2.16360577550309       -0.57944165540383
H           -1.99096082177507        2.19478727955820        1.11959983470270
H           -1.77601315348934       -3.39068701975405        0.70617423177995
H           -1.88067186865279       -3.27712617280609       -1.06280627418223
H           -2.82862169309515       -2.24286467874672       -0.05396486441570
H            1.57596866467123       -3.14685329173036        0.09862697991559
25
 energy: 61.814959345819 xtb: 6.6.1 (8d0f1dd)
C            2.90053770186530        1.74055798506891        0.33055261120290
N            2.39502317073586        0.02774924739045       -0.00951736326682
C            2.70337320719568       -1.33869702054359        0.18049518150248
N            1.54252974124165       -2.12379969756782        0.11513613042914
C            0.45742717737623       -1.32772735042871       -0.07981424231337
C            1.02051353320960       -0.04052254130927       -0.20227418293933
C            0.28738356221306        1.08084127608021       -0.59495048379315
O            0.71455907083459        2.14041326271781       -1.01064761808305
N           -1.06329205436801        0.85511247532611       -0.18922356729232
C           -1.73920312999612        2.09980221828803        0.08696029116691
C           -1.70630557664890       -0.33356786782559       -0.09073931038596
O           -2.91485305283891       -0.36611354938456        0.06209855149294
N           -0.93743248774102       -1.53255912144013       -0.14101204844063
C           -1.81840260943735       -2.70361665392228       -0.14572287759960
H            3.79532897434089        2.00762322881181        0.92774466080490
H            2.95705917297952        2.28261282791784       -0.58998700881451
H            2.06139997695144        2.19833569940983        0.85190198865432
H            3.63992584676538       -1.85728075145251        0.18527392446612
H           -1.01774810935495        2.85007436222140       -0.22389045927223
H           -2.65755346376746        2.17352869802681       -0.49505004990458
H           -1.92665103919681        2.17967425581528        1.14460749878627
H           -1.71119348750017       -3.39059782185332        0.68818241809019
H           -1.84627642627905       -3.24792625492561       -1.08408014007556
H           -2.80873676979929       -2.24933471869554       -0.03545402168852
H            1.58480173915460       -3.13555358555338        0.14644401342071
25