25
 energy: 0.000000000000 xtb: 6.6.1 (8d0f1dd)
C            3.23720132972391        1.16630909158653        0.08434468864950
N            2.29877796055224        0.07527476373246        0.03981602671198
C            2.58028186251803       -1.21425391179017        0.03006175752192
N            1.43813944744728       -1.93419254010258        0.00098261751768
C            0.39035684826767       -1.05887462812143       -0.00790371763344
C            0.93510047688824        0.21347817468824        0.01709077332874
C            0.09450143016486        1.40504290868848       -0.00410946993748
O            0.49712746915594        2.54126690785742       -0.00342325656480
N           -1.25076628431515        1.06271869620815       -0.03085477937476
C           -2.21907191394203        2.15522079838987       -0.05001256521996
C           -1.81739470187490       -0.20012724136556       -0.04692818139228
O           -2.99983858926755       -0.37846413507442       -0.07008877579474
N           -0.92618577614240       -1.30210203518959       -0.03682761236648
C           -1.46982251276835       -2.64643077634382       -0.06029819901142
H            3.71247229913541        1.21471443890471        1.06488839270555
H            4.00791460421487        1.03430799217987       -0.67357688121503
H            2.69909982127087        2.09770098766290       -0.09130154035862
H            3.56654087521359       -1.63682977417947        0.04233139674524
H           -1.67107945562430        3.09322822573871       -0.02552706696334
H           -2.82428927394145        2.09428605349656       -0.95318074103337
H           -2.87644002486466        2.07745706351925        0.81450059976605
H           -1.17061985538665       -3.19584861009707        0.83242224714061
H           -1.14560246782873       -3.17511580834413       -0.95688266944647
H           -2.55549768731684       -2.55659960601237       -0.07459039105944
H            1.38130842369251       -2.94313824728853       -0.01389874052104
25
 energy: -5.434589521242 xtb: 6.6.1 (8d0f1dd)
C            3.24185213477463        1.18316754963087        0.08694822059580
N            2.30947382101441        0.09394861491265        0.03818316441483
C            2.59958087584585       -1.23562658809877        0.03019842596927
N            1.42676195739720       -1.94340531042698        0.00072309847919
C            0.39609762585558       -1.05915828016492       -0.00833206345891
C            0.93131355867901        0.21908856193317        0.01542317464592
C            0.10400197235150        1.39270805193453       -0.00515425096287
O            0.50208399554690        2.55796817252470       -0.00430381329026
N           -1.25819001828553        1.04880193658079       -0.03112906762130
C           -2.21641748792531        2.14640335859975       -0.04976767460362
C           -1.82314648373068       -0.20163517665054       -0.04742697013043
O           -3.02002785768438       -0.38239368357069       -0.07061809382873
N           -0.93498299208557       -1.30286349926985       -0.03721192359399
C           -1.47546076539201       -2.64392572753548       -0.06040709978073
H            3.72139474162504        1.23819749435026        1.06810698216561
H            4.01144363958379        1.05780748368919       -0.67621474687301
H            2.69215816058890        2.10614472461089       -0.08821468675836
H            3.57666113626206       -1.66439400384837        0.04261813924641
H           -1.65284980301748        3.07649443908157       -0.02576350207716
H           -2.82210786102878        2.09368173616713       -0.95397029555646
H           -2.87349453698380        2.07756719008378        0.81652985610579
H           -1.17328920414643       -3.19591904549488        0.83161803846852
H           -1.14853180385104       -3.17526437524602       -0.95634187243301
H           -2.56067359475070       -2.55102486765084       -0.07456681367075
H            1.35856309432932       -2.94733996739791       -0.01389231325720
25
 energy: -3.316489954043 xtb: 6.6.1 (8d0f1dd)
C            3.22776046855020        1.25013211296899        0.09528335677422
N            2.34655837037825        0.10553603985801        0.03357415034126
C            2.63199929269564       -1.29371100021983        0.03356868702250
N            1.40059104784991       -1.96171935435947        0.00241199989284
C            0.40804737284462       -1.07141744072797       -0.01108622577166
C            0.94154680092374        0.21083853845456        0.00877019040205
C            0.13807994042850        1.33971154206419       -0.01398306209508
O            0.49119901074225        2.53862706908553       -0.01569771550435
N           -1.26379085403608        1.00068971629275       -0.03489136737661
C           -2.17283668596375        2.12343825643083       -0.04806436998149
C           -1.82540575580215       -0.22103388274813       -0.05050696739830
O           -3.03320878933201       -0.40729543895015       -0.07278603328644
N           -0.94791263815791       -1.31223469050584       -0.03997924264287
C           -1.50646788423221       -2.63913931595562       -0.06175633835525
H            3.73738874507354        1.37944069375227        1.06355636705040
H            4.00091166861559        1.24088095469181       -0.68758771161888
H            2.60243061707025        2.13713575215830       -0.05410526094548
H            3.58225389408407       -1.77132079328055        0.04629879481945
H           -1.52301050327628        3.00180619001456       -0.03022158854089
H           -2.78541892857163        2.10426836501508       -0.95021779786737
H           -2.82324055225527        2.09498946512109        0.82720681158659
H           -1.21750772610665       -3.20360542163557        0.82893711625873
H           -1.19525629336737       -3.18383062445596       -0.95746577691307
H           -2.59052184379793       -2.51181435336447       -0.07417819199545
H            1.28802553061513       -2.96134359096040       -0.01004591166027
25
 energy: 1.066137756766 xtb: 6.6.1 (8d0f1dd)
C            3.19804042066550        1.29307944453910        0.09901433373874
N            2.36416416456854        0.09961703364215        0.03357141839277
C            2.64685144157203       -1.31971045901674        0.03628237821588
N            1.40173350763707       -1.97901939034127        0.00464152703589
C            0.41555970244131       -1.08926818522564       -0.01250634358987
C            0.95347701244110        0.19214586252760        0.00595455829031
C            0.15729569854877        1.31402085006029       -0.02092957627643
O            0.49851843444108        2.51879968553057       -0.02571934149506
N           -1.25367217093081        0.97823827233928       -0.03853585783298
C           -2.13297095679194        2.11935568268035       -0.04696466920491
C           -1.82006912125452       -0.23545056356940       -0.05294264180101
O           -3.03054292283551       -0.41964356380386       -0.07428078351122
N           -0.94678435171915       -1.32677123791523       -0.04215639463710
C           -1.52918408117788       -2.64325170743615       -0.06300198021162
H            3.72344865030445        1.46398879518196        1.05700622034315
H            3.96642144752416        1.36786912898308       -0.69851004817113
H            2.51225849300298        2.14893906166523       -0.02630596905343
H            3.58503248814662       -1.82183895208960        0.04959857346632
H           -1.43871873878579        2.96876479583753       -0.03550405438662
H           -2.75091526010707        2.11897080078127       -0.94565209849339
H           -2.77471205704034        2.11533623657437        0.83575876321199
H           -1.25667709350363       -3.21588957560951        0.82791074482704
H           -1.23661271031199       -3.19677001616078       -0.95997580542301
H           -2.61148103105733       -2.48516018680657       -0.07381655532305
H            1.27175333919475       -2.97732302362394       -0.00590248591675
25
 energy: 7.262211278121 xtb: 6.6.1 (8d0f1dd)
C            3.15532435506030        1.34208982982397        0.10302833904522
N            2.38009625264534        0.09171927701695        0.03484083647814
C            2.66364867344346       -1.34360505040510        0.03958948443668
N            1.41014115518453       -2.00103130736431        0.00751495841290
C            0.42467814973502       -1.11404691566237       -0.01400745063760
C            0.96653876894123        0.16639027607636        0.00306386302292
C            0.17946917393240        1.28559775311997       -0.02952995259301
O            0.51724234881462        2.49310506550395       -0.03817756484334
N           -1.23664892444126        0.95631672437319       -0.04326277411568
C           -2.08360962119725        2.11908180227257       -0.04556652727538
C           -1.81033218323910       -0.25045484322447       -0.05592690354405
O           -3.02330671662056       -0.42839730025939       -0.07591338212435
N           -0.94329412540947       -1.34677125055674       -0.04492256899523
C           -1.55670419413717       -2.65089821131729       -0.06470867664138
H            3.69570470297847        1.55449918756078        1.04881701672153
H            3.91013022732948        1.50722876885700       -0.71151415242717
H            2.40225357041653        2.15878473578785        0.00629236178116
H            3.59090691121889       -1.86681208880316        0.05386699050576
H           -1.34897701970373        2.94008587434359       -0.04280690997621
H           -2.70807978424226        2.13851579628008       -0.93922392611517
H           -2.71276500317600        2.14152930974981        0.84661195023286
H           -1.30485597468290       -3.23369573982807        0.82615081863378
H           -1.28776578901850       -3.21511480447053       -0.96311693913118
H           -2.63613766491533       -2.45663786834161       -0.07340201098384
H            1.26855701605567       -2.99845023178898       -0.00066296767285
25
 energy: 15.014510268099 xtb: 6.6.1 (8d0f1dd)
C            3.10862413836621        1.39229243923735        0.10758022355084
N            2.39433611855561        0.08466355625027        0.03727046678569
C            2.68052826297212       -1.36304504300282        0.04354468978793
N            1.42360404696590       -2.02413965335717        0.01068449544080
C            0.43450123719744       -1.14205685509618       -0.01579014732085
C            0.97990461477814        0.13801450155669       -0.00020643885237
C            0.20107989004798        1.25718267196100       -0.03969175727709
O            0.53981555347857        2.46580254015699       -0.05270666287973
N           -1.21616714586766        0.93659182012720       -0.04886658248352
C           -2.03219224446919        2.12031227351023       -0.04365698846581
C           -1.79764474849974       -0.26461987956619       -0.05930993495932
O           -3.01262890700744       -0.43331230311374       -0.07745709914429
N           -0.93829260064668       -1.36942091886148       -0.04834180051881
C           -1.58696432527689       -2.66003882771745       -0.06697941441675
H            3.66161626964165        1.64370960619763        1.03986608863908
H            3.84022544954051        1.64090149692806       -0.72317319811506
H            2.29740611957701        2.16819505852768        0.03946513393508
H            3.59821401408881       -1.90432147555094        0.05898007480594
H           -1.26639179462003        2.91649829735704       -0.05169398417356
H           -2.66407485600309        2.15753856395512       -0.93063330058571
H           -2.64461590540054        2.16734749956942        0.85955738572278
H           -1.35794287355448       -3.25405138591934        0.82324679783708
H           -1.34494056778308       -3.23553639178798       -0.96687286379253
H           -2.66229320762895       -2.42795660940618       -0.07288330450434
H            1.27650776652026       -3.02152219321119        0.00510203317904
25
 energy: 24.363995687315 xtb: 6.6.1 (8d0f1dd)
C            3.06073839140504        1.44256362207432        0.11291672537950
N            2.40606098856968        0.07951044132030        0.04089921606599
C            2.69677179021593       -1.37682691802901        0.04829005672957
N            1.44157825152002       -2.04724507359706        0.01399689565307
C            0.44436885305877       -1.17281068478005       -0.01796595783933
C            0.99240427305767        0.10817156815667       -0.00400574181648
C            0.21965950921067        1.22839629664088       -0.05175394934648
O            0.55934205508037        2.43787988909631       -0.07010501978699
N           -1.19402309489774        0.91782513775554       -0.05533320217640
C           -1.97894903512636        2.12286361826684       -0.04079260558194
C           -1.78330524817836       -0.27899552253920       -0.06298519688394
O           -2.99979128398181       -0.43562574086370       -0.07864848844304
N           -0.93274116534760       -1.39494538344729       -0.05250599839468
C           -1.62002074914054       -2.67106353899323       -0.06998250111674
H            3.62174295822334        1.73257879717749        1.03169745023863
H            3.76130224438360        1.76427268957084       -0.73219464750504
H            2.20384817114875        2.17868006476290        0.07034230459152
H            3.60689557043649       -1.93220621058838        0.06483878158865
H           -1.18698087193954        2.89651320764417       -0.06168983122207
H           -2.61920535808410        2.17752644013040       -0.91961166391449
H           -2.57005887821441        2.19370438751805        0.87548671793692
H           -1.41567735383774       -3.27718664799190        0.81889005085228
H           -1.40797985478293       -3.25795238181934       -0.97141148533975
H           -2.68994621610477       -2.40085630895297       -0.07237260495748
H            1.29618035829794       -3.04574295976853        0.01103460748330
25
 energy: 30.896581504438 xtb: 6.6.1 (8d0f1dd)
C            3.00868591798249        1.49962089404972        0.11932143810546
N            2.42258896642049        0.06548525141607        0.05105293981967
C            2.69861593434991       -1.36197071063380        0.05703480707681
N            1.49224738161125       -2.07331412960724        0.01942963198546
C            0.45331743249887       -1.21580411124971       -0.02228431407973
C            1.02599610567430        0.06199049661691       -0.01058735691834
C            0.21789610973949        1.21357536720501       -0.07254765514776
O            0.56953346065508        2.40260228417517       -0.10276251423673
N           -1.15108464486020        0.91605450583505       -0.06627257314423
C           -1.91908249140483        2.13244860153012       -0.03512831642080
C           -1.75674566906596       -0.29516659816998       -0.06896972677932
O           -2.96391976648990       -0.42283466238214       -0.07955108263416
N           -0.90950774551096       -1.43612757824514       -0.06057146111000
C           -1.66562906168011       -2.69063067353521       -0.07556767217209
H            3.56216256853268        1.81987052983707        1.01007879913200
H            3.61625090183733        1.87819791960652       -0.72712045230107
H            2.16049850843916        2.18046294283386        0.11380886617923
H            3.60014106014630       -1.94480204936282        0.07379816477192
H           -1.15338525123357        2.89595682652075       -0.08074780651767
H           -2.56944282271778        2.19150270281050       -0.89555720759748
H           -2.46356935712813        2.21370144407986        0.89963385407205
H           -1.50261455117435       -3.30841073156818        0.81003546702355
H           -1.50664083143370       -3.28594179818592       -0.97946382503401
H           -2.72044825486814       -2.36835361403033       -0.07048535445715
H            1.36635040465265       -3.07908432080207        0.02045726257899
25
 energy: 48.497894906010 xtb: 6.6.1 (8d0f1dd)
C            2.98933036265022        1.55608554007650        0.13537953374717
N            2.45187341467543        0.06825055540995        0.06006963135786
C            2.72268761581479       -1.37459239091800        0.07013536636506
N            1.51326462934809       -2.09263517461190        0.02579945529775
C            0.46901378899623       -1.24681787944170       -0.02744438365454
C            1.04597458120422        0.03626920656764       -0.02113795035473
C            0.23835086886245        1.16763553080801       -0.10144755710678
O            0.56400379487294        2.37264276015345       -0.15460395089461
N           -1.12832497163716        0.88423091824435       -0.08004794531561
C           -1.86952247918020        2.11996855286069       -0.02841383912733
C           -1.73767558928097       -0.31423342571148       -0.07639436456519
O           -2.94914026077198       -0.42174274806808       -0.08041820276914
N           -0.90454349617608       -1.46608674806718       -0.07050884052756
C           -1.71736463649202       -2.69628109454768       -0.08269285857843
H            3.56243065502285        1.93269433363183        1.00314185360584
H            3.52223233470959        2.03686929459854       -0.74816785693055
H            2.08509301391693        2.18772050431526        0.18507247779786
H            3.60691953492268       -1.98637780854317        0.08834356734805
H           -1.07339261104720        2.86399357872657       -0.10907880321418
H           -2.54492213713106        2.19441675421063       -0.86875858608288
H           -2.36584864851948        2.22938715492611        0.93605393649459
H           -1.59282860657316       -3.33369337842967        0.79848158403716
H           -1.61061028748552       -3.30673721341376       -0.98926544859801
H           -2.76005656776272       -2.32038789712796       -0.06873165766181
H            1.39527000203344       -3.10155013690484        0.03166875152456
25
 energy: 66.579510835505 xtb: 6.6.1 (8d0f1dd)
C            2.98187119557642        1.61543625717662        0.15986298471557
N            2.47946739357595        0.06760519162405        0.07329291172828
C            2.73675361055979       -1.36987198035599        0.09100763534552
N            1.54278087492009       -2.10810055844580        0.03434568753487
C            0.47893859906095       -1.28090180508982       -0.03525318739889
C            1.06874369910686        0.00629190430057       -0.04062925526440
C            0.26042947605836        1.12179129607284       -0.15374412650008
O            0.58430539770290        2.32629036864460       -0.25817902886743
N           -1.09773735094954        0.86166817564466       -0.09821604750502
C           -1.83127318143369        2.10559695630040       -0.01359760755992
C           -1.71731307763166       -0.33047368635792       -0.08396340231706
O           -2.93102639877915       -0.40304489809770       -0.07535449311483
N           -0.90167423857200       -1.50201529513379       -0.08548663595392
C           -1.77564830607515       -2.70417791421709       -0.09448812133683
H            3.58486028811816        2.04497690315085        0.98876017131295
H            3.39584452916465        2.17638627797767       -0.74941324780166
H            2.04065465884096        2.18867008197997        0.28756492331042
H            3.60467538421488       -2.00742358824817        0.10838011054335
H           -1.02619983628731        2.84165815664984       -0.15064258014311
H           -2.54793858667569        2.18589735821000       -0.81852664282134
H           -2.25183845873402        2.23328797002853        0.98850091318566
H           -1.69215165908344       -3.35756506862976        0.77822706342620
H           -1.72954066001684       -3.31806586537407       -1.00314766677401
H           -2.79693902149088       -2.28167486773444       -0.06766064091698
H            1.45216997380172       -3.12321258133189        0.04539419536729
25
 energy: 76.571442153769 xtb: 6.6.1 (8d0f1dd)
C            2.98583224817514        1.66009674303318        0.19501175769252
N            2.49261913394994        0.06569176565332        0.08301374798009
C            2.74182698642827       -1.36318041052383        0.11303781027209
N            1.55846800565514       -2.11669353740490        0.04346093983852
C            0.48108354990451       -1.30437832902438       -0.04258700375650
C            1.07821703750250       -0.01306205148768       -0.06653768292696
C            0.27682895147585        1.09270362961550       -0.23398471471827
O            0.60823306785564        2.29082048945580       -0.42227392410594
N           -1.08052129383664        0.84601635531541       -0.11592072523684
C           -1.80965584563599        2.09252999769949        0.00874396919679
C           -1.70790399331280       -0.34190201231416       -0.08510472258750
O           -2.92333889203764       -0.38776892556729       -0.05641535614002
N           -0.90709668487345       -1.52713422169243       -0.09954883215299
C           -1.81702160355927       -2.70854607502171       -0.10804042439731
H            3.63640223406223        2.10893046964394        0.97907209471911
H            3.29259663071869        2.26338314234756       -0.73011696263805
H            2.03781890655406        2.19531160210467        0.40817184118372
H            3.60275932825074       -2.00834916462560        0.12777400862731
H           -1.00616358169110        2.82845318575562       -0.18508909838799
H           -2.57781542726814        2.16948720589687       -0.75170881754800
H           -2.15821999628276        2.22367096058746        1.03980478547084
H           -1.75591503331961       -3.37234213535481        0.75527087182748
H           -1.81378676566526       -3.31348406230497       -1.02058876220484
H           -2.82087586948107       -2.25523974434346       -0.06631262173141
H            1.49784321140326       -3.13598608869939        0.05790173391870
25
 energy: 73.739236134066 xtb: 6.6.1 (8d0f1dd)
C            2.94390395633349        1.73180642891707        0.28511241985495
N            2.44873494860928        0.04757238146933        0.06561216575728
C            2.72523084090819       -1.34511856164790        0.16321952724160
N            1.56090136135477       -2.12757247010276        0.07853472872830
C            0.46646593856225       -1.33569052674444       -0.06151243430200
C            1.05060672478963       -0.04192392563089       -0.14364524286572
C            0.29654031888872        1.07102796307667       -0.47889027719807
O            0.69670447125620        2.19586089853471       -0.85564718496346
N           -1.06226986233693        0.84053736850217       -0.15569429816596
C           -1.75983013521545        2.09107296374128        0.06916470845090
C           -1.70499039230673       -0.34706589302834       -0.08321955387775
O           -2.91906772367586       -0.36591148716382        0.01984280122366
N           -0.93143679868681       -1.55127273263605       -0.12843881426199
C           -1.84542984984989       -2.71388256737864       -0.13680216334444
H            3.75207173708271        2.10430247923054        0.94990718884824
H            3.06101072042597        2.32016096202769       -0.64306937696380
H            2.04219336310688        2.21068880946153        0.70622035426138
H            3.61873890397744       -1.92957175628334        0.16420785993886
H           -0.99464072893223        2.83314584807193       -0.21605672739327
H           -2.63292525716784        2.16360557477012       -0.57944160164494
H           -1.99096063705959        2.19478707593230        1.11959973082953
H           -1.77601298871607       -3.39068670517610        0.70617416626318
H           -1.88067169416959       -3.27712586876398       -1.06280617557819
H           -2.82862143066396       -2.24286447066034       -0.05396485940900
H            1.57596851845750       -3.14685299977458        0.09862697076527
25
 energy: 61.814909950579 xtb: 6.6.1 (8d0f1dd)
C            2.90053743276196        1.74055782358507        0.33055258053520
N            2.39502294853266        0.02774924481596       -0.00951736238383
C            2.70337295638468       -1.33869689634322        0.18049516475667
N            1.54252959813028       -2.12379950052794        0.11513611974715
C            0.45742713493748       -1.32772722724608       -0.07981423490844
C            1.02051343852936       -0.04052253754971       -0.20227416417293
C            0.28738353555046        1.08084117580294       -0.59495042859540
O            0.71455900453990        2.14041306413657       -1.01064752431814
N           -1.06329195571890        0.85511239599129       -0.18922354973671
C           -1.73920296863798        2.09980202347456        0.08696028309899
C           -1.70630541834289       -0.33356783687815       -0.09073930196743
O           -2.91485278240743       -0.36611351541762        0.06209854573162
N           -0.93743240076879       -1.53255897925381       -0.14101203535795
C           -1.81840244073131       -2.70361640308869       -0.14572286407986
H            3.79532862222145        2.00762304255044        0.92774457473148
H            2.95705889863228        2.28261261614375       -0.58998695407725
H            2.06139978570082        2.19833549545472        0.85190190961736
H            3.63992550906378       -1.85728057913947        0.18527390727695
H           -1.01774801493128        2.85007409779990       -0.22389043850033
H           -2.65755321720748        2.17352849637322       -0.49505000397529
H           -1.92665086044780        2.17967405359152        1.14460739259296
H           -1.71119332874068       -3.39059750728364        0.68818235424265
H           -1.84627625498696       -3.24792595359258       -1.08408003949780
H           -2.80873650921297       -2.24933451000889       -0.03545401839920
H            1.58480159212136       -3.13555329464595        0.14644399983407
25
 energy: 54.436960332477 xtb: 6.6.1 (8d0f1dd)
C            2.88159285642246        1.74203656296772        0.39142959206476
N            2.36828441264622       -0.00222331083195       -0.09661547861631
C            2.68137836664047       -1.33840580406634        0.18880170777028
N            1.52334225599803       -2.12137580770299        0.15701383033454
C            0.45322530336908       -1.31775469181502       -0.09534742680127
C            1.01093602680118       -0.04334296024976       -0.25596911876245
C            0.27476442844875        1.08109117586291       -0.68243036012580
O            0.70439734097347        2.09496401370789       -1.20528012932128
N           -1.06032576060631        0.87154567257486       -0.23020425321543
C           -1.72753319794363        2.10528162181221        0.09691409101333
C           -1.70191228850257       -0.31521538472435       -0.09073640625880
O           -2.90404461807468       -0.35591015481004        0.10047495587509
N           -0.93546573449160       -1.50867465291798       -0.14881317415211
C           -1.79430998105692       -2.68815964677220       -0.15519973679753
H            3.85754081993925        1.89961300186896        0.91217584089261
H            2.83657144966299        2.31234083639756       -0.57720009622235
H            2.07373583471689        2.16121658973842        1.04891712992981
H            3.64814642571973       -1.81040846015806        0.20833624088336
H           -1.05262691393145        2.87069172697462       -0.25122842801394
H           -2.69385935989437        2.17727199879582       -0.41349177565010
H           -1.85573244708785        2.16607933141370        1.18086541565299
H           -1.64632245873503       -3.38901840550068        0.66584892931100
H           -1.81584444579508       -3.21624717004584       -1.10669294291824
H           -2.79215514554642       -2.25909676003983       -0.01798439763468
H            1.57843113529930       -3.12727053373541        0.20344990295709
25
 energy: 46.485672955186 xtb: 6.6.1 (8d0f1dd)
C            2.86245211119468        1.74059677914493        0.44411960874678
N            2.36198789043441       -0.04195567564433       -0.20269598323922
C            2.65703372043408       -1.33863952094604        0.17068702727684
N            1.49934982049125       -2.11623351539454        0.18837509646479
C            0.45034637229515       -1.30278648928972       -0.11745856992012
C            1.01560172372483       -0.05029697984057       -0.31975592067740
C            0.24947726808961        1.07462801907144       -0.71617823747848
O            0.64729697748356        2.05983819939676       -1.32892055098682
N           -1.06078671156804        0.89047241424499       -0.27351599975439
C           -1.72140534741385        2.11850866376086        0.10617838781404
C           -1.69846774110113       -0.29362221182033       -0.08182930760791
O           -2.89218465916583       -0.34595614427446        0.13728302598505
N           -0.92517739361956       -1.47553722302922       -0.14928199702830
C           -1.76072326028364       -2.67297715938327       -0.15917038443178
H            3.81648248138998        1.83164189420140        0.91916743576751
H            2.81137082635932        2.30350731033027       -0.49512949701072
H            2.09930486071678        2.10565923012167        1.10515431621363
H            3.64325101657470       -1.77520450712063        0.21873909024547
H           -1.07108509192023        2.89825484735330       -0.26848008903263
H           -2.71361890453391        2.19368135090065       -0.34369288176756
H           -1.80901941280249        2.16737589537628        1.21329657793023
H           -1.55266410547347       -3.38558034136698        0.64683777256781
H           -1.76070635869939       -3.19168012417703       -1.12422142508402
H           -2.77624711511477       -2.28753074802624        0.00304360398485
H            1.54034533747982       -3.11713517484499        0.25448281321691
25