25
 energy: 0.000000000000 xtb: 6.6.1 (8d0f1dd)
C            3.23720163006194        1.16630919979326        0.08434469647475
N            2.29877817382611        0.07527477071623        0.03981603040599
C            2.58028210190900       -1.21425402444508        0.03006176031096
N            1.43813958087363       -1.93419271955128        0.00098261760884
C            0.39035688448383       -1.05887472636071       -0.00790371836672
C            0.93510056364412        0.21347819449412        0.01709077491437
C            0.09450143893243        1.40504303904423       -0.00410947031874
O            0.49712751527797        2.54126714362870       -0.00342325688240
N           -1.25076640035757        1.06271879480407       -0.03085478223738
C           -2.21907211982101        2.15522099834493       -0.05001256985998
C           -1.81739487048744       -0.20012725993278       -0.04692818574614
O           -2.99983886758376       -0.37846417018721       -0.07008878229737
N           -0.92618586207120       -1.30210215599479       -0.03682761578324
C           -1.46982264913417       -2.64643102187190       -0.06029820460571
H            3.71247264356769        1.21471455160235        1.06488849150277
H            4.00791497605742        1.03430808813993       -0.67357694370751
H            2.69910007168542        2.09770118228144       -0.09130154882931
H            3.56654120610678       -1.63682992603973        0.04233140067262
H           -1.67107961066214        3.09322851271934       -0.02552706933167
H           -2.82428953597071        2.09428624779827       -0.95318082946668
H           -2.87644029173232        2.07745725625962        0.81450067533302
H           -1.17061996399332       -3.19584890659852        0.83242232437030
H           -1.14560257411436       -3.17511610292205       -0.95688275822323
H           -2.55549792440841       -2.55659984320617       -0.07459039797972
H            1.38130855184625       -2.94313852034425       -0.01389874181052
25
 energy: -5.399912151509 xtb: 6.6.1 (8d0f1dd)
C            3.24390943512817        1.17742823078328        0.08743276495520
N            2.30802065334355        0.09555623527994        0.03766197072168
C            2.59957020440422       -1.23253757511253        0.02938668093368
N            1.42741571415759       -1.94006675203867       -0.00027172402076
C            0.39628762492413       -1.05614332107761       -0.00869894028456
C            0.93014815441072        0.22250526222449        0.01496498589060
C            0.10154475026069        1.39577643016140       -0.00563743909997
O            0.49833586979482        2.56154207575284       -0.00463475137160
N           -1.26060908611615        1.05077685051354       -0.03155949623535
C           -2.22058307151708        2.14735079267502       -0.05013691287874
C           -1.82374652463467       -0.20062339692093       -0.04765178124185
O           -3.02033776896816       -0.38306182466307       -0.07066010896233
N           -0.93424977259226       -1.30101331703019       -0.03707023454848
C           -1.47162666661029       -2.64329425679409       -0.05933153393101
H            3.72210149742330        1.22269710209049        1.06953727324230
H            4.01205005161776        1.04307103725923       -0.67555510383557
H            2.69714854710837        2.10214908834654       -0.08757305119576
H            3.57780695983851       -1.65882173571312        0.04194376794805
H           -1.65876175556405        3.07846449504488       -0.02535271884254
H           -2.82596581343768        2.09463738367994       -0.95459317501130
H           -2.87840792430755        2.07763615829974        0.81558858054265
H           -1.16783955307392       -3.19411726687013        0.83293542894227
H           -1.14326759619236       -3.17453325171748       -0.95483837508530
H           -2.55694180730697       -2.55274462370473       -0.07346354890799
H            1.36021254584552       -2.94360521829675       -0.01538866157604
25
 energy: -6.573503888238 xtb: 6.6.1 (8d0f1dd)
C            3.25055927765074        1.18392460376431        0.09128323846067
N            2.31435139539194        0.10693267972180        0.03380528578206
C            2.60906202665248       -1.24575500640910        0.02795665587518
N            1.41520132150337       -1.93857077890092       -0.00218294583123
C            0.39940956905071       -1.05194115533299       -0.01041223175821
C            0.92640652140460        0.23025367538029        0.01174013869908
C            0.10719706204227        1.38384621667136       -0.00824617074731
O            0.48656950147374        2.56448107279883       -0.00745825966131
N           -1.27114906693859        1.04009344755442       -0.03300353518634
C           -2.22099627506573        2.14130322807944       -0.05061356686856
C           -1.82647807410312       -0.20196749687225       -0.04867662535268
O           -3.02704933239418       -0.39051889348879       -0.07129211118256
N           -0.94016262171093       -1.29794788714549       -0.03750572279310
C           -1.47135693946150       -2.63940891647005       -0.05730090970693
H            3.73558286221614        1.23082210567420        1.07208993585070
H            4.01825005123221        1.05894434303562       -0.67571210819328
H            2.69882612110604        2.10689684390361       -0.07797140463464
H            3.58059036918610       -1.67827882396040        0.04079804741492
H           -1.64148511683239        3.06237484103928       -0.02523390735116
H           -2.82728109904124        2.09729698690704       -0.95551704566725
H           -2.87968263592531        2.07966945453444        0.81565131692410
H           -1.16461892059596       -3.19076665228630        0.83490040106324
H           -1.14106030587900       -3.17393821983978       -0.95138943725250
H           -2.55671553227576       -2.54884566472720       -0.07096644328183
H            1.33824450924958       -2.93987140145936       -0.01770869845377
25
 energy: -6.668044262005 xtb: 6.6.1 (8d0f1dd)
C            3.25354075614180        1.18534515033845        0.09453690265780
N            2.31715410802483        0.10788989977712        0.03019240962246
C            2.60925332570064       -1.25130524272662        0.02574069612191
N            1.41003777830574       -1.93654188458956       -0.00431281578918
C            0.39970232985748       -1.05015124034893       -0.01246246501324
C            0.92628925913007        0.23316306248344        0.00888436698860
C            0.10854698156667        1.38092263160847       -0.01097593180175
O            0.47463758288779        2.56468773759731       -0.01075940897038
N           -1.27701068190935        1.03662070700006       -0.03488357239577
C           -2.22088633614032        2.14036013240361       -0.05149656609811
C           -1.82792231878089       -0.20404506592953       -0.04983427685212
O           -3.02788623360047       -0.39764207145237       -0.07195012200641
N           -0.94119264729944       -1.29655545925047       -0.03807549493434
C           -1.46933606715096       -2.63832292129642       -0.05460984127033
H            3.74389413302724        1.23048476938694        1.07337676631495
H            4.02098243956888        1.07250134446720       -0.67522455896232
H            2.70068300053120        2.10995762340231       -0.06588568997592
H            3.57803376090655       -1.68922494383520        0.03860642294417
H           -1.63080994955130        3.05469192785294       -0.02552131731708
H           -2.82771106289609        2.10146529612962       -0.95626854428287
H           -2.87968407813921        2.08284141701166        0.81495538380673
H           -1.16143362661324       -3.18758878373108        0.83858524782476
H           -1.13932983200315       -3.17465673133761       -0.94779272912544
H           -2.55490889838682       -2.54806048224910       -0.06754362361253
H            1.32757094475855       -2.93780827054022       -0.02024734172629
25
 energy: -6.652962608619 xtb: 6.6.1 (8d0f1dd)
C            3.25639103150401        1.18577183467089        0.10136368483550
N            2.32088117506686        0.10640654756376        0.02316602756483
C            2.60704535433469       -1.25706627391250        0.02000764735892
N            1.40488978357159       -1.93371076023513       -0.00931232357702
C            0.39903556577993       -1.04767497612198       -0.01707164736710
C            0.92749743370416        0.23642774381810        0.00315094885316
C            0.10964119516711        1.38018729724570       -0.01675664608942
O            0.45770647940946        2.56607468242981       -0.01745090341989
N           -1.28407727159579        1.03338874126178       -0.03922399123839
C           -2.22035708388244        2.14095277434903       -0.05380119980111
C           -1.83066266607122       -0.20735927615542       -0.05246301815863
O           -3.02907190079361       -0.40795581863129       -0.07326115273960
N           -0.94136530522872       -1.29507220621259       -0.03949411218683
C           -1.46485752011232       -2.63830312181672       -0.04827967027437
H            3.75522188809366        1.22035048662037        1.07691209003483
H            4.02155255212387        1.09527059825053       -0.67463244987490
H            2.70126878423712        2.11344289263746       -0.03925613414517
H            3.57222965499258       -1.70341077272092        0.03273543219340
H           -1.61749956144755        3.04678166750908       -0.02673358069889
H           -2.82812146776013        2.11009814309185       -0.95818074286379
H           -2.87900760471485        2.08913501312583        0.81302637747266
H           -1.15427516452643       -3.18168902143520        0.84751493181364
H           -1.13579621119013       -3.17808834871176       -0.93954481802533
H           -2.55082202543946       -2.54984981490443       -0.05939945723921
H            1.31476755271381       -2.93507942954422       -0.02598139628001
25
 energy: -6.386494962178 xtb: 6.6.1 (8d0f1dd)
C            3.25906206616414        1.18503314402616        0.11750194286818
N            2.32624802566367        0.10283861003011        0.00806499404084
C            2.60208825435180       -1.26402687695110        0.00504944910511
N            1.39798650695060       -1.92943639366528       -0.02200415755712
C            0.39675823966641       -1.04305164095965       -0.02806274532462
C            0.92980030333704        0.24138150301172       -0.00967552564941
C            0.11129754072979        1.38126338890356       -0.02975792010265
O            0.43401188009554        2.56969857686200       -0.03181275681984
N           -1.29374725316244        1.02930909292195       -0.04955804254868
C           -2.21899203144838        2.14362597436514       -0.05978301512373
C           -1.83611986558400       -0.21202682617474       -0.05861190694304
O           -3.03211070429752       -0.42264786003694       -0.07599461148889
N           -0.94146377810826       -1.29298029900727       -0.04310933759142
C           -1.45574226845673       -2.63995853153874       -0.03287009655959
H            3.77432925807063        1.18725228783755        1.08660039301846
H            4.01632828502934        1.13918202162222       -0.67324685233970
H            2.69803038246745        2.11782616307824        0.02256336928432
H            3.56145515628791       -1.72416464247103        0.01739942590405
H           -1.59895702970903        3.03779229337693       -0.03050126051079
H           -2.82846110034306        2.12698928909591       -0.96338939449363
H           -2.87690406910581        2.10060340102047        0.80798024868996
H           -1.13753473180281       -3.16898995266824        0.86896446472986
H           -1.12833353259152       -3.18832074852436       -0.91922142462107
H           -2.54242478828469       -2.55757225965350       -0.03933863328784
H            1.29560992201608       -2.93059111232906       -0.04015271053146
25
 energy: -3.171501514909 xtb: 6.6.1 (8d0f1dd)
C            3.26501261685555        1.18087304659065        0.17204660244886
N            2.34191381420171        0.09112747699159       -0.04472208301347
C            2.58537524701712       -1.28327854075253       -0.04551184598248
N            1.37721521543746       -1.91636007052604       -0.06369836124313
C            0.38829739449950       -1.02778705710916       -0.06639154771629
C            0.93681999938155        0.25670650889542       -0.05476029522664
C            0.11713694110018        1.38661490570341       -0.07589035187515
O            0.36604875620532        2.58194994072255       -0.08125295152400
N           -1.32216286641326        1.01817853912684       -0.08679172834520
C           -2.21456873285659        2.15378198098769       -0.07924183639272
C           -1.85414629388425       -0.22495252904037       -0.08179379484966
O           -3.04266336029847       -0.46531593650633       -0.08768170350692
N           -0.94215320988694       -1.28646691097134       -0.05739088231063
C           -1.42496088893190       -2.64653560568849        0.01970094894791
H            3.83758319984877        1.06443341371594        1.11700060898940
H            3.99033980996826        1.28523848198211       -0.67037291292170
H            2.68312432428255        2.12818857047295        0.23667370156927
H            3.52653339186430       -1.78615562565246       -0.03234635726362
H           -1.54566316064214        3.01419914233349       -0.04088510020743
H           -2.82998944421504        2.18404946768315       -0.97985413017874
H           -2.86862372987716        2.13485907908267        0.79225891870985
H           -1.07965600775056       -3.12488833843846        0.94265125522224
H           -1.10125886316695       -3.22549992215465       -0.84842424782265
H           -2.51395546376828       -2.58758718497029        0.02830552637377
H            1.23661597896537       -2.91634423030635       -0.08459353573365
25
 energy: -2.747172217924 xtb: 6.6.1 (8d0f1dd)
C            3.26409413325372        1.17691973875950        0.18833431137248
N            2.34349295967694        0.08924984872605       -0.05645944878035
C            2.58126706193515       -1.28343341812504       -0.05898538697521
N            1.37450655745092       -1.91374593079859       -0.07748013511693
C            0.38568285970240       -1.02395106903817       -0.07863883528375
C            0.93804586886432        0.25958567485466       -0.06808298772170
C            0.11880880455681        1.39029899865421       -0.08952600851147
O            0.36067143153451        2.58440391913225       -0.09432203569701
N           -1.32625514544578        1.01862660722109       -0.09803043317982
C           -2.21543034548721        2.15691745029063       -0.08320646078814
C           -1.85825868198659       -0.22559462095915       -0.08893909194925
O           -3.04525432063154       -0.47059419460470       -0.09103940727300
N           -0.94235172895477       -1.28499454973289       -0.06276650101966
C           -1.41696106544642       -2.64776705002301        0.03457850077286
H            3.84548350893635        1.03462604565552        1.12262517617330
H            3.98085285634720        1.30936649168942       -0.65450772578333
H            2.68276702463897        2.11930162033651        0.28246674517937
H            3.51907570091127       -1.79282101218042       -0.04753075702463
H           -1.54455566234216        3.01421218141463       -0.04135542544906
H           -2.83142614805665        2.19708729623336       -0.98267367607067
H           -2.86715106546371        2.13806670128392        0.78955482582929
H           -1.06272202701023       -3.11075493984790        0.96237608931651
H           -1.09396217753042       -3.23624421958281       -0.82731600320551
H           -2.50617828695043       -2.59692593576826        0.04875259492074
H            1.22797255543340       -2.91280703141883       -0.10079402758783
25
 energy: -1.463992220326 xtb: 6.6.1 (8d0f1dd)
C            3.26453622435469        1.17214723115951        0.21179923700460
N            2.34656777857300        0.08728128123714       -0.07377364501809
C            2.57640915677659       -1.28621630711188       -0.07936921391084
N            1.36871225879417       -1.90983615967400       -0.09815169894327
C            0.38268635581990       -1.01854262244610       -0.09650090071429
C            0.93929728109143        0.26434774394355       -0.08677393879601
C            0.12096509189526        1.39348467738761       -0.10868045983289
O            0.34801230204841        2.58861683315408       -0.11388012450590
N           -1.33350714494406        1.01744025209767       -0.11425161282005
C           -2.21614992495775        2.16029344959149       -0.08994595989885
C           -1.86376569931165       -0.22713438051222       -0.09902814648205
O           -3.04885183321190       -0.47948327924394       -0.09555024610621
N           -0.94320220866908       -1.28248781402758       -0.07034831917561
C           -1.40607909128803       -2.64861938031348        0.05688231441100
H            3.85894804402523        0.99045685647672        1.13429833040363
H            3.97114539293147        1.34925174477950       -0.63669192626033
H            2.68012954855032        2.11158363655218        0.35406969584706
H            3.50936355154036       -1.80558878273697       -0.07061954946272
H           -1.53716446209758        3.01125925596746       -0.04280123484094
H           -2.83359244288835        2.21528933854481       -0.98803549811835
H           -2.86569484755418        2.14262426275504        0.78431383505206
H           -1.03878844064272       -3.08949160596685        0.99199625802699
H           -1.08477647055305       -3.25147930719299       -0.79608346417566
H           -2.49566624083540       -2.60829557300294        0.07949906936898
H            1.21268048848896       -2.90787274924585       -0.12533890490504
25
 energy: -1.812713076245 xtb: 6.6.1 (8d0f1dd)
C            3.26369757123408        1.16796547291492        0.22274869024826
N            2.34570794404806        0.08831170126844       -0.07701150917087
C            2.57583202707323       -1.28442296674843       -0.08756547408786
N            1.36817365538827       -1.90914429986317       -0.11037020639728
C            0.38207799352483       -1.01706635334903       -0.10584035775853
C            0.93875486896429        0.26529715846309       -0.09426529984717
C            0.12120760258831        1.39531937305069       -0.11674000510276
O            0.35135039680306        2.58969782323664       -0.12192523114698
N           -1.33385696214866        1.01909489800857       -0.12171945948189
C           -2.21824587094306        2.16084786493248       -0.09189371041705
C           -1.86446776233335       -0.22552849260532       -0.10345901041979
O           -3.04949815652460       -0.47785201654875       -0.09683829679305
N           -0.94367054416234       -1.28148869014512       -0.07488298143802
C           -1.40285015540806       -2.64709613804729        0.06711661607748
H            3.85394681575980        0.97911221060767        1.14109166045297
H            3.97095608534269        1.34994019795756       -0.61630942015167
H            2.68170555769439        2.10102667182123        0.36961362381148
H            3.50881147591830       -1.80275174758483       -0.08328834125255
H           -1.54291018864182        3.01382860095011       -0.04093383044172
H           -2.83563958118284        2.21920531707258       -0.98939153069940
H           -2.86704817986918        2.13729825358894        0.78263432775718
H           -1.02884342531401       -3.07774699509416        1.00410763496538
H           -1.08337043513401       -3.25744653952062       -0.78111483590705
H           -2.49210973761198       -2.61079781896086        0.09552668391854
H            1.21250367287065       -2.90657488323335       -0.14225584057044
25
 energy: -2.829711731792 xtb: 6.6.1 (8d0f1dd)
C            3.25408459831695        1.13528787834814        0.28587200089289
N            2.33588269328167        0.10017323926978       -0.10272578326479
C            2.57434481523223       -1.26622302925155       -0.12992934983975
N            1.36678826757666       -1.90751557567235       -0.17788979218120
C            0.37811155315823       -1.00847543673422       -0.16937805450226
C            0.93212444691949        0.26955389222908       -0.14379543990368
C            0.11948721285149        1.40733988896563       -0.17451180146966
O            0.38826677757939        2.59744545745173       -0.18139149023617
N           -1.33099139771796        1.03155015289427       -0.17922585358927
C           -2.23223258365067        2.16402860407638       -0.09994490237030
C           -1.86781702004955       -0.21158801244700       -0.13957552581174
O           -3.05422440291593       -0.45697077910900       -0.11552700776012
N           -0.94831101557989       -1.27663501884015       -0.11410669040443
C           -1.38101316298697       -2.63363035948681        0.13153295874359
H            3.82762463629036        0.87737956349720        1.16728181682799
H            3.95330643863650        1.36037608809497       -0.49885577596939
H            2.67984597969503        2.01816134738646        0.48852784382589
H            3.51079683486267       -1.76931156370672       -0.15205820156377
H           -1.58849860511465        3.03716008289090       -0.01339452432494
H           -2.85019820917803        2.25127767968159       -0.99250469324253
H           -2.87591385410212        2.08524034548331        0.77678920368060
H           -0.96406752628406       -2.99165783702568        1.07929831541116
H           -1.06891580494844       -3.29751500614249       -0.67930601011130
H           -2.46664207418565       -2.62631366787209        0.19402186531018
H            1.22037607024928       -2.90010933180941       -0.23216921199980
25
 energy: -1.112367799059 xtb: 6.6.1 (8d0f1dd)
C            3.24379891676978        1.10273759559188        0.34708658069412
N            2.32836864128453        0.10805357617885       -0.14425233611994
C            2.56923768648706       -1.25302546834461       -0.17106790544504
N            1.36221672794401       -1.90458815640473       -0.23519202244313
C            0.37254451875754       -0.99902592290942       -0.23315162962737
C            0.92663643901746        0.27491233526987       -0.20229204877487
C            0.11901312619758        1.41911048812350       -0.24029172331667
O            0.41489376816415        2.60405899954884       -0.24781311253279
N           -1.33201225017580        1.04278793032663       -0.24090133257822
C           -2.24418961988218        2.16873092585135       -0.10636031683662
C           -1.87323276135803       -0.19989134857206       -0.18142578678306
O           -3.05956424393748       -0.44265622868227       -0.14015045355383
N           -0.95300259391109       -1.27154012129551       -0.15653047280151
C           -1.35515924206962       -2.62108204222995        0.19560087080798
H            3.82146801167404        0.75024771481967        1.18070876993728
H            3.92543168096949        1.41043887333525       -0.40160644613289
H            2.67183076764748        1.94060826556089        0.64736718899969
H            3.50647885547382       -1.74793535579175       -0.21034733620227
H           -1.62460022813714        3.05478472500203        0.01928851367488
H           -2.86451015545395        2.29429459234730       -0.99237239943384
H           -2.88084777137997        2.03671212603250        0.77219924553382
H           -0.89766959678461       -2.90185470461745        1.15692583636272
H           -1.04577532109429       -3.33896134836418       -0.57472432126880
H           -2.43754394222492       -2.64483905785764        0.28821830306102
H            1.21840325395810       -2.89304979074698       -0.30188176907344
25
 energy: 0.228949883979 xtb: 6.6.1 (8d0f1dd)
C            3.23413079454363        1.07369344466624        0.40434603421258
N            2.32604242830200        0.11250158781581       -0.18956889902968
C            2.56367933218761       -1.24604322002536       -0.21526319102581
N            1.35705326164804       -1.90027232178795       -0.28747970061352
C            0.36787475549909       -0.99067229957071       -0.28784211317363
C            0.92413947576872        0.28107467271034       -0.25754314803204
C            0.12040784586813        1.42883723189570       -0.30000930231435
O            0.42531198762846        2.61031905986163       -0.31121541282975
N           -1.33639788288849        1.05039222257861       -0.29400828200860
C           -2.25278477301926        2.17210494250643       -0.11711541810436
C           -1.87847364226217       -0.19280741366549       -0.21490920945643
O           -3.06349137965362       -0.43681475757651       -0.15969150522940
N           -0.95618141369321       -1.26744496871110       -0.18800110203290
C           -1.33030730352800       -2.60802077972629        0.25647934735326
H            3.82628936244911        0.62093460746239        1.18835836820438
H            3.89750376630174        1.48628383331112       -0.32038660099476
H            2.65720949614370        1.87217309845219        0.82206115336450
H            3.49964404030046       -1.73969807806660       -0.26786929427217
H           -1.64660598448254        3.06284123464082        0.04095871684019
H           -2.87528373287565        2.33203685859506       -0.99659464374305
H           -2.88457013075276        2.00174692001515        0.76037744323432
H           -0.84077790240425       -2.82186595385426        1.22649311712384
H           -1.02319822125398       -3.36989459474156       -0.47706581108359
H           -2.40926685028588       -2.65635531043652        0.37685350304867
H            1.21026733839499       -2.88602141417713       -0.36433015329056
25
 energy: 1.934437843195 xtb: 6.6.1 (8d0f1dd)
C            3.22086393860548        1.04296789992189        0.46204073749115
N            2.32397120735808        0.11903431439224       -0.23191707202160
C            2.55979587865579       -1.23836514656295       -0.25940099434750
N            1.35432773174237       -1.89598477363589       -0.33918523551156
C            0.36489146696491       -0.98424620811216       -0.33858110460211
C            0.92125350509015        0.28675490443254       -0.30845838161341
C            0.11836986337875        1.43661113579799       -0.35676931061549
O            0.43046895795668        2.61674371714741       -0.37544937102632
N           -1.33893515485203        1.05648714705555       -0.34422183043793
C           -2.25907403264725        2.17299872148635       -0.13003604961731
C           -1.88087283421964       -0.18717462477805       -0.24374706953974
O           -3.06525614779695       -0.42957866104154       -0.17611728088719
N           -0.95811821862535       -1.26513622033827       -0.21479702873222
C           -1.30619319146513       -2.59025098800324        0.31681578091788
H            3.82979158138797        0.49389891388116        1.19006441852853
H            3.86424515757015        1.56313643552091       -0.23597347871140
H            2.63705187966969        1.79281459279171        0.99484091769383
H            3.49684861553517       -1.72873832340551       -0.33002586366634
H           -1.66276982916227        3.06685185144465        0.06178289917068
H           -2.88329262410401        2.36504824107033       -1.00325130039040
H           -2.89004761381986        1.96494556364961        0.74241347158438
H           -0.78968453651030       -2.74207695431720        1.28947370592293
H           -1.00198384951087       -3.39097805737967       -0.37942359158603
H           -2.38054733409748       -2.65654138895738        0.46561857778091
H            1.20711025083180       -2.88019348988848       -0.42866164963659
25
 energy: 6.220029725621 xtb: 6.6.1 (8d0f1dd)
C            3.17705193672714        0.99815855136789        0.48349462139867
N            2.31843070493419        0.14099383527242       -0.28378672726425
C            2.56859679150754       -1.22430899434851       -0.27788891889549
N            1.37203048626034       -1.89874289356119       -0.34110801154749
C            0.37248870812781       -0.99982683166648       -0.34894486556625
C            0.91175880283753        0.28126610797700       -0.33263642751871
C            0.08919199100879        1.42641977032898       -0.38804262166646
O            0.42806290024208        2.61312429929554       -0.43561924541060
N           -1.31799447906079        1.05867779501015       -0.36897639109282
C           -2.24647345073363        2.15573207444456       -0.14986934573541
C           -1.85842317240971       -0.18692250022396       -0.24319176587947
O           -3.04919756982527       -0.39357540978167       -0.18273510521859
N           -0.95621503796200       -1.28324454037947       -0.21805918986315
C           -1.29395778094539       -2.53807016355072        0.35315413239769
H            3.84287410304405        0.32650344372911        1.10082126717380
H            3.78724277635446        1.70111822886083       -0.20439049742640
H            2.55532019241803        1.65883577990770        1.20629997297425
H            3.52870951142161       -1.68405127598975       -0.37250153996714
H           -1.65508116987769        3.04793370854732        0.08521481672608
H           -2.87102142264479        2.35753433257223       -1.01297708585450
H           -2.90071794843683        1.90459028364295        0.68516247272758
H           -0.80224143247359       -2.66609519391981        1.27762060252221
H           -0.98597245660733       -3.33664400023889       -0.29348668935883
H           -2.35404485470120       -2.57860126430814        0.52187797267866
H            1.25179653873044       -2.89177654081608       -0.43239753418626
25