25
 energy: 0.000000000000 xtb: 6.6.1 (8d0f1dd)
C            3.23720132972391        1.16630909158653        0.08434468864950
N            2.29877796055224        0.07527476373246        0.03981602671198
C            2.58028186251803       -1.21425391179017        0.03006175752192
N            1.43813944744728       -1.93419254010258        0.00098261751768
C            0.39035684826767       -1.05887462812143       -0.00790371763344
C            0.93510047688824        0.21347817468824        0.01709077332874
C            0.09450143016486        1.40504290868848       -0.00410946993748
O            0.49712746915594        2.54126690785742       -0.00342325656480
N           -1.25076628431515        1.06271869620815       -0.03085477937476
C           -2.21907191394203        2.15522079838987       -0.05001256521996
C           -1.81739470187490       -0.20012724136556       -0.04692818139228
O           -2.99983858926755       -0.37846413507442       -0.07008877579474
N           -0.92618577614240       -1.30210203518959       -0.03682761236648
C           -1.46982251276835       -2.64643077634382       -0.06029819901142
H            3.71247229913541        1.21471443890471        1.06488839270555
H            4.00791460421487        1.03430799217987       -0.67357688121503
H            2.69909982127087        2.09770098766290       -0.09130154035862
H            3.56654087521359       -1.63682977417947        0.04233139674524
H           -1.67107945562430        3.09322822573871       -0.02552706696334
H           -2.82428927394145        2.09428605349656       -0.95318074103337
H           -2.87644002486466        2.07745706351925        0.81450059976605
H           -1.17061985538665       -3.19584861009707        0.83242224714061
H           -1.14560246782873       -3.17511580834413       -0.95688266944647
H           -2.55549768731684       -2.55659960601237       -0.07459039105944
H            1.38130842369251       -2.94313824728853       -0.01389874052104
25
 energy: -5.112247598500 xtb: 6.6.1 (8d0f1dd)
C            3.22823363070345        1.15608096798876        0.15720466528767
N            2.28342425244091        0.10616301809236       -0.00682505851075
C            2.59618207039493       -1.22779398820571       -0.11375919882353
N            1.42023260409603       -1.93463170413509       -0.13776907329346
C            0.38798041176596       -1.08121379922413       -0.08255287709238
C            0.89501184490728        0.19777961512603        0.04185941218943
C            0.07305787648636        1.33324901159465        0.06765627899254
O            0.44073724799310        2.50643738911775        0.19170410640615
N           -1.30240351545586        1.01350275065998       -0.10370439077522
C           -2.21518433706590        2.14391550563231       -0.14831386263100
C           -1.84056184097994       -0.23465455406806       -0.12142172111408
O           -3.03489522367297       -0.44070851720589       -0.17088381134310
N           -0.94777544584612       -1.32918131509226       -0.05286821096340
C           -1.46261451200811       -2.66147334269620        0.05062723508750
H            3.71410895367141        1.11209908942923        1.13320258879794
H            4.00122336891133        1.08347719621987       -0.60828115453991
H            2.68715890592586        2.09081138099819        0.05587826990232
H            3.57876089858279       -1.62534664400758       -0.08317681937805
H           -1.62099595573155        3.05334296848381       -0.05901382605665
H           -2.75450011957174        2.14227608616041       -1.09036320235805
H           -2.92830994007332        2.08680909931574        0.67143022737691
H           -1.10915268090747       -3.13806018880593        0.96530696018605
H           -1.15543684501575       -3.24393651395183       -0.81547998390800
H           -2.54651918165218       -2.57201355202468        0.06583925922896
H            1.35673739633788       -2.92197547350995       -0.26812522637554
25
 energy: -1.706903693794 xtb: 6.6.1 (8d0f1dd)
C            3.21355882563675        1.13190474344786        0.22886700437011
N            2.26470188138825        0.10634354824591       -0.03357467513187
C            2.59043549443748       -1.20756489831606       -0.26057160678075
N            1.42333562248697       -1.93022177610259       -0.27403549009739
C            0.37998824740782       -1.10521481354303       -0.14396667140937
C            0.87662791497956        0.15986202983712        0.07548064969013
C            0.03782009182333        1.27463049997057        0.11479077943112
O            0.39664348871433        2.43677493389054        0.33883033644707
N           -1.32371895051206        0.97787807523180       -0.17529391946032
C           -2.20194736422945        2.13816560067288       -0.24450341859142
C           -1.85659501277170       -0.27445025210945       -0.18543995701544
O           -3.04615771065043       -0.49475047934316       -0.26085415936076
N           -0.95326459735272       -1.36094053492814       -0.07294027364320
C           -1.45055494493468       -2.67622833341988        0.16187717739093
H            3.70733525976448        1.00213916884882        1.19103008406545
H            3.98758837028326        1.12440363238489       -0.53744397244990
H            2.67359037245447        2.06937041376081        0.20270688778239
H            3.57724638335838       -1.59435854858685       -0.20544457624465
H           -1.58516163132593        3.02644482667731       -0.09286873236049
H           -2.67479624786631        2.18516247562835       -1.21797691525003
H           -2.96786052639320        2.09437119222790        0.52654802700503
H           -1.04941262289028       -3.07522430300831        1.09258389976976
H           -1.16703295008258       -3.31199855389768       -0.66880859849286
H           -2.53216987559622       -2.58466786175730        0.20737579379312
H            1.34618160848786       -2.88584393028512       -0.53062806393336
25
 energy: 3.009174296843 xtb: 6.6.1 (8d0f1dd)
C            3.20260913349784        1.10374490810632        0.30114156729116
N            2.25513394331506        0.09802767544093       -0.03407120652420
C            2.58570092633395       -1.18332569739173       -0.39224556645441
N            1.42833981007180       -1.92442230286231       -0.39842119739597
C            0.37885907761647       -1.13163607710272       -0.17481386202807
C            0.86800485304457        0.12044474466105        0.11244086916029
C            0.02274771209373        1.22963727691716        0.08257582741898
O            0.37633755963166        2.37821936672401        0.37149495198118
N           -1.33439583890216        0.94476410358140       -0.25050398496150
C           -2.18435895560206        2.13195644024235       -0.33607230271524
C           -1.86248949291397       -0.31494184865697       -0.21792047317137
O           -3.04617962235496       -0.54967622114599       -0.32832990340796
N           -0.95088486254373       -1.39209896670921       -0.05534416375250
C           -1.43496804563347       -2.68647808620906        0.27828730318461
H            3.70618231318349        0.89837535837702        1.24309413714307
H            3.97326300996415        1.16197184969790       -0.46572520538075
H            2.65915655992775        2.03718229622184        0.34536862996559
H            3.57598166948415       -1.56482416458809       -0.32987855147064
H           -1.55193555056168        3.00043592823004       -0.12590428003798
H           -2.59445235154122        2.22745592178712       -1.33334177247541
H           -2.99719046752531        2.10007966484322        0.38689486887906
H           -0.99397323013518       -3.01834349131553        1.21619032060865
H           -1.17319889402506       -3.36847224657441       -0.51861466268191
H           -2.51424036273979       -2.59172274902691        0.34783953002750
H            1.33149570792021       -2.82872059427542       -0.78905467211843
25
 energy: 8.012425624970 xtb: 6.6.1 (8d0f1dd)
C            3.19467208545948        1.07236837469408        0.36919828798678
N            2.25374817905169        0.08070846506911       -0.02503628487288
C            2.58116716443870       -1.15921887550880       -0.50490856077543
N            1.43348479109773       -1.92065605236860       -0.50682793798561
C            0.38312934309731       -1.16263527305459       -0.17908220496440
C            0.86648903163298        0.09276948444687        0.09663225054488
C            0.02850388773055        1.20203057430171       -0.00628902047513
O            0.41976172493650        2.34835494887660        0.23622765065300
N           -1.34498437495474        0.93867651668639       -0.29327695510742
C           -2.16810572299391        2.14219428305066       -0.41344515107467
C           -1.86591682151653       -0.32072413253686       -0.23733585253867
O           -3.04007168122723       -0.59067724268958       -0.36790852359232
N           -0.94574203597729       -1.41102628072118       -0.03529853338279
C           -1.41923319405046       -2.68262067376770        0.38967058581116
H            3.70693489116093        0.79876109068734        1.28785185482529
H            3.96080792376869        1.19790304860506       -0.39401695291165
H            2.64449492885525        1.99629369595384        0.47993990239424
H            3.57541178419857       -1.53602675454812       -0.45487592970839
H           -1.52332190143971        2.99204238980248       -0.15896750399592
H           -2.51606817247171        2.26959171025841       -1.43170821749821
H           -3.02384285574493        2.11884217123622        0.25924616135167
H           -0.94250029915834       -2.95567423679831        1.32965515949411
H           -1.17766778585201       -3.41073337327175       -0.37040598506527
H           -2.49573418792919       -2.58894530464392        0.48345950028741
H            1.30982440753671       -2.74989924445638       -1.03208750891655
25
 energy: 15.158422624983 xtb: 6.6.1 (8d0f1dd)
C            3.18280827797924        1.03819672521919        0.43243471933892
N            2.24693727357485        0.06194843140798       -0.02021481684672
C            2.57106053900008       -1.13405396375905       -0.59900955391577
N            1.43418645506371       -1.91426103280660       -0.61705669766471
C            0.38524152041773       -1.19869645194483       -0.18735398774099
C            0.85418443414589        0.06430743161440        0.09396175939801
C            0.03598675552267        1.17438852628652       -0.10529206301509
O            0.46011369101325        2.32154540341277        0.06933128166350
N           -1.35224625746916        0.93746887321221       -0.36294048480407
C           -2.15117676205529        2.15630647488898       -0.48538550114088
C           -1.87459756332336       -0.31622159369787       -0.25159935023087
O           -3.04759381504109       -0.59441330070701       -0.35920816947531
N           -0.94761942157097       -1.43060651982265       -0.02401973900223
C           -1.40604384444196       -2.67453931690643        0.49315262363878
H            3.70387595041798        0.70426062797658        1.32626817592840
H            3.94508184789984        1.22924436739270       -0.32217360457888
H            2.62901019848957        1.95124151999457        0.60491351953978
H            3.57099270798558       -1.50285677068595       -0.57905005996091
H           -1.49586037361175        2.98991177574444       -0.19543847795231
H           -2.45304501116199        2.31703020045952       -1.51535086528145
H           -3.03834066564346        2.13709100778698        0.14856475223998
H           -0.89569733177168       -2.89079839247074        1.43172973845700
H           -1.18225594941660       -3.44704466651063       -0.22742359990231
H           -2.47931783562492       -2.58350003135076        0.61261755122444
H            1.28541709790237       -2.65462615532687       -1.25824578361927
25
 energy: 24.203473761420 xtb: 6.6.1 (8d0f1dd)
C            3.17219638444890        1.00666825703022        0.48718444195832
N            2.23912376060227        0.05799576490725       -0.03628157784104
C            2.55845422161893       -1.10165010238959       -0.67987916511033
N            1.43478818809968       -1.89564669187150       -0.72272721380236
C            0.39074029414189       -1.23624478615082       -0.17811718790900
C            0.83704993764714        0.03796722570580        0.11179203172329
C            0.04447620580011        1.14389778656121       -0.20078798161004
O            0.49558189197998        2.28916274430579       -0.10529011637680
N           -1.35803023066021        0.93946413842912       -0.42330517767967
C           -2.13561856181272        2.17265411572917       -0.54532672844663
C           -1.87153775564294       -0.30996025031477       -0.26726427312759
O           -3.03694834469139       -0.60061027807084       -0.36752042292348
N           -0.94419677431204       -1.45217329415095       -0.00451915485103
C           -1.39510805183660       -2.66977102479584        0.58553877352687
H            3.69744686386207        0.61565576514863        1.35651967483734
H            3.93188682021393        1.25831365495872       -0.25329545855335
H            2.61752412839343        1.90607232131555        0.72028249732388
H            3.56302439204840       -1.46448033126623       -0.69613123312433
H           -1.47086284982472        2.99171256506972       -0.22622465841796
H           -2.40087837631328        2.36113917679721       -1.58146053528082
H           -3.04668766253621        2.15761896794846        0.05690291515106
H           -0.85677173880671       -2.83591443788410        1.52158644945711
H           -1.18922143651243       -3.48285587190778       -0.09397916387590
H           -2.46409941168483       -2.57618526245306        0.73041294249993
H            1.25228723944026       -2.54458970344646       -1.45249656026470
25
 energy: 34.330172228263 xtb: 6.6.1 (8d0f1dd)
C            3.16998017144420        0.97743418764578        0.53610797170081
N            2.24998638444275        0.04809907019756       -0.04797108918132
C            2.55461721031023       -1.07586246958135       -0.75083991246885
N            1.43870457443666       -1.87953923729065       -0.81842998492187
C            0.40779805815546       -1.27511626362304       -0.16725832962448
C            0.84545607241568        0.00746911945586        0.13983807382238
C            0.07393434692122        1.10295537917822       -0.26112970475642
O            0.55232282031532        2.23959739361844       -0.25450696501001
N           -1.34666563577915        0.94386004693214       -0.46607104060145
C           -2.10577562794397        2.19756215815703       -0.58187793984674
C           -1.85956851062140       -0.29281119739711       -0.27023150978400
O           -3.01481088806798       -0.60512721117722       -0.35905332469575
N           -0.92599291868466       -1.46977632558686        0.01888694126305
C           -1.38278912960869       -2.66356683267720        0.66392281185025
H            3.69694128551899        0.54097917665422        1.38405946582423
H            3.92412802014142        1.28687168144781       -0.18830070441652
H            2.60681758950270        1.85778541910535        0.82267092313449
H            3.56157480286552       -1.43252796831506       -0.80262998225428
H           -1.43314665306492        3.00449388293399       -0.24736344676907
H           -2.35288272087427        2.40073091234109       -1.62216843170375
H           -3.03600465663929        2.18455521761133       -0.00474226275870
H           -0.82468230039598       -2.79019295587907        1.59777265844973
H           -1.19644375779622       -3.51319218359045        0.02370705411752
H           -2.44724000679879       -2.56306628488907        0.83253273073081
H            1.22401570561607       -2.42458112762352       -1.62560250961336
25
 energy: 44.990574973989 xtb: 6.6.1 (8d0f1dd)
C            3.16972903954058        0.94487367952013        0.58204266044825
N            2.26430891231911        0.03358094654544       -0.06763410105034
C            2.55289870551960       -1.07697698194668       -0.78813416791958
N            1.44271268094045       -1.88646660139020       -0.88347521789985
C            0.42452789120819       -1.31295420695310       -0.15813624747300
C            0.86998992280595       -0.02487235518088        0.13649342272551
C            0.11283307900252        1.06573404072306       -0.29514321276117
O            0.61059776376010        2.19395912331182       -0.36523299687514
N           -1.33021653374018        0.96232742934152       -0.47838035264597
C           -2.09189304721599        2.22019510981147       -0.58091743105913
C           -1.84911265784780       -0.26541310049841       -0.29955935942599
O           -3.02061404770421       -0.60647503583575       -0.35755870989774
N           -0.91696272749505       -1.48641295579364        0.01065125021538
C           -1.35257193324216       -2.63972447534334        0.73053657388746
H            3.70030140860505        0.46423217324333        1.40309435611599
H            3.91708969566243        1.31215807108343       -0.12351179785246
H            2.59388885846252        1.80364360328341        0.91382812237884
H            3.56011618504889       -1.41382878785939       -0.90101008440628
H           -1.43084441024926        3.03271625786696       -0.22488372382657
H           -2.31580517642200        2.43792615645305       -1.62688375665817
H           -3.03493894635667        2.20785301972027       -0.03348464248022
H           -0.76499438675313       -2.73588840240064        1.65691933984501
H           -1.18933747382895       -3.52913217347742        0.13249832312511
H           -2.41589951174036       -2.56485055488694        0.93994413684584
H            1.18471080565348       -2.29105249664757       -1.76406334351410
25
 energy: 117.412745508291 xtb: 6.6.1 (8d0f1dd)
C            3.17212931816152        0.91832395551177        0.61772975227049
N            2.30632806678785       -0.04729686799296        0.00172592714165
C            2.59448773790994       -1.04836012233880       -0.85771712221724
N            1.49950744186846       -1.92002518091686       -1.00724325257287
C            0.47110088176511       -1.45245164726319       -0.13557134510471
C            0.91537591555971       -0.11337165620550        0.18963153795424
C            0.35807951107591        0.96096503440883       -0.41831791956913
O            0.69179035776731        2.11190247179017       -0.46146664272145
N           -1.56053912083851        1.15041028747668       -0.57601653296733
C           -2.15835836186771        2.44107717894756       -0.59245889395277
C           -2.15557418924391        0.12067665354973       -0.40347323359564
O           -2.85552357992442       -0.79022820744779       -0.38707717207849
N           -0.64888820918617       -1.75298873340460        0.30318428798277
C           -1.32712594380208       -2.81899493142602        0.84558266852712
H            3.71153907036469        0.44197231326739        1.43638711417544
H            3.90655404791365        1.32277143798813       -0.08247957771557
H            2.58516107066746        1.75875639148211        0.98512218189802
H            3.60121529711117       -1.38283728685130       -0.96657297457165
H           -1.43593837295062        3.16896176572037       -0.22559280811312
H           -2.39372874927058        2.62707338987282       -1.63777980543144
H           -3.08578671783273        2.39866662714719       -0.02093799244221
H           -0.80685544172678       -2.88688578286918        1.80072044466755
H           -1.23426750932414       -3.70284287044735        0.24038739003525
H           -2.37457382066252       -2.55843026420252        0.99353386007851
H            1.16125251884157       -2.08742569807862       -1.94213950777581
25
 energy: 129.760153848269 xtb: 6.6.1 (8d0f1dd)
C            3.18235607168781        0.89860083753426        0.66115480345407
N            2.34208230882670       -0.09882120130368        0.06123325406613
C            2.61113012159255       -1.02610690651449       -0.88769300394430
N            1.51970806747970       -1.88425469288571       -1.09561251057502
C            0.50834763561594       -1.52298961394614       -0.12830077277089
C            0.96132498641984       -0.20566738523817        0.29597691730333
C            0.43724655199666        0.83118021115389       -0.38746402569550
O            0.63965416894758        2.00340854601795       -0.43481727173511
N           -1.70584720789213        1.26318019894830       -0.63752324817939
C           -2.21831357750297        2.56205515681287       -0.58293797968002
C           -2.21620456034564        0.21392372477270       -0.43994111109941
O           -2.68797289048633       -0.82706388511775       -0.37829677354392
N           -0.57127221700693       -1.99529219727611        0.16982888815323
C           -1.32928199857114       -2.83552716324939        0.92414319774750
H            3.73193130286800        0.42245236975576        1.47243350847784
H            3.89810464017297        1.33209691721229       -0.04168207850273
H            2.57955783762268        1.72245221116603        1.04883822559391
H            3.61504913755702       -1.35486720820032       -1.02605419612391
H           -1.45132646260816        3.23722572915793       -0.21535977872591
H           -2.47380515369421        2.76804163445350       -1.61448152638845
H           -3.10716030566048        2.53214969904723        0.03624065528689
H           -0.79483969429687       -2.83499377476873        1.87240990456014
H           -1.31474530411306       -3.78068155191413        0.40749494085045
H           -2.35740575778694       -2.50822354718209        1.06190308235842
H            1.14296298478507       -1.94410613412285       -2.03177014645849
25
 energy: 125.816801725032 xtb: 6.6.1 (8d0f1dd)
C            3.18120162674625        0.89019587491554        0.70855249667045
N            2.35165079863658       -0.13289075008983        0.14095877872341
C            2.63085554481800       -1.00951525855587       -0.85146990410834
N            1.52848328281796       -1.82445397546281       -1.14241425874634
C            0.52764044671251       -1.59199963507629       -0.11696824855668
C            0.97663977970637       -0.30134720679620        0.40506782665297
C            0.42698267853179        0.69623191482376       -0.31631754118924
O            0.52496165153528        1.87779352326858       -0.38673398552735
N           -1.81998385335892        1.36423640060731       -0.68100879277011
C           -2.26811625264028        2.66072293445696       -0.57982443525290
C           -2.24971442276480        0.28900772319994       -0.47340238247176
O           -2.52852297452146       -0.82229639261212       -0.36534205202666
N           -0.46591555887189       -2.29371529037401        0.02020739657955
C           -1.30533720360313       -2.82991297316595        0.97443144905365
H            3.74906835746058        0.41847640751152        1.50987177468577
H            3.87803801087428        1.33578624161659       -0.00878867333300
H            2.57323734449460        1.70444572356356        1.10946900306067
H            3.62533124446077       -1.32571666390573       -1.04784062322111
H           -1.46924232912116        3.29303161734385       -0.20407980761168
H           -2.53612084129667        2.90442757616540       -1.59404633722678
H           -3.12344835978885        2.65177095680645        0.07779215932146
H           -0.76935533377768       -2.77031442763419        1.91758242834324
H           -1.38571728762987       -3.81769717794898        0.56084580648404
H           -2.31203917355819       -2.43844968890167        1.08487600456417
H            1.13242020690078       -1.73967554719843       -2.07464746834671
25
 energy: 142.280634948564 xtb: 6.6.1 (8d0f1dd)
C            3.19199299302771        0.90069157921863        0.71939168443213
N            2.38018845014188       -0.12875428537604        0.13997726960642
C            2.67930762545248       -1.05822110268870       -0.78316872145968
N            1.58225684881314       -1.85514520113101       -1.15595776699669
C            0.57171659534409       -1.63125665783537       -0.07442130656486
C            1.02206280063703       -0.30811209519596        0.41268881020914
C            0.40203716429488        0.60290496990519       -0.37722852463977
O            0.41728446109231        1.79164568653539       -0.40805060404970
N           -1.90295250438038        1.44575091195292       -0.73673241153504
C           -2.31987001992952        2.74548276048805       -0.56207496414375
C           -2.26151949804978        0.35511220170355       -0.48556802547363
O           -2.41205051516215       -0.77738013769716       -0.35105426960669
N           -0.44305062118800       -2.19590949662500        0.24315438159495
C           -1.32955550894906       -2.91908468980257        0.98218314687372
H            3.75447791653134        0.42412002568264        1.52445130912096
H            3.88690711695150        1.35683548825821        0.01091021463618
H            2.56883330979034        1.69439881680814        1.13691334502455
H            3.67360836293576       -1.33520881944970       -1.00783506792385
H           -1.49075677628144        3.33726422829015       -0.18919217869387
H           -2.60885108214289        3.02022520536528       -1.56178391486300
H           -3.13474546706607        2.71823789566023        0.14312439777136
H           -0.82003298257606       -2.93434326336405        1.94143990542618
H           -1.37934748135515       -3.86788053930084        0.48340133236789
H           -2.32287579085023       -2.49533072500812        1.12082094122053
H            1.16278851259903       -1.55888386113110       -2.04060595476882
25
 energy: 154.108367369608 xtb: 6.6.1 (8d0f1dd)
C            3.16215551209179        0.90435691860752        0.72602503167304
N            2.37952243020107       -0.15276591099238        0.12449725306553
C            2.73773902530850       -1.07542010952152       -0.80264831788164
N            1.97288206226869       -1.74364781225533       -1.55803166059980
C            0.38776029356727       -1.53112989419727        0.26281151547292
C            1.00163741330229       -0.34497174360168        0.35564195602064
C            0.40320910818272        0.48950610228668       -0.66109808198764
O            0.36980685157267        1.67474818618320       -0.48762640684504
N           -1.98396091845838        1.52250621888541       -0.74411603632802
C           -2.36045498112334        2.82039305503468       -0.55683732568105
C           -2.27087757404888        0.41863568573170       -0.49022670189472
O           -2.29177275014606       -0.72502552012464       -0.33208627132707
N           -0.47662603156404       -2.33436527903610        0.27440994100245
C           -1.37555517491466       -3.01122680510561        1.03789539836241
H            3.74410893084954        0.46894919011415        1.53919492067426
H            3.86094489947148        1.37028749251255        0.02047280285842
H            2.54038661122719        1.69640504680314        1.14733119132611
H            3.77477411051416       -1.34162449935107       -0.81441465832010
H           -1.51242374945813        3.37968038187018       -0.17395554739106
H           -2.63553460261289        3.12808082954366       -1.54892535869739
H           -3.16995913497895        2.81315107569362        0.15720246692667
H           -0.86051368294973       -3.04998029894644        1.98218862453113
H           -1.43727311464500       -3.93100659375163        0.49593082282664
H           -2.34351251348173       -2.52946970099259        1.15582346837768
H            1.11130784243750       -1.28370451133599       -1.86904180993404
25
 energy: 181.286018839415 xtb: 6.6.1 (8d0f1dd)
C            3.20978892078763        0.95056613391531        0.72901828497608
N            2.41333398681032       -0.09089939593695        0.14805814652219
C            2.75087393311551       -1.09539627143087       -0.70595820747336
N            2.00426746544667       -1.66887411973228       -1.54747296661762
C            0.11207226766118       -1.18671405957384        0.04917563147736
C            1.04972385135290       -0.06686094542259        0.41687328318872
C            0.16958651057872       -0.11998772058231       -0.99869854961108
O            0.37724198026239        1.01742787454146       -0.29952051137057
N           -1.98522157358881        1.58608335058784       -0.75964571513018
C           -2.39218147344766        2.88580945180137       -0.56204701836447
C           -2.29989057202265        0.48523509184066       -0.49789855327207
O           -2.31034863671063       -0.65440608114356       -0.31388416786357
N           -0.35675427302974       -2.24412666277561        0.39559834124778
C           -1.31493023394466       -3.01445427153173        1.01257454694000
H            3.76725306589617        0.52041938126863        1.55419533118193
H            3.89655935499708        1.38629049540872        0.00148124543000
H            2.56742536563419        1.72301984760607        1.14659927452438
H            3.77223114458277       -1.40573116960675       -0.69724108134653
H           -1.55468516560122        3.44147890416924       -0.15175037269718
H           -2.65662802982653        3.21442719739254       -1.55267448318488
H           -3.22546028626612        2.86418061356310        0.12547224806407
H           -0.87192679252122       -3.14922012897137        1.99582547647742
H           -1.40304146297579       -3.91665310462291        0.43622719090321
H           -2.29428695769273       -2.53138730974027        1.13826792940913
H            1.14648132634727       -1.14144547732023       -1.80639329975127
25