72
 energy: 16.837284319388 xtb: 6.6.1 (8d0f1dd)
N           -1.78184424823541        3.03996503838490        2.41355715751308
C           -1.74421216608347        2.23219950736310        1.45023199530864
C           -2.88786328879696        2.11409221720916        0.46111679126423
C           -3.63889412469110        0.78290103195433        0.69650758092653
C           -4.56267529633684        0.39692969625738       -0.28266344735485
C           -4.93664402742678       -0.91561621365420       -0.47727507213792
O           -5.78510697541341       -1.35527613800532       -1.44849542296868
C           -6.41703161709311       -0.42712808553097       -2.26511235800347
C           -4.38042470937079       -1.92430106077856        0.33157419689128
O           -4.76055084974563       -3.20646711766747        0.06429031504220
C           -4.31840986081846       -4.19569518130684        0.96224410876900
C           -3.58006043841121       -1.54634869042103        1.38636916230530
C           -3.19969753523964       -0.21614044934587        1.55227935668443
C           -2.26829119322598        2.09386162228194       -0.97684008909435
C           -1.37158057743714        0.95445486432711       -1.47902453197446
C           -0.03602719192765        0.90852851506765       -0.82759047270643
N            0.63101206062987       -0.23289895954167       -0.43112764152001
C            2.02736584705318       -0.18715468269417       -0.11532624494557
C            2.94365540510293       -0.66589367180517       -1.26535790148990
C            4.37843331155440       -0.51444211086143       -0.86450254358254
C            5.06014529070395        0.66827545542792       -1.06612084918587
C            6.37215489871192        0.82083604732482       -0.64127067502800
C            7.02967316723515       -0.21179051875939        0.01001989042508
O            8.31583074867625       -0.18111894021847        0.47189385888730
C            9.06568412730054        0.98415866553188        0.25388947621570
C            6.33276309666930       -1.41833627446398        0.24512828415445
O            7.02771495596576       -2.39276350497960        0.90127237720760
C            6.38869772446338       -3.62335395481298        1.12257550861871
C            5.02953356085261       -1.54613655515022       -0.19810425602824
C           -0.03915466712952       -1.48162099082439       -0.47058650528817
C           -3.86812244870673        3.30531082996122        0.50547224728029
C           -4.41121324886013        3.36421706179514        1.90785101389791
C           -3.30202446557349        4.65666585574626        0.19906940438103
H           -4.95157975668896        1.13476695126819       -0.95831884351694
H           -7.02550594250373        0.28020956013889       -1.67006348571149
H           -7.06999173079771       -0.99132623854151       -2.92719988350020
H           -5.68194743473083        0.11994108998505       -2.86296564132954
H           -4.58903745544315       -3.99364887391731        1.99214437365545
H           -4.76147331919106       -5.12037350924407        0.61464087690113
H           -3.24100122575765       -4.30856412125181        0.96919107956641
H           -3.18486129892037       -2.32154955506572        2.02513697746310
H           -2.53217473885957        0.01440672887319        2.35935713262837
H           -3.10782390791227        2.18017635508027       -1.66575023082959
H           -1.64246378430018        2.95222572567333       -1.11661506025781
H           -1.88656608869068        0.02577953390758       -1.30400222087457
H           -1.33159888191827        1.07395955142940       -2.57138233783618
H           -0.87668887991722        1.59350268779498        1.19494693801187
H            0.64510276522435        1.62993179313982       -1.21702902812647
H            2.24647528287156       -0.80337443856036        0.76864874755217
H            2.28344404295399        0.84876471032059        0.12926384229338
H            2.72421987010692       -0.04796946577428       -2.13730565298504
H            2.71953608865633       -1.71152924918412       -1.49665313222193
H            4.56593060114547        1.48980732389668       -1.55779894784976
H            6.86653332541568        1.76605897278414       -0.80861527474162
H            8.62465733048507        1.84901258475389        0.75907282618758
H            9.16274369255894        1.20066660023611       -0.81542202875631
H           10.04810336556109        0.78764803934998        0.68212889142085
H            7.13058711956912       -4.25319937037754        1.61270084225296
H            5.50937422674298       -3.51288616747387        1.76792232594712
H            6.06887129460834       -4.09656694495330        0.18487305930183
H            4.48164208448923       -2.45635534429174       -0.03252790656153
H           -0.25225143954516       -1.82186511962888       -1.49468615456711
H           -0.96951919639162       -1.40643242506785        0.09890693410254
H            0.59454250556361       -2.20971875796989        0.00832347936258
H           -4.67915023052755        3.16590126609995       -0.21103048581774
H           -3.79582426747758        3.96346960511721        2.54065006136859
H           -4.33843465336514        2.45333007704305        2.41050589859835
H           -5.44524075248921        3.43943005540321        1.89731975031458
H           -2.42561206293009        4.79900874325352        0.81615895987152
H           -3.03691387212068        4.73943616125405       -0.83297404247416
H           -4.06587670238880        5.39563454272957        0.44878751962296
H           -1.00964248685163        3.00458887883822        3.06047405918957
