25
 energy: 0.000000000000 xtb: 6.6.1 (8d0f1dd)
C            3.23720132972391        1.16630909158653        0.08434468864950
N            2.29877796055224        0.07527476373246        0.03981602671198
C            2.58028186251803       -1.21425391179017        0.03006175752192
N            1.43813944744728       -1.93419254010258        0.00098261751768
C            0.39035684826767       -1.05887462812143       -0.00790371763344
C            0.93510047688824        0.21347817468824        0.01709077332874
C            0.09450143016486        1.40504290868848       -0.00410946993748
O            0.49712746915594        2.54126690785742       -0.00342325656480
N           -1.25076628431515        1.06271869620815       -0.03085477937476
C           -2.21907191394203        2.15522079838987       -0.05001256521996
C           -1.81739470187490       -0.20012724136556       -0.04692818139228
O           -2.99983858926755       -0.37846413507442       -0.07008877579474
N           -0.92618577614240       -1.30210203518959       -0.03682761236648
C           -1.46982251276835       -2.64643077634382       -0.06029819901142
H            3.71247229913541        1.21471443890471        1.06488839270555
H            4.00791460421487        1.03430799217987       -0.67357688121503
H            2.69909982127087        2.09770098766290       -0.09130154035862
H            3.56654087521359       -1.63682977417947        0.04233139674524
H           -1.67107945562430        3.09322822573871       -0.02552706696334
H           -2.82428927394145        2.09428605349656       -0.95318074103337
H           -2.87644002486466        2.07745706351925        0.81450059976605
H           -1.17061985538665       -3.19584861009707        0.83242224714061
H           -1.14560246782873       -3.17511580834413       -0.95688266944647
H           -2.55549768731684       -2.55659960601237       -0.07459039105944
H            1.38130842369251       -2.94313824728853       -0.01389874052104
25
 energy: -4.831845117102 xtb: 6.6.1 (8d0f1dd)
C            3.21040173216333        1.25479308157190        0.09182461249012
N            2.34356702813868        0.09895311351583        0.03216763877026
C            2.62039031090262       -1.26623667181884        0.03495579410606
N            1.42047032727986       -1.96190873682225        0.00623770355368
C            0.40676918753186       -1.08420530516480       -0.01108589082782
C            0.94936806990046        0.18884764263763        0.00550077727046
C            0.13975011478377        1.33144977941495       -0.02376493591820
O            0.53680050015272        2.49634849658245       -0.06428414241636
N           -1.25609449499350        1.02069770097396       -0.03168542561976
C           -2.18051151076424        2.13719141977258       -0.04442258784418
C           -1.82194379311302       -0.21565707127244       -0.04937113447141
O           -3.02335387120208       -0.39925579114681       -0.07081064125895
N           -0.94043154450695       -1.31418132684691       -0.04137864193313
C           -1.50360646577213       -2.64206562828361       -0.06334699789589
H            3.72283309238211        1.35195372757040        1.05850151961487
H            3.98686539039789        1.21376161008278       -0.68305240795067
H            2.58052394667688        2.13629815519264       -0.05181471261537
H            3.58359566941772       -1.71540231727182        0.04683038922754
H           -1.61266337506347        3.06186414208028       -0.02571454543071
H           -2.77791499719281        2.11097877835652       -0.94954691587091
H           -2.81418162079708        2.09804942064539        0.83596533712550
H           -1.22286084307377       -3.20225556598639        0.83082621246237
H           -1.19694182356808       -3.18765430282323       -0.95817027622914
H           -2.58621636696004       -2.51671690386999       -0.08045120050967
H            1.31734583479920       -2.96153273515671       -0.00750881600078
25
 energy: 0.475315625535 xtb: 6.6.1 (8d0f1dd)
C            3.15350111748552        1.32098802528644        0.09462166444278
N            2.38124934664159        0.07329183283400        0.04440709126952
C            2.64485535207452       -1.30725291139521        0.04340765951333
N            1.43692378044002       -2.00566388666073        0.01763247469115
C            0.42313609824890       -1.12605380440176       -0.00768930449274
C            0.97924920113359        0.13920673750616        0.00288724082294
C            0.16788928216478        1.27302500320626       -0.05771657164645
O            0.55377486983074        2.43337197004337       -0.18394938813818
N           -1.23649251331419        0.98799321812557       -0.03434441811095
C           -2.13391249122382        2.12708358098739       -0.04078146899341
C           -1.80857806890240       -0.24047489211229       -0.05229369876495
O           -3.00879284918160       -0.42510478784505       -0.07431870948561
N           -0.92981636893085       -1.34244308100972       -0.04451784442388
C           -1.53436508166378       -2.65216565538080       -0.06611582479782
H            3.68849411874041        1.48394838103716        1.04346831957436
H            3.92315640616953        1.37947139183101       -0.69505305179541
H            2.44286814385917        2.14354438796682       -0.02082818582402
H            3.59131892573896       -1.79069039199781        0.05115082292720
H           -1.55423951708080        3.04039063398737       -0.02768846193353
H           -2.72779435657164        2.13213377392174       -0.94410922666734
H           -2.74748580476248        2.11978005595166        0.85126116442991
H           -1.27857100842254       -3.21929631424685        0.83057958101450
H           -1.25042094045899       -3.21079447565862       -0.95961108093510
H           -2.61275065683148       -2.48288205664945       -0.08714233348959
H            1.30201393571299       -3.00604524068021        0.01434456599795
25
 energy: 8.463453443573 xtb: 6.6.1 (8d0f1dd)
C            3.09355248497552        1.39233793876285        0.09804278962630
N            2.41868699261453        0.06456675034954        0.06300920843945
C            2.67743902715179       -1.33257642493887        0.05883911727982
N            1.46789175306210       -2.03742738631149        0.03062618355160
C            0.44381487374050       -1.16434072361738       -0.00499440998511
C            1.00946027333318        0.09883999841497       -0.00266761698828
C            0.19203798019251        1.22606024135296       -0.11368099439267
O            0.56838314474224        2.37952622864406       -0.33133387507519
N           -1.20822951042111        0.96355843737486       -0.04086783478932
C           -2.08487210752806        2.12134128650310       -0.03522073359094
C           -1.78580210763434       -0.25862258802369       -0.05675269446328
O           -2.98621830682700       -0.42395215336409       -0.07502902181083
N           -0.91688461249689       -1.37001904692625       -0.04933352068716
C           -1.56433215145768       -2.66219209449734       -0.07008018745144
H            3.63847538209101        1.61617411758011        1.02888682327771
H            3.84006946595676        1.53648719950469       -0.70960664989146
H            2.31252833806692        2.15133070424130        0.00898614714537
H            3.60370607479689       -1.85696168037123        0.06340946591251
H           -1.49382712397297        3.02279946588975       -0.02825795565607
H           -2.67765305732054        2.15609894960183       -0.93410903469786
H           -2.67593842444398        2.13877950057108        0.86951709842792
H           -1.33343537246909       -3.23598548582249        0.82923463240653
H           -1.30186071478463       -3.23529562630574       -0.96066790144622
H           -2.63800660448849       -2.45153199334177       -0.09691444059978
H            1.35331111991335       -3.04364391571253        0.03658657534404
25
 energy: 18.415642167486 xtb: 6.6.1 (8d0f1dd)
C            3.03795657350493        1.47029348236472        0.10599761731496
N            2.42603682781535        0.06396746194262        0.04298255178145
C            2.70382253116296       -1.33882067259577        0.08736895908390
N            1.50041601260778       -2.05957842879837        0.04810198462046
C            0.45963221817133       -1.20042600725730       -0.00707850416154
C            1.02664626452277        0.06449224820392       -0.02996919299009
C            0.21140053437564        1.18619220939751       -0.18309104376832
O            0.57001514673987        2.33119828386587       -0.48878502127916
N           -1.18094785196963        0.94242198451932       -0.04827965293091
C           -2.03699939262948        2.11750002910168       -0.02719044243102
C           -1.76466484268636       -0.27379088592942       -0.05792947310457
O           -2.96615666664773       -0.41666231568651       -0.06281358222694
N           -0.90719543970851       -1.39742777658077       -0.05429146242542
C           -1.59512642502915       -2.67171649680571       -0.07541910788868
H            3.57703600569599        1.73668608762975        1.01841961528196
H            3.74577614355978        1.68699705314621       -0.72108760174318
H            2.19515057777902        2.16444941624582        0.05301187880277
H            3.61154599416391       -1.90283500111366        0.09288358319284
H           -1.43441666106164        3.00744950258931       -0.03013485566872
H           -2.63076674621902        2.17865951341457       -0.91858498905136
H           -2.60297230804157        2.15736385474935        0.89091446878780
H           -1.38877042155437       -3.25167672839350        0.82634585568510
H           -1.35149910864864       -3.25804074626310       -0.96289022751156
H           -2.66325624911593       -2.42162188588277       -0.11031051978274
H            1.41304930628254       -3.07088251169489        0.06804349143289
25
 energy: 30.084419486170 xtb: 6.6.1 (8d0f1dd)
C            2.99352322393595        1.54425589297080        0.14727921683314
N            2.43156964726765        0.06181164379302        0.00850294650436
C            2.72399806376675       -1.34201705928337        0.14417310909390
N            1.52701294039892       -2.07921334011161        0.08136237546957
C            0.47347689412797       -1.23214755428470       -0.01500608564082
C            1.03960657441893        0.03453688953077       -0.07877283728464
C            0.22842743414455        1.15450922815555       -0.27150622804722
O            0.58291308476194        2.28178824193844       -0.64756996706905
N           -1.15099181216736        0.92900192367055       -0.06091300345402
C           -1.98843100242446        2.11601948238656       -0.01449285398338
C           -1.74512024981076       -0.28360235372812       -0.05581661076455
O           -2.94997655485850       -0.40264582064280       -0.02587128976254
N           -0.89859658383612       -1.42066273904371       -0.06249539638304
C           -1.62437814663446       -2.67963512216066       -0.08321471379383
H            3.56370116571740        1.86028126716170        1.01361209404030
H            3.61361122783858        1.81113233779647       -0.72707973239392
H            2.09895408374287        2.17197238840464        0.14838441221785
H            3.61379320079389       -1.94457010767912        0.14115775416964
H           -1.37718116735637        2.99646703252446       -0.03258013491052
H           -2.59454184709671        2.19660498369219       -0.88857155764408
H           -2.52401523573199        2.16689655346168        0.91916441705125
H           -1.43969135208695       -3.26484100028690        0.82054550526684
H           -1.40198277553307       -3.28018464101897       -0.96697205903946
H           -2.68685847280042       -2.39479660306263       -0.12537987215453
H            1.46870606210437       -3.09361445502426        0.11208308110325
25
 energy: 42.359491241337 xtb: 6.6.1 (8d0f1dd)
C            2.95079218906236        1.62106808694327        0.19765594500368
N            2.42824054807593        0.05003805930885       -0.05326893288223
C            2.71612237639583       -1.32907519629026        0.19900157445653
N            1.53547662873678       -2.09102338174997        0.13585485152207
C            0.47791860885981       -1.25881942163368       -0.02278665693034
C            1.03744140330325        0.00939241263058       -0.14100077872203
C            0.24119461457141        1.13256869634770       -0.36504373242871
O            0.60495500270035        2.23214317974160       -0.79955577656517
N           -1.12542053629996        0.91927966744800       -0.07656155470486
C           -1.94585903080091        2.11413005966974        0.00340674633939
C           -1.72990101678191       -0.29285019797808       -0.05520467760863
O           -2.93651793425532       -0.39014802819053        0.01225853655781
N           -0.89830763453368       -1.44229988220815       -0.06953217756458
C           -1.65603891714497       -2.68692940131229       -0.09079295838079
H            3.58836899029442        1.98639528423752        0.99406855641465
H            3.48944338420844        1.94961044249052       -0.72846138105535
H            2.03842680310834        2.18228475940935        0.29243626658982
H            3.60968000633266       -1.92993073210774        0.21864251074052
H           -1.32619422397267        2.98502116378474       -0.03791418353181
H           -2.59351543996067        2.20438294511128       -0.83258145999878
H           -2.44262757911813        2.17395922319938        0.95842872017947
H           -1.49620954268836       -3.27661069547473        0.81550613060362
H           -1.45011082149151       -3.29839183312917       -0.97082151210613
H           -2.71074934155802       -2.36600874625824       -0.14586206306482
H            1.52457901942197       -3.10675273290536        0.16723570049460
25
 energy: 49.025065975496 xtb: 6.6.1 (8d0f1dd)
C            2.98791589098537        1.88411155821230        0.28566837571432
N            2.39553229490182       -0.10365874404936       -0.13735143237702
C            2.65535194261061       -1.36540700906107        0.16049719369433
N            1.50259414040191       -2.13602311831966        0.18424167417354
C            0.45359675557683       -1.29783383498097       -0.02904470605706
C            1.03527525201250       -0.04889846418166       -0.20726164045105
C            0.25462490079934        1.10753841212734       -0.46067759279481
O            0.62402238092118        2.15733152494273       -0.94734127806907
N           -1.09426943555876        0.90285878522977       -0.09663696364742
C           -1.90432129440064        2.10914332389688        0.01912848012260
C           -1.71961758060319       -0.30940384148772       -0.05062210732590
O           -2.92543709336925       -0.38000272919641        0.05169329016894
N           -0.91354726589426       -1.46903854455039       -0.07547302071204
C           -1.69707923484529       -2.69597485464051       -0.09769642037792
H            3.73794132282759        2.12225940052180        0.99468283013746
H            3.38284046961298        2.11888689741046       -0.72270372871631
H            2.02173071741772        2.25231252888465        0.47239404434473
H            3.59585936714984       -1.88324574227284        0.26370753470531
H           -1.27810664817207        2.97153739804921       -0.04510822370928
H           -2.60647330544720        2.20249394264373       -0.77001364072205
H           -2.36033711486482        2.16943300611614        0.99695383247995
H           -1.55404886598421       -3.28767345870096        0.81057750071444
H           -1.50360886048516       -3.31621169622975       -0.97453745803805
H           -2.74084627015690       -2.34092760868461       -0.16234827612524
H            1.52781941566330       -3.14197106628539        0.23392579691815
25
 energy: 45.855913274091 xtb: 6.6.1 (8d0f1dd)
C            2.98092598790145        1.99413067851506        0.32729730583394
N            2.37956019276290       -0.13947254831853       -0.18844156531401
C            2.63346808072306       -1.38153276920680        0.13212804898888
N            1.48481360225850       -2.15029146376227        0.20971353168002
C            0.44113845271164       -1.32058870367019       -0.04704731680867
C            1.02451619317133       -0.07723661006505       -0.26775298480354
C            0.25999145486062        1.08428970994334       -0.54642583762363
O            0.63904984559159        2.09974887585186       -1.08342637062381
N           -1.07396453695607        0.88868288783474       -0.11909495066615
C           -1.86657343356617        2.10328235853900        0.03793942954546
C           -1.71082865242268       -0.32091097112869       -0.04587912249745
O           -2.91479495612556       -0.37514508215596        0.09384379432580
N           -0.92335935916824       -1.49100288692904       -0.08708689805587
C           -1.73295647661889       -2.70160567838934       -0.10788199942603
H            3.82579268126686        2.02429093129661        0.96408449487353
H            3.25987336337576        2.25361524323048       -0.70415742064086
H            2.01483331284362        2.26757489693003        0.62794173164876
H            3.60020112800316       -1.83034938868050        0.29108368674229
H           -1.23171470855073        2.95684937403174       -0.05133695683893
H           -2.61792049103168        2.20758241980276       -0.70311931977397
H           -2.27920334503016        2.16147484639199        1.03923068619337
H           -1.61136941363390       -3.29430827841038        0.80434066427142
H           -1.55540763515042       -3.33370249505678       -0.97954480045876
H           -2.76727311252021       -2.31786909508323       -0.18727483055306
H            1.50840959651797       -3.15000361052532        0.30768062558234
25
 energy: 43.992893415428 xtb: 6.6.1 (8d0f1dd)
C            2.96229565372320        2.11261492293947        0.38515855382214
N            2.37030817444799       -0.18270944663797       -0.23835132458367
C            2.60669815425441       -1.41479775064555        0.10085657501209
N            1.45090020059771       -2.16675150646501        0.21837438502417
C            0.42178149821079       -1.33070125884391       -0.07291145286960
C            1.01872150048083       -0.10028582382135       -0.32786258882705
C            0.26362566182234        1.06795404191608       -0.63263447942844
O            0.63764367230405        2.05267126537395       -1.22525399102719
N           -1.05698499641290        0.88147662263174       -0.14985187372008
C           -1.83214310250162        2.09717706947518        0.05781663525799
C           -1.70813244597792       -0.31911985616324       -0.04101531200862
O           -2.90711184198014       -0.36270648243360        0.13713206974016
N           -0.93991545805228       -1.50329817157733       -0.10308132243809
C           -1.76791267979605       -2.70332072371970       -0.12065820050392
H            3.84861055601224        1.99276767072235        0.95019373207550
H            3.11011489626402        2.31179099091004       -0.66659072269623
H            2.00831354618511        2.27122654077057        0.77725197426472
H            3.57491313152481       -1.83442827024731        0.28951538930549
H           -1.18969956987273        2.94329397090688       -0.05396012842357
H           -2.62740469134365        2.21648188507108       -0.63497752353219
H           -2.20359206279741        2.14413838174858        1.08118652557749
H           -1.66812002629464       -3.29601201306847        0.79647376898514
H           -1.60515428856518       -3.34847495869910       -0.98586795640681
H           -2.79238094465895       -2.29616909381058       -0.21859266543653
H            1.44509162564442       -3.16085240262297        0.34954776859645
25
 energy: 43.010201550660 xtb: 6.6.1 (8d0f1dd)
C            2.93546508024208        2.24453078292321        0.43328312133173
N            2.38012752697840       -0.23735997091600       -0.27552090446096
C            2.58640453082621       -1.46689486430352        0.08407303622360
N            1.41854687654892       -2.19689281087545        0.20315688547559
C            0.40777201039834       -1.34052693883145       -0.10461721882602
C            1.02633391997516       -0.12522099992701       -0.38357707148796
C            0.25932211147342        1.04203892415194       -0.71010089620217
O            0.60081692034670        2.00279367579905       -1.34900871444764
N           -1.04626348869345        0.87677686389418       -0.17816314011787
C           -1.80014368810244        2.09177622231625        0.08213240857250
C           -1.70433843421443       -0.31390912794916       -0.03613159515456
O           -2.89652282940773       -0.34795061744484        0.17756060522015
N           -0.95506609508613       -1.51088508730434       -0.12362437187105
C           -1.79754989197748       -2.70444998592204       -0.13649309742394
H            3.86241159792974        2.15242440680915        0.93692354050186
H            2.94350939333933        2.32449587483966       -0.63536159875119
H            2.00921352375605        2.26036887870855        0.91895044040009
H            3.54123027108870       -1.90333188743183        0.29469204687161
H           -1.14812728785028        2.92854930846587       -0.05440329147605
H           -2.63343835545015        2.22607655314789       -0.56444431994057
H           -2.12868449513911        2.12479651735853        1.12418718962322
H           -1.72094396305985       -3.29492467374337        0.78650451599398
H           -1.65611686296080       -3.36279011365968       -0.99527463864196
H           -2.80865590326171       -2.28351220610453       -0.25860625364637
H            1.39012243538684       -3.18555732962498        0.37593512379496
25
 energy: 42.301466063247 xtb: 6.6.1 (8d0f1dd)
C            2.93203609819943        2.37027604007811        0.48583686534887
N            2.39267967547100       -0.29356348616519       -0.30802046905330
C            2.57004210146087       -1.52463186352225        0.06528558677587
N            1.38762394243316       -2.23125414401307        0.17768055694782
C            0.39731439581399       -1.35265474596037       -0.13366357242416
C            1.03579878891345       -0.15024458125429       -0.42725597409937
C            0.24600509889272        1.01401213348329       -0.75151089459016
O            0.55257258959304        1.94052723510237       -1.45129855159906
N           -1.04192961062627        0.87595233412141       -0.19647338730521
C           -1.77313300852266        2.09105643655089        0.10749959538269
C           -1.70432649999544       -0.30483302620105       -0.02756422907508
O           -2.89077352795167       -0.32980096379110        0.21575797255871
N           -0.96819255774997       -1.50501701966793       -0.13245748845316
C           -1.81692874909834       -2.70221513957369       -0.15795419661671
H            3.88099866619547        2.31297426339496        0.94361529121623
H            2.87879397535720        2.42330893879287       -0.56592303490788
H            2.04572312725950        2.23046839882565        1.03522075202581
H            3.51193234645371       -1.97852556641035        0.29488304091198
H           -1.11238329786023        2.92117907456020       -0.05664081816161
H           -2.64018296216400        2.23626636636529       -0.49438195696121
H           -2.05655266041041        2.10016227390983        1.16406319738581
H           -1.77736547233135       -3.28822165895028        0.77383046224713
H           -1.64517478212205       -3.37285937743243       -1.00571664439085
H           -2.81865398008318       -2.27792030938743       -0.30928238372841
H            1.31861231991332       -3.21312704219148        0.37377426978758
25
 energy: 40.517240371155 xtb: 6.6.1 (8d0f1dd)
C            2.94211100054405        2.48150838371049        0.51532000459461
N            2.40799077945473       -0.35801166840125       -0.33700429635032
C            2.55412048750062       -1.58826255464004        0.05198815251515
N            1.35595744567773       -2.26995420294776        0.15760416938657
C            0.38866292113924       -1.37162915936253       -0.16298144280761
C            1.04971812409750       -0.18851886775763       -0.47753592941072
C            0.26263047612503        0.99013561782350       -0.78906881752295
O            0.61124573553706        1.96813635732288       -1.38784759205018
N           -1.03145732157068        0.87698794525880       -0.23093155494089
C           -1.74229591954265        2.08967046497033        0.13121781617937
C           -1.69979570666660       -0.29383227522836       -0.01699097087775
O           -2.88155250583564       -0.30684411918294        0.25095260857716
N           -0.97498625954510       -1.49558009604812       -0.13107964171287
C           -1.81750014800412       -2.70073017294643       -0.17695470878656
H            3.90073186047595        2.46169671875132        0.95922685553678
H            2.85740412825711        2.60289453318550       -0.52500151066318
H            2.05708664217633        2.28500557756212        1.09379994462886
H            3.48264767481556       -2.06052377557834        0.29842575646312
H           -1.07277443860902        2.90924216504071       -0.05636630149516
H           -2.64409247916818        2.24669549706682       -0.42237415694848
H           -1.98287433607696        2.07103796333675        1.19793534926869
H           -1.82477667865208       -3.28515384358818        0.75945998381497
H           -1.58598201319808       -3.37311814810055       -1.00611479031776
H           -2.80824651302176       -2.28319291706496       -0.36355548830626
H            1.23956891626931       -3.24274146100255        0.37304190235092
25
 energy: 40.372880372328 xtb: 6.6.1 (8d0f1dd)
C            2.98620346050560        2.60166373352655        0.51265814056020
N            2.42229317848111       -0.42388361611341       -0.35351926279572
C            2.54136234310276       -1.65419578874126        0.03961961699854
N            1.32957196127292       -2.31519235465913        0.14383109579013
C            0.38174620988093       -1.39822024458164       -0.17784372783891
C            1.06652792158627       -0.23567497928638       -0.50435510614385
C            0.30305208681840        0.95581213761468       -0.77858220453888
O            0.68188854881339        1.97540848792319       -1.27867612417246
N           -1.01890288605905        0.87210480231869       -0.25663839268546
C           -1.70880543518732        2.08638779580473        0.15552142323629
C           -1.69262052524195       -0.28345449933882        0.00028082388767
O           -2.86860120932292       -0.28064802164851        0.29017668967230
N           -0.97785653118603       -1.48744434090297       -0.12480346895684
C           -1.80568314442647       -2.69360655626288       -0.18648293868328
H            3.93067467801268        2.60409213995434        0.99164523520300
H            2.86748913453785        2.79317997456542       -0.51023232424231
H            2.08244360361637        2.40481003026922        1.06270657897257
H            3.45905252178834       -2.14005968548065        0.29905345357296
H           -1.03110529967429        2.89245810944359       -0.05878774244185
H           -2.64149280371408        2.26293080796228       -0.34850737913460
H           -1.90720148259252        2.05023917287211        1.23298459615273
H           -1.86760367624422       -3.27763021561824        0.74864667330977
H           -1.53172850599722       -3.36658076993051       -1.00132158639370
H           -2.79728747459531       -2.30062128015877       -0.40295881686504
H            1.17556528916989       -3.27949058137043        0.37025686258764
25
 energy: 39.486584523137 xtb: 6.6.1 (8d0f1dd)
C            3.04744022025584        2.72495490018224        0.47805257311200
N            2.41039588951704       -0.47589126439774       -0.33957372826350
C            2.51941404908707       -1.71368687088837        0.02577487984061
N            1.30033715192197       -2.36243021459619        0.12475298381930
C            0.36374946459142       -1.42441071521098       -0.16894625187287
C            1.05953771489146       -0.26602757180471       -0.47132699865615
C            0.32594655579711        0.94676451907867       -0.70867938344568
O            0.73785325783095        1.98233869383724       -1.14269145959636
N           -1.00632026481156        0.86790618504469       -0.23039182781477
C           -1.67705457299975        2.09333140957705        0.17473852014632
C           -1.69634081641698       -0.28023389495702        0.01311695198917
O           -2.87458226090896       -0.27471484897841        0.29218830041449
N           -0.99371764773297       -1.48521659447333       -0.11276102728706
C           -1.80020054899904       -2.68857868191702       -0.19162841146751
H            3.95444385284001        2.75677034586260        1.02037718485479
H            2.96617095734269        2.94143184473842       -0.54735262037815
H            2.12981351810249        2.48607271757554        0.97458141616313
H            3.43729796259713       -2.21166048796864        0.26580246039330
H           -0.98155813406141        2.87578662840830       -0.06493587031180
H           -2.60392420480990        2.29573864963319       -0.33952443691724
H           -1.84476049788956        2.06353733890038        1.25778623761840
H           -1.91002022444161       -3.26004133615509        0.74081236956318
H           -1.47931058864430       -3.36044198186306       -0.98955660901211
H           -2.79844108939698       -2.33290001871355       -0.43611266439665
H            1.13627152396953       -3.32987114430575        0.33487746609347
25