      -----------------------------------------------------------      
     |                   =====================                   |     
     |                           x T B                           |     
     |                   =====================                   |     
     |                         S. Grimme                         |     
     |          Mulliken Center for Theoretical Chemistry        |     
     |                    University of Bonn                     |     
      -----------------------------------------------------------      

   * xtb version 6.6.1 (8d0f1dd) compiled by 'conda@1efc2f54142f' on 2023-08-01

   xtb is free software: you can redistribute it and/or modify it under
   the terms of the GNU Lesser General Public License as published by
   the Free Software Foundation, either version 3 of the License, or
   (at your option) any later version.
   
   xtb is distributed in the hope that it will be useful,
   but WITHOUT ANY WARRANTY; without even the implied warranty of
   MERCHANTABILITY or FITNESS FOR A PARTICULAR PURPOSE.  See the
   GNU Lesser General Public License for more details.
   
   Cite this work as:
   * C. Bannwarth, E. Caldeweyher, S. Ehlert, A. Hansen, P. Pracht,
     J. Seibert, S. Spicher, S. Grimme, WIREs Comput. Mol. Sci., 2020, 11,
     e01493. DOI: 10.1002/wcms.1493
   
   for GFN2-xTB:
   * C. Bannwarth, S. Ehlert and S. Grimme., J. Chem. Theory Comput., 2019,
     15, 1652-1671. DOI: 10.1021/acs.jctc.8b01176
   for GFN1-xTB:
   * S. Grimme, C. Bannwarth, P. Shushkov, J. Chem. Theory Comput., 2017,
     13, 1989-2009. DOI: 10.1021/acs.jctc.7b00118
   for GFN0-xTB:
   * P. Pracht, E. Caldeweyher, S. Ehlert, S. Grimme, ChemRxiv, 2019, preprint.
     DOI: 10.26434/chemrxiv.8326202.v1
   for GFN-FF:
   * S. Spicher and S. Grimme, Angew. Chem. Int. Ed., 2020, 59, 15665-15673.
     DOI: 10.1002/anie.202004239
   
   for ALPB and GBSA implicit solvation:
   * S. Ehlert, M. Stahn, S. Spicher, S. Grimme, J. Chem. Theory Comput.,
     2021, 17, 4250-4261. DOI: 10.1021/acs.jctc.1c00471
   
   for DFT-D4:
   * E. Caldeweyher, C. Bannwarth and S. Grimme, J. Chem. Phys., 2017,
     147, 034112. DOI: 10.1063/1.4993215
   * E. Caldeweyher, S. Ehlert, A. Hansen, H. Neugebauer, S. Spicher,
     C. Bannwarth and S. Grimme, J. Chem. Phys., 2019, 150, 154122.
     DOI: 10.1063/1.5090222
   * E. Caldeweyher, J.-M. Mewes, S. Ehlert and S. Grimme, Phys. Chem. Chem. Phys.
     2020, 22, 8499-8512. DOI: 10.1039/D0CP00502A
   
   for sTDA-xTB:
   * S. Grimme and C. Bannwarth, J. Chem. Phys., 2016, 145, 054103.
     DOI: 10.1063/1.4959605
   
   in the mass-spec context:
   * V. Asgeirsson, C. Bauer and S. Grimme, Chem. Sci., 2017, 8, 4879.
     DOI: 10.1039/c7sc00601b
   * J. Koopman and S. Grimme, ACS Omega 2019, 4, 12, 15120-15133.
     DOI: 10.1021/acsomega.9b02011
   
   for metadynamics refer to:
   * S. Grimme, J. Chem. Theory Comput., 2019, 155, 2847-2862
     DOI: 10.1021/acs.jctc.9b00143
   
   for SPH calculations refer to:
   * S. Spicher and S. Grimme, J. Chem. Theory Comput., 2021, 17, 1701-1714
     DOI: 10.1021/acs.jctc.0c01306
   
   with help from (in alphabetical order)
   P. Atkinson, C. Bannwarth, F. Bohle, G. Brandenburg, E. Caldeweyher
   M. Checinski, S. Dohm, S. Ehlert, S. Ehrlich, I. Gerasimov, C. Hölzer
   A. Katbashev, J. Koopman, C. Lavigne, S. Lehtola, F. März, M. Müller,
   F. Musil, H. Neugebauer, J. Pisarek, C. Plett, P. Pracht, F. Pultar,
   J. Seibert, P. Shushkov, S. Spicher, M. Stahn, M. Steiner, T. Strunk,
   J. Stückrath, T. Rose, and J. Unsleber
   
 * started run on 2024/04/06 at 11:13:07.617     

           -------------------------------------------------
          |                Calculation Setup                |
           -------------------------------------------------

          program call               : xtb xtbopt.xyz --opt crude --input .xc2 --gfn2
          hostname                   : n-62-30-23
          coordinate file            : xtbopt.xyz
          omp threads                :                     1

   ID    Z sym.   atoms
    1    7 N      1, 17
    2    6 C      2-6, 8, 9, 11-16, 18-23, 25, 26, 28-33
    3    8 O      7, 10, 24, 27
    4    1 H      34-72

molecular fragmentation (1/2 indicates fragments):
111111111111111111111111111111112111111111111111111111111111111111112221
# atoms in fragment 1/2:    68     4
 fragment masses (1/2) :      440.58       15.03
CMA distance (Bohr)    :  15.814
constraining FC (au)   :  0.0500
########################################################################
[WARNING] Please study the warnings concerning your input carefully
-1- readin_getIntValue: could not parse ''
########################################################################

           -------------------------------------------------
          |                 G F N 2 - x T B                 |
           -------------------------------------------------

        Reference                      10.1021/acs.jctc.8b01176
      * Hamiltonian:
        H0-scaling (s, p, d)           1.850000    2.230000    2.230000
        zeta-weighting                 0.500000
      * Dispersion:
        s8                             2.700000
        a1                             0.520000
        a2                             5.000000
        s9                             5.000000
      * Repulsion:
        kExp                           1.500000    1.000000
        rExp                           1.000000
      * Coulomb:
        alpha                          2.000000
        third order                    shell-resolved
        anisotropic                    true
        a3                             3.000000
        a5                             4.000000
        cn-shift                       1.200000
        cn-exp                         4.000000
        max-rad                        5.000000

q/qsh data taken from xtbrestart
CAMM data taken from xtbrestart

          ...................................................
          :                      SETUP                      :
          :.................................................:
          :  # basis functions                 171          :
          :  # atomic orbitals                 171          :
          :  # shells                          105          :
          :  # electrons                       180          :
          :  max. iterations                   250          :
          :  Hamiltonian                  GFN2-xTB          :
          :  restarted?                       true          :
          :  GBSA solvation                  false          :
          :  PC potential                    false          :
          :  electronic temp.         5000.0000000     K    :
          :  accuracy                    1.0000000          :
          :  -> integral cutoff          0.2500000E+02      :
          :  -> integral neglect         0.1000000E-07      :
          :  -> SCF convergence          0.1000000E-05 Eh   :
          :  -> wf. convergence          0.1000000E-03 e    :
          :  Broyden damping             0.4000000          :
          ...................................................

 iter      E             dE          RMSdq      gap      omega  full diag
   1   -100.6467789 -0.100647E+03  0.587E-05    0.14       0.0  T
   2   -100.6467789  0.353840E-08  0.182E-04    0.14      64.8  T
   3   -100.6467789 -0.384455E-08  0.227E-05    0.14     518.1  T

   *** convergence criteria satisfied after 3 iterations ***

         #    Occupation            Energy/Eh            Energy/eV
      -------------------------------------------------------------
         1        2.0000           -0.8042971             -21.8860
       ...           ...                  ...                  ...
        84        1.9976           -0.5138609             -13.9829
        85        1.9888           -0.4891740             -13.3111
        86        1.9835           -0.4830280             -13.1439
        87        1.9819           -0.4815373             -13.1033
        88        1.9172           -0.4569543             -12.4344
        89        1.8713           -0.4495918             -12.2340
        90        0.9682           -0.4061961             -11.0532 (HOMO)
        91        0.8074           -0.4010257             -10.9125 (LUMO)
        92        0.4443           -0.3873597             -10.5406
        93        0.0356           -0.3436843              -9.3521
        94        0.0055           -0.3138467              -8.5402
        95        0.0044           -0.3104667              -8.4482
       ...           ...                  ...                  ...
       171                          0.5839435              15.8899
      -------------------------------------------------------------
                  HL-Gap            0.0051704 Eh            0.1407 eV
             Fermi-level           -0.4072031 Eh          -11.0806 eV

 SCC (total)                   0 d,  0 h,  0 min,  0.118 sec
 SCC setup                      ...        0 min,  0.001 sec (  0.819%)
 Dispersion                     ...        0 min,  0.002 sec (  1.436%)
 classical contributions        ...        0 min,  0.000 sec (  0.420%)
 integral evaluation            ...        0 min,  0.018 sec ( 15.169%)
 iterations                     ...        0 min,  0.027 sec ( 23.223%)
 molecular gradient             ...        0 min,  0.069 sec ( 58.354%)
 printout                       ...        0 min,  0.001 sec (  0.565%)

         :::::::::::::::::::::::::::::::::::::::::::::::::::::
         ::                     SUMMARY                     ::
         :::::::::::::::::::::::::::::::::::::::::::::::::::::
         :: total energy             -99.263503960341 Eh    ::
         :: gradient norm              0.003072236894 Eh/a0 ::
         :: HOMO-LUMO gap              0.140694463697 eV    ::
         ::.................................................::
         :: SCC energy              -100.646778928235 Eh    ::
         :: -> isotropic ES            0.108369701474 Eh    ::
         :: -> anisotropic ES          0.003598572678 Eh    ::
         :: -> anisotropic XC          0.048239627085 Eh    ::
         :: -> dispersion             -0.072028367612 Eh    ::
         :: repulsion energy           1.382277418724 Eh    ::
         :: add. restraining           0.000000000000 Eh    ::
         :: total charge               1.000000000000 e     ::
         :::::::::::::::::::::::::::::::::::::::::::::::::::::

      ----------------------------------------------------------- 
     |                   =====================                   |
     |                        A N C O P T                        |
     |                   =====================                   |
     |               Approximate Normal Coordinate               |
     |                Rational Function Optimizer                |
      ----------------------------------------------------------- 

          ...................................................
          :                      SETUP                      :
          :.................................................:
          :   optimization level             crude          :
          :   max. optcycles                   200          :
          :   ANC micro-cycles                  20          :
          :   degrees of freedom               210          :
          :.................................................:
          :   RF solver                   davidson          :
          :   write xtbopt.log                true          :
          :   linear?                        false          :
          :   energy convergence         0.5000000E-03 Eh   :
          :   grad. convergence          0.1000000E-01 Eh/α :
          :   maxmium RF displ.          1.0000000          :
          :   Hlow (freq-cutoff)         0.1000000E-01      :
          :   Hmax (freq-cutoff)         5.0000000          :
          :   S6 in model hess.         20.0000000          :
          ...................................................

generating ANC from model Hessian ...
Using Lindh-Hessian (1995)
 Shifting diagonal of input Hessian by    1.0067058812440849E-002
 Lowest  eigenvalues of input Hessian
    0.010000    0.010023    0.000000    0.000000    0.000000    0.000000
    0.000000    0.000000    0.010118    0.010144    0.010232    0.010309
    0.010402    0.010508    0.010580    0.010727    0.010834    0.010835
 Highest eigenvalues
    1.969238    2.044903    2.048840    2.092792    2.179519    2.183091


........................................................................
.............................. CYCLE    1 ..............................
........................................................................

 iter      E             dE          RMSdq      gap      omega  full diag
   1   -100.6467789 -0.100647E+03  0.300E-05    0.14       0.0  T
   2   -100.6467789  0.187646E-08  0.146E-04    0.14      80.9  T
   3   -100.6467789 -0.194818E-08  0.866E-06    0.14    1361.6  T
     SCC iter.                  ...        0 min,  0.026 sec
     gradient                   ...        0 min,  0.074 sec
 * total energy  :   -99.2635040 Eh     change       -0.2813749E-10 Eh
   gradient norm :     0.0030725 Eh/α   predicted     0.0000000E+00 (-100.00%)
   displ. norm   :     0.0357877 α      lambda       -0.9338071E-05
   maximum displ.:     0.0122450 α      in ANC's #12, #24, #17, ...

   *** GEOMETRY OPTIMIZATION CONVERGED AFTER 1 ITERATIONS ***

------------------------------------------------------------------------
 total energy gain   :        -0.0000000 Eh       -0.0000 kcal/mol
 total RMSD          :         0.0000000 a0        0.0000 Å
 total power (kW/mol):        -0.0000001 (step)   -0.0000 (real)
------------------------------------------------------------------------

 ANCopt (total)                0 d,  0 h,  0 min,  0.172 sec
 optimizer setup                ...        0 min,  0.000 sec (  0.166%)
 model hessian                  ...        0 min,  0.041 sec ( 23.715%)
 ANC generation                 ...        0 min,  0.006 sec (  3.714%)
 coordinate transformation      ...        0 min,  0.000 sec (  0.032%)
 single point calculation       ...        0 min,  0.122 sec ( 70.801%)
 optimization log               ...        0 min,  0.002 sec (  1.076%)
 hessian update                 ...        0 min,  0.000 sec (  0.001%)
 rational function              ...        0 min,  0.000 sec (  0.096%)

================
 final structure:
================
72
 xtb: 6.6.1 (8d0f1dd)
N           -2.05863213349512        2.64414221412227        2.03105959217030
C           -1.85861154718321        2.05644116779248        0.94537067516476
C           -2.95259508571798        1.74804301163816       -0.06648708515063
C           -3.44731548813098        0.31816459899221        0.15027956249598
C           -4.47588162558006       -0.15066489349345       -0.66901410867071
C           -4.96925886429675       -1.43738671554990       -0.53887462712716
O           -5.95391924137558       -1.97494652794038       -1.28905223115636
C           -6.58141009755150       -1.18240664776862       -2.26929090150038
C           -4.42440594254684       -2.29535598073909        0.45364724052785
O           -4.96212669790318       -3.53202870536127        0.51283788664490
C           -4.52970104519629       -4.41556186420946        1.52089221999271
C           -3.41275448929028       -1.81586750273214        1.26913873914491
C           -2.92688945118522       -0.52187190677380        1.11758244227828
C           -2.34971761080850        1.89283969354577       -1.48522772808874
C           -1.37283997434413        0.77349290710668       -1.88230793297282
C           -0.05443466763398        0.86046153734750       -1.21335790041586
N            0.61972500033073       -0.17401676977146       -0.71073228676069
C            1.99626682614160       -0.01571793606903       -0.30716866322120
C            2.97550070352106       -0.45864351854381       -1.41230182220396
C            4.38823538034730       -0.22707806068255       -0.95654664577403
C            5.01092163324958        0.99003344911468       -1.17505612062581
C            6.30012677311012        1.21915385834340       -0.71872936076579
C            6.99020986908703        0.23398377735997       -0.02834311799145
O            8.24075001515379        0.34686870092872        0.46078218561780
C            8.95350053693568        1.54338294221663        0.24881822502017
C            6.35867906169743       -1.01833698652813        0.20192642717511
O            7.10092801644872       -1.92107720582490        0.87678085703908
C            6.56904967225729       -3.20042479423639        1.12271806004546
C            5.06982188961697       -1.22412650014214       -0.26222444334545
C            0.07774036765122       -1.51084251703312       -0.70662158000764
C           -4.08830242946233        2.69737450796781        0.09762222533070
C           -4.85738991421789        2.73714168273949        1.33947966273208
C           -4.81827795691106        6.12158224340872        1.98132679419673
H           -4.89919496184969        0.51634099031696       -1.40232150381079
H           -7.05472408823153       -0.29899880958626       -1.83009027323142
H           -7.34594003892687       -1.81791430199285       -2.71210078057742
H           -5.87591123818318       -0.87154022959053       -3.04693245093892
H           -4.70506754814588       -4.00171586835094        2.51821128325144
H           -5.12556767044242       -5.31721375643686        1.39479257336097
H           -3.46929837337893       -4.66494311135158        1.40928129473853
H           -2.99327096173295       -2.44010354260408        2.04127681694710
H           -2.15126545055419       -0.17811258556515        1.78447463193508
H           -3.16965945822527        1.88546995819587       -2.20357508674776
H           -1.85400977080457        2.86359072588973       -1.56072127487137
H           -1.84743117628218       -0.19100602702867       -1.71042661137383
H           -1.20259870601531        0.87053948329268       -2.96359625749868
H           -0.87264207002837        1.70817714078736        0.59065254898492
H            0.47272717789505        1.80105098536892       -1.26129014130853
H            2.17610531359057       -0.60700171084715        0.59472260251720
H            2.18500783406513        1.03331235447309       -0.06953959643462
H            2.77173095061696        0.12133972775586       -2.31422539097633
H            2.81906706643682       -1.51439085502746       -1.63706571449641
H            4.49794570908502        1.77064523040415       -1.71620001945579
H            6.76116577270836        2.17413407138966       -0.91011435922897
H            8.45916431286775        2.39482245045588        0.72689849202863
H            9.08416946611462        1.74813083167019       -0.81802775595293
H            9.92769268909725        1.38803590352564        0.70837878824294
H            7.34670235546660       -3.74246955226353        1.65719660744471
H            5.67103195747176       -3.14941924809650        1.74708618128887
H            6.33793506055838       -3.72532960130803        0.19048478719294
H            4.58342485286868       -2.17328111169677       -0.09983610964520
H           -0.02597540147364       -1.90035974239320       -1.72199422843615
H           -0.90262717353533       -1.52445608465650       -0.22514018006762
H            0.74526580065917       -2.16434471237439       -0.15085689595335
H           -4.21298530276128        3.47797350282094       -0.63526106255488
H           -4.18690809558415        3.07720120171218        2.14323028989628
H           -5.18917398546200        1.74225940283555        1.64182527817035
H           -5.70387271743500        3.41504272028729        1.27423033237576
H           -4.12774908957267        5.79019836938744        2.72504516308713
H           -4.45809883976206        6.44615573572218        1.02893273140269
H           -5.85862606092566        6.20716113470044        2.21459251554297
H           -1.25701402590717        2.80840719345323        2.63034137795632

 Bond Distances (Angstroems)
 ---------------------------
N1-C2=1.2506         N1-H72=1.0143        C2-N1=1.2506         C2-C3=1.5218         C2-H47=1.1042        C3-C2=1.5218         
C3-C4=1.5285         C3-C14=1.5483        C3-C31=1.4893        C4-C3=1.5285         C4-C5=1.3961         C4-C13=1.3828        
C5-C4=1.3961         C5-C6=1.3842         C5-H34=1.0779        C6-C5=1.3842         C6-O7=1.3496         C6-C9=1.4206         
O7-C6=1.3496         O7-C8=1.4081         C8-O7=1.4081         C8-H35=1.0942        C8-H36=1.0883        C8-H37=1.0950        
C9-C6=1.4206         C9-O10=1.3498        C9-C12=1.3851        O10-C9=1.3498        O10-C11=1.4085       C11-O10=1.4085       
C11-H38=1.0939       C11-H39=1.0881       C11-H40=1.0950       C12-C9=1.3851        C12-C13=1.3905       C12-H41=1.0779       
C13-C4=1.3828        C13-C12=1.3905       C13-H42=1.0791       C14-C3=1.5483        C14-C15=1.5378       C14-H43=1.0901       
C14-H44=1.0926       C15-C14=1.5378       C15-C16=1.4810       C15-H45=1.0886       C15-H46=1.0989       C16-C15=1.4810       
C16-N17=1.3331       C16-H48=1.0793       N17-C16=1.3331       N17-C18=1.4432       N17-C30=1.4425       C18-N17=1.4432       
C18-C19=1.5416       C18-H49=1.0933       C18-H50=1.0920       C19-C18=1.5416       C19-C20=1.5024       C19-H51=1.0915       
C19-H52=1.0907       C20-C19=1.5024       C20-C21=1.3845       C20-C29=1.3931       C21-C20=1.3845       C21-C22=1.3866       
C21-H53=1.0795       C22-C21=1.3866       C22-C23=1.3869       C22-H54=1.0776       C23-C22=1.3869       C23-O24=1.3475       
C23-C26=1.4213       O24-C23=1.3475       O24-C25=1.4088       C25-O24=1.4088       C25-H55=1.0945       C25-H56=1.0941       
C25-H57=1.0883       C26-C23=1.4213       C26-O27=1.3496       C26-C29=1.3853       O27-C26=1.3496       O27-C28=1.4072       
C28-O27=1.4072       C28-H58=1.0882       C28-H59=1.0949       C28-H60=1.0945       C29-C20=1.3931       C29-C26=1.3853       
C29-H61=1.0788       C30-N17=1.4425       C30-H62=1.0925       C30-H63=1.0923       C30-H64=1.0870       C31-C3=1.4893        
C31-C32=1.4613       C31-H65=1.0780       C32-C31=1.4613       C32-H66=1.1005       C32-H67=1.0915       C32-H68=1.0864       
C33-H69=1.0676       C33-H70=1.0687       C33-H71=1.0696       H34-C5=1.0779        H35-C8=1.0942        H36-C8=1.0883        
H37-C8=1.0950        H38-C11=1.0939       H39-C11=1.0881       H40-C11=1.0950       H41-C12=1.0779       H42-C13=1.0791       
H43-C14=1.0901       H44-C14=1.0926       H45-C15=1.0886       H46-C15=1.0989       H47-C2=1.1042        H48-C16=1.0793       
H49-C18=1.0933       H50-C18=1.0920       H51-C19=1.0915       H52-C19=1.0907       H53-C21=1.0795       H54-C22=1.0776       
H55-C25=1.0945       H56-C25=1.0941       H57-C25=1.0883       H58-C28=1.0882       H59-C28=1.0949       H60-C28=1.0945       
H61-C29=1.0788       H62-C30=1.0925       H63-C30=1.0923       H64-C30=1.0870       H65-C31=1.0780       H66-C32=1.1005       
H67-C32=1.0915       H68-C32=1.0864       H69-C33=1.0676       H70-C33=1.0687       H71-C33=1.0696       H72-N1=1.0143        
 C  H  Rav=1.0878 sigma=0.0087  Rmin=1.0676  Rmax=1.1042    38
 C  C  Rav=1.4442 sigma=0.0627  Rmin=1.3828  Rmax=1.5483    21
 N  H  Rav=1.0143 sigma=0.0000  Rmin=1.0143  Rmax=1.0143     1
 N  C  Rav=1.3674 sigma=0.0809  Rmin=1.2506  Rmax=1.4432     4
 O  C  Rav=1.3786 sigma=0.0295  Rmin=1.3475  Rmax=1.4088     8

 selected bond angles (degree)
 --------------------
H72-N1-C2=117.56               C3-C2-N1=123.88                H47-C2-N1=124.74               H47-C2-C3=111.37               
C4-C3-C2=109.15                C14-C3-C2=108.08               C14-C3-C4=110.09               C31-C3-C2=110.23               
C31-C3-C4=109.50               C31-C3-C14=109.77              C5-C4-C3=117.99                C13-C4-C3=123.07               
C13-C4-C5=118.93               C6-C5-C4=121.31                H34-C5-C4=118.74               H34-C5-C6=119.95               
O7-C6-C5=125.32                C9-C6-C5=119.37                C9-C6-O7=115.32                C8-O7-C6=119.20                
H35-C8-O7=111.58               H36-C8-O7=105.52               H36-C8-H35=109.32              H37-C8-O7=111.53               
H37-C8-H35=109.54              H37-C8-H36=109.23              O10-C9-C6=115.54               C12-C9-C6=118.84               
C12-C9-O10=125.61              C11-O10-C9=118.93              

 selected dihedral angles (degree)
 ---------------------------------
C3-C2-N1-H72=180.58           H47-C2-N1-H72=359.70          C4-C3-C2-N1=264.01            C4-C3-C2-H47= 84.78           
C14-C3-C2-N1=144.28           C14-C3-C2-H47=325.06          C31-C3-C2-N1= 24.31           C31-C3-C2-H47=205.09          
C5-C4-C3-C2=178.85            C5-C4-C3-C14=297.33           C5-C4-C3-C31= 58.10           C13-C4-C3-C2=359.06           
C13-C4-C3-C14=117.53          C13-C4-C3-C31=238.31          C6-C5-C4-C3=179.51            C6-C5-C4-C13=359.31           
H34-C5-C4-C3=358.40           H34-C5-C4-C13=178.20          O7-C6-C5-C4=180.33            O7-C6-C5-H34=  1.45           
C9-C6-C5-C4=  0.41            C9-C6-C5-H34=181.53           C8-O7-C6-C5=358.09            C8-O7-C6-C9=178.01            
H35-C8-O7-C6=300.22           H36-C8-O7-C6=181.59           H37-C8-O7-C6= 63.09           O10-C9-C6-C5=180.00           
O10-C9-C6-O7=  0.08           C12-C9-C6-C5=  0.18           C12-C9-C6-O7=180.26           C11-O10-C9-C6=183.64          
C11-O10-C9-C12=  3.44         

 CMA Distance (Angstroems)
 ---------------------------
R(CMA):  8.3686
           -------------------------------------------------
          |                Final Singlepoint                |
           -------------------------------------------------

          ...................................................
          :                      SETUP                      :
          :.................................................:
          :  # basis functions                 171          :
          :  # atomic orbitals                 171          :
          :  # shells                          105          :
          :  # electrons                       180          :
          :  max. iterations                   250          :
          :  Hamiltonian                  GFN2-xTB          :
          :  restarted?                      false          :
          :  GBSA solvation                  false          :
          :  PC potential                    false          :
          :  electronic temp.         5000.0000000     K    :
          :  accuracy                    1.0000000          :
          :  -> integral cutoff          0.2500000E+02      :
          :  -> integral neglect         0.1000000E-07      :
          :  -> SCF convergence          0.1000000E-05 Eh   :
          :  -> wf. convergence          0.1000000E-03 e    :
          :  Broyden damping             0.4000000          :
          ...................................................

 iter      E             dE          RMSdq      gap      omega  full diag
   1   -100.6467789 -0.100647E+03  0.133E-05    0.14       0.0  T
   2   -100.6467789  0.220098E-09  0.453E-05    0.14     260.3  T
   3   -100.6467789 -0.230187E-09  0.923E-06    0.14    1276.3  T

   *** convergence criteria satisfied after 3 iterations ***

         #    Occupation            Energy/Eh            Energy/eV
      -------------------------------------------------------------
         1        2.0000           -0.8042969             -21.8860
       ...           ...                  ...                  ...
        84        1.9976           -0.5138608             -13.9829
        85        1.9888           -0.4891740             -13.3111
        86        1.9835           -0.4830280             -13.1439
        87        1.9819           -0.4815373             -13.1033
        88        1.9172           -0.4569543             -12.4344
        89        1.8713           -0.4495918             -12.2340
        90        0.9682           -0.4061964             -11.0532 (HOMO)
        91        0.8074           -0.4010259             -10.9125 (LUMO)
        92        0.4443           -0.3873597             -10.5406
        93        0.0356           -0.3436844              -9.3521
        94        0.0055           -0.3138467              -8.5402
        95        0.0044           -0.3104667              -8.4482
       ...           ...                  ...                  ...
       171                          0.5839436              15.8899
      -------------------------------------------------------------
                  HL-Gap            0.0051705 Eh            0.1407 eV
             Fermi-level           -0.4072032 Eh          -11.0806 eV

 SCC (total)                   0 d,  0 h,  0 min,  0.116 sec
 SCC setup                      ...        0 min,  0.001 sec (  0.753%)
 Dispersion                     ...        0 min,  0.002 sec (  1.426%)
 classical contributions        ...        0 min,  0.000 sec (  0.370%)
 integral evaluation            ...        0 min,  0.018 sec ( 15.296%)
 iterations                     ...        0 min,  0.026 sec ( 22.745%)
 molecular gradient             ...        0 min,  0.068 sec ( 58.852%)
 printout                       ...        0 min,  0.001 sec (  0.546%)

         :::::::::::::::::::::::::::::::::::::::::::::::::::::
         ::                     SUMMARY                     ::
         :::::::::::::::::::::::::::::::::::::::::::::::::::::
         :: total energy             -99.263503960367 Eh    ::
         :: gradient norm              0.003072372470 Eh/a0 ::
         :: HOMO-LUMO gap              0.140697673877 eV    ::
         ::.................................................::
         :: SCC energy              -100.646778928261 Eh    ::
         :: -> isotropic ES            0.108369948256 Eh    ::
         :: -> anisotropic ES          0.003598617543 Eh    ::
         :: -> anisotropic XC          0.048239629067 Eh    ::
         :: -> dispersion             -0.072028363056 Eh    ::
         :: repulsion energy           1.382277418724 Eh    ::
         :: add. restraining           0.000000000000 Eh    ::
         :: total charge               1.000000000000 e     ::
         :::::::::::::::::::::::::::::::::::::::::::::::::::::

           -------------------------------------------------
          |                Property Printout                |
           -------------------------------------------------

    * Orbital Energies and Occupations

         #    Occupation            Energy/Eh            Energy/eV
      -------------------------------------------------------------
         1        2.0000           -0.8042969             -21.8860
       ...           ...                  ...                  ...
        78        1.9993           -0.5342365             -14.5373
        79        1.9992           -0.5310643             -14.4510
        80        1.9989           -0.5263278             -14.3221
        81        1.9988           -0.5248467             -14.2818
        82        1.9986           -0.5225020             -14.2180
        83        1.9981           -0.5174826             -14.0814
        84        1.9976           -0.5138608             -13.9829
        85        1.9888           -0.4891740             -13.3111
        86        1.9835           -0.4830280             -13.1439
        87        1.9819           -0.4815373             -13.1033
        88        1.9172           -0.4569543             -12.4344
        89        1.8713           -0.4495918             -12.2340
        90        0.9682           -0.4061964             -11.0532 (HOMO)
        91        0.8074           -0.4010259             -10.9125 (LUMO)
        92        0.4443           -0.3873597             -10.5406
        93        0.0356           -0.3436844              -9.3521
        94        0.0055           -0.3138467              -8.5402
        95        0.0044           -0.3104667              -8.4482
        96        0.0033           -0.3056927              -8.3183
        97        0.0028           -0.3031822              -8.2500
        98        0.0000           -0.1873892              -5.0991
        99        0.0000           -0.1805613              -4.9133
       100                         -0.1280549              -3.4846
       101                         -0.0612184              -1.6658
       ...                                ...                  ...
       171                          0.5839436              15.8899
      -------------------------------------------------------------
                  HL-Gap            0.0051705 Eh            0.1407 eV
             Fermi-level           -0.4072032 Eh          -11.0806 eV

     #   Z          covCN         q      C6AA      α(0)
     1   7 N        1.773    -0.284    28.172     7.860
     2   6 C        2.825     0.096    25.860     8.333
     3   6 C        3.910     0.015    20.270     6.399
     4   6 C        2.976     0.001    28.002     8.680
     5   6 C        2.921    -0.080    29.999     8.982
     6   6 C        2.863     0.129    25.163     8.222
     7   8 O        1.706    -0.232    17.848     5.704
     8   6 C        3.645     0.028    20.441     6.498
     9   6 C        2.864     0.128    25.195     8.228
    10   8 O        1.706    -0.232    17.848     5.704
    11   6 C        3.645     0.028    20.439     6.497
    12   6 C        2.915    -0.076    29.892     8.965
    13   6 C        2.920    -0.056    29.380     8.889
    14   6 C        3.810    -0.067    21.774     6.642
    15   6 C        3.802    -0.067    21.787     6.645
    16   6 C        2.843    -0.003    28.088     8.686
    17   7 N        2.729     0.004    21.193     6.837
    18   6 C        3.756    -0.015    20.901     6.519
    19   6 C        3.808    -0.070    21.832     6.651
    20   6 C        2.970    -0.002    28.067     8.690
    21   6 C        2.922    -0.050    29.242     8.868
    22   6 C        2.914    -0.068    29.705     8.937
    23   6 C        2.865     0.132    25.112     8.214
    24   8 O        1.706    -0.226    17.752     5.689
    25   6 C        3.645     0.026    20.464     6.501
    26   6 C        2.863     0.132    25.117     8.215
    27   8 O        1.706    -0.229    17.792     5.695
    28   6 C        3.645     0.029    20.429     6.496
    29   6 C        2.920    -0.080    30.009     8.983
    30   6 C        3.699    -0.069    21.988     6.706
    31   6 C        2.900    -0.033    28.812     8.801
    32   6 C        3.752    -0.120    22.853     6.817
    33   6 C        2.780    -0.144    31.685     9.220
    34   1 H        0.926     0.050     2.315     2.379
    35   1 H        0.924     0.052     2.301     2.372
    36   1 H        0.925     0.080     1.976     2.198
    37   1 H        0.924     0.047     2.361     2.403
    38   1 H        0.924     0.053     2.288     2.365
    39   1 H        0.925     0.080     1.979     2.200
    40   1 H        0.924     0.047     2.364     2.404
    41   1 H        0.926     0.050     2.314     2.379
    42   1 H        0.926     0.035     2.520     2.483
    43   1 H        0.925     0.060     2.202     2.321
    44   1 H        0.924     0.050     2.326     2.385
    45   1 H        0.925     0.065     2.141     2.288
    46   1 H        0.923     0.076     2.019     2.222
    47   1 H        0.923     0.019     2.749     2.593
    48   1 H        0.926     0.064     2.154     2.295
    49   1 H        0.924     0.065     2.139     2.287
    50   1 H        0.924     0.065     2.142     2.289
    51   1 H        0.924     0.053     2.282     2.362
    52   1 H        0.924     0.054     2.271     2.357
    53   1 H        0.926     0.043     2.413     2.429
    54   1 H        0.926     0.056     2.244     2.343
    55   1 H        0.924     0.052     2.295     2.369
    56   1 H        0.924     0.054     2.272     2.357
    57   1 H        0.925     0.080     1.976     2.198
    58   1 H        0.925     0.080     1.980     2.201
    59   1 H        0.924     0.046     2.365     2.405
    60   1 H        0.924     0.051     2.310     2.377
    61   1 H        0.926     0.045     2.381     2.413
    62   1 H        0.924     0.073     2.051     2.239
    63   1 H        0.924     0.078     1.999     2.211
    64   1 H        0.925     0.078     2.002     2.213
    65   1 H        0.926     0.050     2.324     2.384
    66   1 H        0.923     0.121     1.603     1.980
    67   1 H        0.924     0.074     2.044     2.236
    68   1 H        0.925     0.066     2.130     2.282
    69   1 H        0.927     0.061     2.186     2.312
    70   1 H        0.927     0.058     2.217     2.329
    71   1 H        0.927     0.063     2.163     2.300
    72   1 H        0.860     0.161     1.326     1.804

 Mol. C6AA /au·bohr⁶  :      48071.652656
 Mol. C8AA /au·bohr⁸  :    1099121.744867
 Mol. α(0) /au        :        338.737088


Wiberg/Mayer (AO) data.
largest (>0.10) Wiberg bond orders for each atom

 ---------------------------------------------------------------------------
     #   Z sym  total        # sym  WBO       # sym  WBO       # sym  WBO
 ---------------------------------------------------------------------------
     1   7 N    3.038 --     2 C    1.951    72 H    0.939
     2   6 C    3.877 --     1 N    1.951     3 C    0.948    47 H    0.902
     3   6 C    3.983 --    31 C    1.032    14 C    0.962     2 C    0.948
                             4 C    0.938
     4   6 C    3.933 --    13 C    1.427     5 C    1.366     3 C    0.938
     5   6 C    3.965 --     6 C    1.405     4 C    1.366    34 H    0.960
     6   6 C    3.916 --     5 C    1.405     9 C    1.226     7 O    1.097
     7   8 O    2.260 --     6 C    1.097     8 C    0.979
     8   6 C    3.934 --     7 O    0.979    36 H    0.977    37 H    0.974
                            35 H    0.974
     9   6 C    3.914 --    12 C    1.399     6 C    1.226    10 O    1.098
    10   8 O    2.257 --     9 C    1.098    11 C    0.978
    11   6 C    3.934 --    10 O    0.978    39 H    0.977    40 H    0.974
                            38 H    0.974
    12   6 C    3.966 --     9 C    1.399    13 C    1.395    41 H    0.964
    13   6 C    3.964 --     4 C    1.427    12 C    1.395    42 H    0.963
    14   6 C    3.973 --    15 C    0.986    44 H    0.975    43 H    0.971
                             3 C    0.962
    15   6 C    3.988 --    16 C    1.057    14 C    0.986    45 H    0.962
                            46 H    0.929
    16   6 C    3.547 --    17 N    1.375    15 C    1.057    48 H    0.958
    17   7 N    3.448 --    16 C    1.375    30 C    1.000    18 C    0.990
    18   6 C    3.957 --    17 N    0.990    50 H    0.968    19 C    0.966
                            49 H    0.965
    19   6 C    3.975 --    20 C    1.008    51 H    0.972    52 H    0.972
                            18 C    0.966
    20   6 C    3.950 --    21 C    1.414    29 C    1.377    19 C    1.008
    21   6 C    3.955 --    22 C    1.414    20 C    1.414    53 H    0.968
    22   6 C    3.963 --    21 C    1.414    23 C    1.388    54 H    0.963
    23   6 C    3.901 --    22 C    1.388    26 C    1.224    24 O    1.105
    24   8 O    2.254 --    23 C    1.105    25 C    0.977
    25   6 C    3.931 --    24 O    0.977    57 H    0.977    56 H    0.973
                            55 H    0.973
    26   6 C    3.905 --    29 C    1.399    23 C    1.224    27 O    1.098
    27   8 O    2.254 --    26 C    1.098    28 C    0.980
    28   6 C    3.934 --    27 O    0.980    58 H    0.977    59 H    0.974
                            60 H    0.974
    29   6 C    3.962 --    26 C    1.399    20 C    1.377    61 H    0.963
    30   6 C    3.959 --    17 N    1.000    64 H    0.978    62 H    0.967
                            63 H    0.962
    31   6 C    3.246 --    32 C    1.130     3 C    1.032    65 H    0.970
    32   6 C    3.960 --    31 C    1.130    68 H    0.976    67 H    0.945
                            66 H    0.879
    33   6 C    2.986 --    70 H    0.994    71 H    0.994    69 H    0.993
    34   1 H    0.996 --     5 C    0.960
    35   1 H    0.995 --     8 C    0.974
    36   1 H    0.993 --     8 C    0.977
    37   1 H    0.995 --     8 C    0.974
    38   1 H    0.994 --    11 C    0.974
    39   1 H    0.993 --    11 C    0.977
    40   1 H    0.995 --    11 C    0.974
    41   1 H    0.996 --    12 C    0.964
    42   1 H    0.998 --    13 C    0.963
    43   1 H    0.995 --    14 C    0.971
    44   1 H    0.997 --    14 C    0.975
    45   1 H    0.995 --    15 C    0.962
    46   1 H    0.966 --    15 C    0.929
    47   1 H    0.986 --     2 C    0.902
    48   1 H    0.995 --    16 C    0.958
    49   1 H    0.991 --    18 C    0.965
    50   1 H    0.994 --    18 C    0.968
    51   1 H    0.996 --    19 C    0.972
    52   1 H    0.996 --    19 C    0.972
    53   1 H    0.998 --    21 C    0.968
    54   1 H    0.995 --    22 C    0.963
    55   1 H    0.993 --    25 C    0.973
    56   1 H    0.993 --    25 C    0.973
    57   1 H    0.993 --    25 C    0.977
    58   1 H    0.993 --    28 C    0.977
    59   1 H    0.994 --    28 C    0.974
    60   1 H    0.994 --    28 C    0.974
    61   1 H    0.997 --    29 C    0.963
    62   1 H    0.984 --    30 C    0.967
    63   1 H    0.987 --    30 C    0.962
    64   1 H    0.994 --    30 C    0.978
    65   1 H    0.996 --    31 C    0.970
    66   1 H    0.926 --    32 C    0.879
    67   1 H    0.966 --    32 C    0.945
    68   1 H    0.992 --    32 C    0.976
    69   1 H    0.996 --    33 C    0.993
    70   1 H    0.996 --    33 C    0.994
    71   1 H    0.996 --    33 C    0.994
    72   1 H    0.968 --     1 N    0.939
 ---------------------------------------------------------------------------

Topologies differ in total number of bonds
Writing topology from bond orders to xtbtopo.mol

molecular dipole:
                 x           y           z       tot (Debye)
 q only:       -0.273       0.413      -0.483
   full:        0.088       0.515      -0.640       2.100
molecular quadrupole (traceless):
                xx          xy          yy          xz          yz          zz
 q only:       50.049      -6.779     -12.071       1.652      -5.640     -37.978
  q+dip:       41.974      -4.416      -8.545       3.106      -9.323     -33.429
   full:       41.286      -4.616      -8.530       1.227      -8.260     -32.756

           -------------------------------------------------
          |                Geometry Summary                 |
           -------------------------------------------------

      molecular mass/u    :      455.6105846
   center of mass at/Å    :        0.0147131      -0.0460536      -0.0251103
  moments of inertia/u·Å² :        0.2757577E+04   0.1139567E+05   0.1294955E+05
rotational constants/cm⁻¹ :        0.6113205E-02   0.1479302E-02   0.1301793E-02

 * 65 selected distances

     #   Z          #   Z                                           value/Å
     1   7 N        2   6 C                                       1.2506484
     4   6 C        5   6 C                                       1.3960630
     5   6 C        6   6 C                                       1.3842004
     6   6 C        7   8 O                                       1.3495530
     7   8 O        8   6 C                                       1.4080953
     6   6 C        9   6 C                                       1.4205900
     9   6 C       10   8 O                                       1.3498174
    10   8 O       11   6 C                                       1.4084732
     9   6 C       12   6 C                                       1.3850540
     4   6 C       13   6 C                                       1.3828159
    12   6 C       13   6 C                                       1.3904888
    14   6 C       15   6 C                                       1.5378232
    15   6 C       16   6 C                                       1.4809627
    16   6 C       17   7 N                                       1.3331427
    17   7 N       18   6 C                                       1.4431874
    18   6 C       19   6 C                                       1.5415582 (max)
    20   6 C       21   6 C                                       1.3845018
    21   6 C       22   6 C                                       1.3866436
    22   6 C       23   6 C                                       1.3868700
    23   6 C       24   8 O                                       1.3475302
    24   8 O       25   6 C                                       1.4087543
    23   6 C       26   6 C                                       1.4213243
    26   6 C       27   8 O                                       1.3495563
    27   8 O       28   6 C                                       1.4071639
    20   6 C       29   6 C                                       1.3931078
    26   6 C       29   6 C                                       1.3852576
    17   7 N       30   6 C                                       1.4425213
    31   6 C       32   6 C                                       1.4612622
     5   6 C       34   1 H                                       1.0778826
     8   6 C       35   1 H                                       1.0942271
     8   6 C       36   1 H                                       1.0883275
     8   6 C       37   1 H                                       1.0950311
    11   6 C       38   1 H                                       1.0939230
    11   6 C       39   1 H                                       1.0880875
    11   6 C       40   1 H                                       1.0950352
    12   6 C       41   1 H                                       1.0778843
    13   6 C       42   1 H                                       1.0791239
    14   6 C       43   1 H                                       1.0901294
    14   6 C       44   1 H                                       1.0926039
    15   6 C       45   1 H                                       1.0885947
    15   6 C       46   1 H                                       1.0989016
    16   6 C       48   1 H                                       1.0793080
    18   6 C       49   1 H                                       1.0933282
    18   6 C       50   1 H                                       1.0920419
    19   6 C       51   1 H                                       1.0914985
    19   6 C       52   1 H                                       1.0906846
    21   6 C       53   1 H                                       1.0795073
    22   6 C       54   1 H                                       1.0775772
    25   6 C       55   1 H                                       1.0944764
    25   6 C       56   1 H                                       1.0941465
    25   6 C       57   1 H                                       1.0882919
    28   6 C       58   1 H                                       1.0882205
    28   6 C       59   1 H                                       1.0949307
    28   6 C       60   1 H                                       1.0945310
    29   6 C       61   1 H                                       1.0788173
    30   6 C       62   1 H                                       1.0924571
    30   6 C       63   1 H                                       1.0923051
    30   6 C       64   1 H                                       1.0869820
    31   6 C       65   1 H                                       1.0779605
    32   6 C       66   1 H                                       1.1005461
    32   6 C       67   1 H                                       1.0914598
    32   6 C       68   1 H                                       1.0864348
    33   6 C       69   1 H                                       1.0675967 (min)
    33   6 C       70   1 H                                       1.0687056
    33   6 C       71   1 H                                       1.0696079

 * 4 distinct bonds (by element types)

   Z      Z             #   av. dist./Å        max./Å        min./Å
   1 H    6 C          37     1.0873288     1.1005461     1.0675967
   6 C    6 C          16     1.4211577     1.5415582     1.3828159
   6 C    7 N           4     1.3673750     1.4431874     1.2506484
   6 C    8 O           8     1.3786180     1.4087543     1.3475302


optimized geometry written to: xtbopt.xyz


           -------------------------------------------------
          | TOTAL ENERGY              -99.263503960367 Eh   |
          | GRADIENT NORM               0.003072372470 Eh/α |
          | HOMO-LUMO GAP               0.140697673877 eV   |
           -------------------------------------------------

------------------------------------------------------------------------
 * finished run on 2024/04/06 at 11:13:08.079     
------------------------------------------------------------------------
 total:
 * wall-time:     0 d,  0 h,  0 min,  0.462 sec
 *  cpu-time:     0 d,  0 h,  0 min,  0.432 sec
 * ratio c/w:     0.934 speedup
 SCF:
 * wall-time:     0 d,  0 h,  0 min,  0.118 sec
 *  cpu-time:     0 d,  0 h,  0 min,  0.118 sec
 * ratio c/w:     0.997 speedup
 ANC optimizer:
 * wall-time:     0 d,  0 h,  0 min,  0.296 sec
 *  cpu-time:     0 d,  0 h,  0 min,  0.288 sec
 * ratio c/w:     0.974 speedup

