72
 energy: 0.000000000000 xtb: 6.6.1 (8d0f1dd)
N           -1.47310934822924        2.74401318561852        2.22063942287560
C           -1.55658894218425        2.16490305624665        1.13274284460745
C           -2.74549225258129        2.05621251263064        0.23826250649470
C           -3.31377583855761        0.64333417511334        0.32332515650284
C           -4.30230195924506        0.24487112428158       -0.58026167086503
C           -4.85238808050968       -1.02286499940159       -0.53363593669082
O           -5.81420026757557       -1.48606047972767       -1.36157895357670
C           -6.39655692584623       -0.60827005826649       -2.29568495601309
C           -4.39972542350640       -1.94646120241305        0.44396933240983
O           -4.98748357557592       -3.16146026488900        0.41085995818162
C           -4.66362171172287       -4.10093865802695        1.40909140816864
C           -3.42072545213514       -1.54561399150247        1.33436558640148
C           -2.88302826362110       -0.26315802838497        1.27400162590187
C           -2.19303818453636        2.30467021687947       -1.18742988123374
C           -1.26651549989641        1.17243380322503       -1.65249445018642
C            0.01082525039567        1.09745464658138       -0.89354811789923
N            0.61779399208289       -0.02034948241203       -0.57705527866251
C            2.00145228921113       -0.02376006609561       -0.15611401051620
C            2.92554961797610       -0.53865287672537       -1.27700100652360
C            4.35756883501756       -0.43050761225877       -0.83075552032494
C            5.07346182539911        0.73206415878124       -1.03980975472950
C            6.38628045899965        0.84224449235903       -0.60344828301384
C            7.00047329721665       -0.20824758267940        0.05722314949100
O            8.26703733840855       -0.21011315050632        0.52410948507466
C            9.06912311989339        0.92943609656965        0.31863060963839
C            6.27040022445068       -1.40439766990411        0.28033468609137
O            6.94830004375713       -2.38012947787858        0.92752007684741
C            6.31537376337817       -3.61583233633369        1.15217722400438
C            4.96302840674480       -1.49347485723979       -0.16064431849589
C           -0.05511211878686       -1.29906259857679       -0.62085692079872
C           -3.86758072907722        3.07992629005348        0.58498065642721
C           -4.49286201346546        2.77383518785172        1.94313307512182
C           -3.39165211343248        4.52917708609625        0.54797528556046
H           -4.66030069703099        0.94509076131725       -1.31640581036773
H           -6.85037992114187        0.25803164586058       -1.80468862056629
H           -7.17287509152171       -1.18600121846629       -2.79318183475679
H           -5.66836870040540       -0.26952968819383       -3.04040283452035
H           -4.88416765986127       -3.71589494995018        2.40913564538747
H           -5.29223619720187       -4.96637504833431        1.20969248126828
H           -3.61139846644506       -4.39919876145526        1.35529370415983
H           -3.07077825100221       -2.21868786295666        2.10002682176568
H           -2.14562774333496        0.02067850888151        2.01001363031684
H           -3.02188903413801        2.38238034416975       -1.88813562572432
H           -1.65198546223364        3.25146730843841       -1.20556295755141
H           -1.81103391047759        0.23006526775522       -1.62116316669324
H           -0.99335697743926        1.37490224954061       -2.69443281971844
H           -0.67628070635666        1.65183902374723        0.61785732877701
H            0.63525847086258        1.98466388206871       -0.92314029755375
H            2.11132572081740       -0.65949698961381        0.72532619960637
H            2.30680494458141        0.98978260887088        0.11078973822125
H            2.76694224489122        0.06750735773687       -2.17075272340394
H            2.67954606229959       -1.57455642411728       -1.51167757545099
H            4.62170041431221        1.56295626549351       -1.56123593485311
H            6.92357738865082        1.75715832247601       -0.79119604059515
H            8.65159193263071        1.81001840117181        0.81701562739969
H            9.20136256512460        1.14042868409438       -0.74698998879646
H           10.03428931104811        0.69003246578081        0.76064945022918
H            7.05567240429544       -4.23621211097668        1.65347581279537
H            5.43848051513375       -3.50813590722545        1.79970582482858
H            6.02060097762632       -4.09420535105165        0.21253284608183
H            4.40102799328555       -2.40127288651695       -0.00490198294521
H           -0.22071301762289       -1.61775598610935       -1.65116024301020
H           -1.01972267469312       -1.24102728946113       -0.10935207845464
H            0.55899959333766       -2.04486104898380       -0.12333731565713
H           -4.63991918782192        2.95501120214274       -0.18098089750912
H           -3.76095251366987        2.90314731895452        2.73380846416528
H           -4.87457659255110        1.75695657819473        1.97884621460846
H           -5.31925601899505        3.45579242388173        2.12325583951056
H           -2.60025614255587        4.69225089676674        1.27368930043085
H           -3.03987434616939        4.81897697030947       -0.43870979129779
H           -4.22191779840287        5.18069696155015        0.80616701440619
H           -0.59832439338922        2.77744720721660        2.72959009765665
72
 energy: -5.439361930687 xtb: 6.6.1 (8d0f1dd)
N           -1.49361388628400        2.78418979338907        2.23881355023363
C           -1.56707377334442        2.15582401821821        1.15892286868266
C           -2.75130748834475        2.06082799888102        0.24858755589105
C           -3.32167658640911        0.65009470996863        0.33010664897109
C           -4.30515120403324        0.24603087970928       -0.57571792838551
C           -4.85085363076120       -1.02319155794313       -0.53226090256720
O           -5.81448239105329       -1.49157561551987       -1.36611876445911
C           -6.38972614626041       -0.61311161446422       -2.30170322123519
C           -4.40175711884653       -1.94392007057319        0.44504739259272
O           -4.99193284222172       -3.16576308314089        0.41064707571283
C           -4.66609578149198       -4.10052545234281        1.41020294186899
C           -3.42887379624983       -1.54035132829118        1.33937866027930
C           -2.89484577133069       -0.25649096014771        1.28161343659738
C           -2.19898341581758        2.30085087596157       -1.18116504206335
C           -1.26503969724305        1.18435551627199       -1.67501368035212
C            0.00847028723176        1.12149452442219       -0.90071932954326
N            0.64002470630592       -0.03672146521212       -0.56788042453862
C            2.01401726153462       -0.02130027907560       -0.16180215332816
C            2.93717275672782       -0.52752093008132       -1.28713556485614
C            4.36442884263814       -0.42705620169605       -0.84819047826244
C            5.08380851128965        0.73492528706310       -1.05002508177042
C            6.39344961366734        0.84043627255835       -0.60669825667121
C            7.00029703184525       -0.21298119428947        0.05559667793092
O            8.27382244453740       -0.22231247265444        0.52623319366846
C            9.07447590000238        0.91456018564891        0.31781105454529
C            6.26567294784847       -1.40298415661449        0.27835111722734
O            6.94169206944860       -2.38465134422778        0.93040922028090
C            6.29899544719372       -3.61409454284451        1.15357860014581
C            4.96201844151640       -1.48920902914049       -0.16904900521142
C           -0.01363033515621       -1.32002173093997       -0.61268029219966
C           -3.87946861200432        3.07775482324720        0.58491216909038
C           -4.50120072312379        2.77526628718869        1.94613262806450
C           -3.40405084988357        4.52799631462568        0.55044135971245
H           -4.65660974747149        0.94308481094953       -1.31831487893829
H           -6.84407438980482        0.25484058510366       -1.81312356236116
H           -7.16473483948868       -1.19042535681815       -2.80286439899888
H           -5.65768898245944       -0.27365512258529       -3.04240844842637
H           -4.88821011846248       -3.71434210985028        2.41008242794002
H           -5.29221364210694       -4.96852568907258        1.21143827636124
H           -3.61258405555404       -4.39554837468896        1.35972125203088
H           -3.07640701758711       -2.21546737967866        2.10314787549291
H           -2.15293231976192        0.02703425586554        2.01192214580634
H           -3.03084091135035        2.38771282258678       -1.88080425262645
H           -1.65563827291366        3.24686534226234       -1.19663200489130
H           -1.80123930462856        0.23776013240383       -1.62665745883398
H           -1.02695480940587        1.38633260785247       -2.72901388625210
H           -0.69131568554039        1.64595690259239        0.65772695912444
H            0.64023312497169        1.99877597855772       -0.96069964540440
H            2.13107635685440       -0.65113309744739        0.72423928166776
H            2.30246337868151        0.99889836256953        0.10097458382182
H            2.76903348141644        0.08419776698133       -2.17498552467673
H            2.68055691167097       -1.56062255061393       -1.52243987333642
H            4.63317793531023        1.56799754232388       -1.56852889045159
H            6.93562655658321        1.75324753287588       -0.79326786105252
H            8.65772000486669        1.79742013374321        0.81371526807187
H            9.20612436355670        1.12417357883351       -0.74874201355695
H           10.03914236759000        0.67390102330676        0.76058020810243
H            7.03509607140704       -4.23941144360786        1.65580885495143
H            5.42138875111652       -3.50051448105598        1.79922367844355
H            6.00029503559716       -4.09060786265955        0.21381459901556
H            4.39156218430715       -2.39144191956323       -0.00942428145781
H           -0.17081149327532       -1.65461474068481       -1.64220580292557
H           -0.98110625786929       -1.26344231664331       -0.10967007739950
H            0.59983322958490       -2.05916885975699       -0.10215078715864
H           -4.65492831200347        2.95626541273305       -0.18009737816041
H           -3.76068477775979        2.90364767484267        2.72939557064291
H           -4.87751090569292        1.75592201818932        1.98284838475788
H           -5.32947498886241        3.45583642555091        2.13076688185566
H           -2.60842159398395        4.68440705660213        1.27306185962426
H           -3.05035170148419        4.81472570822914       -0.43672680088317
H           -4.23330059385599        5.18260703915967        0.81001688674304
H           -0.61197844723829        2.78577790473052        2.74213333974622
72
 energy: -6.358320920530 xtb: 6.6.1 (8d0f1dd)
N           -1.53051842656932        2.84789752285323        2.25095851355250
C           -1.58307398269004        2.15616241611937        1.19089784117855
C           -2.76334984007855        2.06554511042364        0.26332984314894
C           -3.33360669023020        0.65588186218148        0.33879364364311
C           -4.31014627266603        0.24562942696450       -0.57086617340499
C           -4.85024239756259       -1.02507530225273       -0.53016981571664
O           -5.81209698532771       -1.50093249472337       -1.37471177951553
C           -6.37387311855449       -0.62306311375156       -2.31562251296807
C           -4.40785334779369       -1.94088896029799        0.44876121412552
O           -4.99919130444708       -3.17158203718359        0.41180749948492
C           -4.67111456675931       -4.09912862495364        1.41365131960093
C           -3.44421061050243       -1.53408226132103        1.35027147718838
C           -2.91503991357543       -0.24937618710214        1.29505732614624
C           -2.20792153517102        2.30142838755262       -1.16848128636999
C           -1.26965674632575        1.19239866741452       -1.68651525964194
C            0.00614676652951        1.14418991544943       -0.91116342561472
N            0.66810054767261       -0.04578510673702       -0.56080132905773
C            2.03439519853129        0.00336701844920       -0.17623719932976
C            2.95444433486987       -0.49799645639812       -1.30795657412547
C            4.37649829165011       -0.41422861150336       -0.87466669628943
C            5.10698857306079        0.74145603834918       -1.06985755390290
C            6.41330178030653        0.83543878541770       -0.61589589018577
C            7.00268170844479       -0.22403055768691        0.05008371439697
O            8.28220233013342       -0.24818640805739        0.52779320832513
C            9.08625426457559        0.88138300937065        0.31565208554939
C            6.25681969669268       -1.40209718420906        0.27215054321449
O            6.92272845572399       -2.39287515620883        0.93405900437330
C            6.26036525987970       -3.61021421505589        1.15649525495099
C            4.95718855201492       -1.47833009454073       -0.18542899281523
C            0.06250027487200       -1.34901143974397       -0.60113081020090
C           -3.89852605034856        3.07441669957023        0.58841797225314
C           -4.51720348661064        2.77489850300307        1.95296068031024
C           -3.42846446444200        4.52723145464801        0.55390001562463
H           -4.65175077417491        0.93856870782511       -1.32250234895001
H           -6.83157578410997        0.24732076256080       -1.83322195262554
H           -7.14507862973283       -1.19965703233155       -2.82467059212253
H           -5.63382953893128       -0.28378231819349       -3.04875630664243
H           -4.89845377190196       -3.71203871791277        2.41279704328658
H           -5.29155317377211       -4.97206756638976        1.21552311890754
H           -3.61538782381424       -4.38867748854602        1.36977904668264
H           -3.09078064727561       -2.20983155275691        2.11367721018824
H           -2.17256786015547        0.03706037514220        2.02276687956222
H           -3.04609768967362        2.40012435482325       -1.86300383640480
H           -1.66238920440897        3.24712497111108       -1.17874605807234
H           -1.78984230229567        0.23700183617653       -1.62811323966430
H           -1.07815074406222        1.40280076925194       -2.75393764724493
H           -0.71905223396197        1.62057665735750        0.73110885807523
H            0.65057375273322        2.00639464740399       -1.01302143489809
H            2.17509563278196       -0.62053724392111        0.71493119117487
H            2.30414981225526        1.03049006178539        0.08101069736291
H            2.77699416332589        0.12303620471440       -2.18725139945374
H            2.68162484631932       -1.52648677459170       -1.54853226130758
H            4.66184170286597        1.57824710748671       -1.58680678897701
H            6.96474108345412        1.74401680003303       -0.79789026226932
H            8.67390229242756        1.76947781362147        0.80693569237792
H            9.21946174994299        1.08728115860943       -0.75212646869471
H           10.04936959804342        0.63704816545683        0.76017483256968
H            6.98664301166097       -4.24613937542547        1.66078839978909
H            5.38243404559789       -3.48356208958945        1.79960301441393
H            5.95490992789205       -4.08377073747247        0.21688152507246
H            4.37000408795825       -2.36966305480177       -0.02157464823082
H           -0.06279283922860       -1.72682304582391       -1.62492182109911
H           -0.91310548367974       -1.31501504863762       -0.11681329004956
H            0.68616753623931       -2.06416492726074       -0.05974639573984
H           -4.67685405569542        2.95246760064646       -0.17530212060862
H           -3.76656099330916        2.90622954813100        2.72605629262238
H           -4.88710902160135        1.75285705642943        1.99396784503848
H           -5.34744586516774        3.45272026562056        2.14328953832840
H           -2.62816305432136        4.67510793422737        1.27272580717001
H           -3.07506679307891        4.81084296215098       -0.43440731710767
H           -4.25647237031925        5.18342078005119        0.81705344031701
H           -0.64046008724977        2.80085159907320        2.74922643175538
72
 energy: -3.061567834443 xtb: 6.6.1 (8d0f1dd)
N           -1.57758244961755        2.91027081551399        2.26386583446769
C           -1.60553631260600        2.16271087336930        1.22607967737743
C           -2.78169093463431        2.07045640600326        0.28176477781177
C           -3.34879427290393        0.66044049518984        0.34927949292742
C           -4.31562724392186        0.24366343758974       -0.56721374759746
C           -4.85003110635027       -1.02874398146077       -0.52850032877164
O           -5.80615102800011       -1.51300954314575       -1.38650917729489
C           -6.34975698628239       -0.63780829880126       -2.33714308628672
C           -4.41726117513189       -1.93827624910116        0.45493695474097
O           -5.00806394427395       -3.17774811686682        0.41494710086885
C           -4.67879873429255       -4.09701725822494        1.42007470323397
C           -3.46510469763051       -1.52761895544967        1.36636556228194
C           -2.94119484048967       -0.24222594355070        1.31330205589681
C           -2.22075399032960        2.30448016123596       -1.15008116559025
C           -1.28110494337498        1.19829366205810       -1.68910356918562
C            0.00195848511567        1.16369573015122       -0.92664835642446
N            0.69985929739628       -0.04990811786916       -0.55530801940453
C            2.06282999242300        0.04825534858569       -0.19786630449384
C            2.97536197237456       -0.44948878756728       -1.33984247706019
C            4.39260457490695       -0.39137481399828       -0.90862724219813
C            5.14173698279703        0.75303595169680       -1.09808512876132
C            6.44439043750086        0.82813125666212       -0.63118128157680
C            7.00751228365452       -0.24101133636836        0.04076044343521
O            8.29068282055723       -0.28654861955019        0.52839477960521
C            9.10467118271789        0.83087618834596        0.31211834139287
C            6.24294117215852       -1.40256012860944        0.26244445185418
O            6.89039853465476       -2.40447536731638        0.93767045317523
C            6.20023148489336       -3.60474165916866        1.16092559041140
C            4.94737666269530       -1.46126511458563       -0.20752867996327
C            0.17028609483837       -1.38742834092742       -0.58494947565942
C           -3.92489022647312        3.07019465336907        0.59623492819240
C           -4.53993142497349        2.77308805270364        1.96424201037296
C           -3.46352146834324        4.52658370905481        0.55849827093441
H           -4.64607670315298        0.93200944095519       -1.32860033827549
H           -6.81384381942567        0.23559750103758       -1.86494719318272
H           -7.11435913064433       -1.21416464271104       -2.85754141886545
H           -5.59796164183628       -0.30008853622174       -3.05964070971535
H           -4.91505664449610       -3.70939809244969        2.41775246814336
H           -5.29081618915751       -4.97658859687569        1.22182425847231
H           -3.62017615618057       -4.37924439971560        1.38572669191418
H           -3.11402033394004       -2.20184324909147        2.13235639580451
H           -2.20350887068196        0.05009667616118        2.04305418141874
H           -3.06424376777031        2.41635540769606       -1.83931598682540
H           -1.67125559168873        3.24853316931775       -1.15412649012508
H           -1.78214798777857        0.23271048200801       -1.62378892893435
H           -1.13615531774588        1.42019605787613       -2.76746117533195
H           -0.75490351025957        1.59080463623537        0.82342246621889
H            0.65840401458402        2.01045260785644       -1.06771226072464
H            2.23907210863677       -0.56613888312589        0.69948622323059
H            2.31139817221534        1.08355660637522        0.04891127159588
H            2.79275637243480        0.18356706971826       -2.20934082443080
H            2.68223354116772       -1.47156138819452       -1.58850972785760
H            4.70769506082535        1.59479983839462       -1.61629970068444
H            7.00983346063727        1.72946361090810       -0.80703702670503
H            8.70074195552455        1.72705459539680        0.79697969132219
H            9.24184811085536        1.03059374491040       -0.75705451777305
H           10.06471945556192        0.57943693523131        0.75968477779565
H            6.91166394962273       -4.25581062809640        1.66848555867916
H            5.32280546438402       -3.45785300793105        1.80123353606643
H            5.88547211530267       -4.07445140918683        0.22194435314104
H            4.33700824237110       -2.33741788221752       -0.04066436063367
H            0.10167724644979       -1.82629071208783       -1.59882144857598
H           -0.81984878477958       -1.39368575852544       -0.13234842884168
H            0.81351721630849       -2.05973428047439        0.00385516345813
H           -4.70475049742383        2.94271229469887       -0.16641135748123
H           -3.78087252350296        2.91118977842012        2.72757964298182
H           -4.90246489560072        1.74828275568988        2.01118272666700
H           -5.37270301708603        3.44682670574668        2.15897405858580
H           -2.65871672083366        4.66893281090088        1.27260400976971
H           -3.11396578428044        4.80775996695901       -0.43184820672460
H           -4.29118056711791        5.18171213455052        0.82631922324306
H           -0.67696543367710        2.82799230296935        2.74926254692878
72
 energy: 1.854385529336 xtb: 6.6.1 (8d0f1dd)
N           -1.61542432024136        2.95066632016361        2.27762695172706
C           -1.62754546314160        2.17155790902850        1.25342715857485
C           -2.79950658888213        2.07380980554967        0.29799180493945
C           -3.36329522166158        0.66329419255170        0.35963403419444
C           -4.31974933096803        0.24086255846990       -0.56495955328699
C           -4.84979323173252       -1.03307656872813       -0.52810930565814
O           -5.79884048768372       -1.52397788728875       -1.39732960702665
C           -6.32615765915928       -0.65239848522014       -2.35869986891982
C           -4.42618818786189       -1.93719262026829        0.46109831922364
O           -5.01546452402880       -3.18245462300038        0.41875358941909
C           -4.68665423502368       -4.09540077922543        1.42740391364636
C           -3.48490142825512       -1.52243047636020        1.38192336745483
C           -2.96529927525933       -0.23620274552832        1.33087284166376
C           -2.23277889153674        2.30651178443260       -1.13287144814947
C           -1.29282306175872        1.20215201381434       -1.68805795896861
C           -0.00160593477430        1.17548798855608       -0.93979789042158
N            0.72842172257831       -0.05196871100445       -0.55113331654851
C            2.09055324057986        0.09423871556006       -0.21899742242276
C            2.99351734119953       -0.39979700951294       -1.37118356052706
C            4.40734924101352       -0.36713904928843       -0.93995273096923
C            5.17522357349541        0.76554784618852       -1.12489486263306
C            6.47454467418585        0.82094512723097       -0.64671015127165
C            7.01248933228037       -0.25752290573370        0.03144278704461
O            8.29654049213589       -0.32372124218382        0.52800616113580
C            9.12343109046492        0.78103246390448        0.30839541871830
C            6.22810459157224       -1.40360054079465        0.25309559836980
O            6.85623681455378       -2.41517822225479        0.93972914621510
C            6.14010023073970       -3.59948264969888        1.16526290715282
C            4.93614101659293       -1.44360423451571       -0.22789454168525
C            0.27387828917969       -1.42304590821126       -0.56826258200510
C           -3.94991675779556        3.06603266784565        0.60473304514070
C           -4.56141043688769        2.77119541692881        1.97562669832932
C           -3.49737216678507        4.52571432686695        0.56283741864748
H           -4.64098221997220        0.92527482995856       -1.33427552689408
H           -6.79691797593782        0.22368090271643       -1.89703800879937
H           -7.08365522397123       -1.22963974378350       -2.88934213408827
H           -5.56306621143868       -0.31695047496231       -3.07103068017851
H           -4.93209724917719       -3.70732847694737        2.42323940930046
H           -5.29089233256538       -4.98054396088859        1.22789097246660
H           -3.62550360532024       -4.37074344940115        1.40212632819215
H           -3.13787092059732       -2.19428358434655        2.15190382782968
H           -2.23418633435810        0.06148233417722        2.06471663000455
H           -3.07880903424689        2.42903003106822       -1.81916692651863
H           -1.67983680250964        3.24898043229876       -1.13185075694683
H           -1.78091411866584        0.23019135145987       -1.61626970641317
H           -1.18126027877184        1.43170118507467       -2.77308077291177
H           -0.78623318996568        1.57028480027216        0.89681596755596
H            0.65959923198796        2.01351986665121       -1.10826334401895
H            2.29742432358989       -0.50857016248713        0.68368325070112
H            2.31802075359183        1.13792672768186        0.01543407427477
H            2.81022931170272        0.24411501012599       -2.23244622332679
H            2.68313563759161       -1.41564187659210       -1.62732065310494
H            4.75412870309177        1.61227309588024       -1.64586280113831
H            7.05461674095281        1.71409041048346       -0.81806221089249
H            8.72873309771539        1.68511430886750        0.78727434762020
H            9.26520303313176        0.97419074092907       -0.76187288866247
H           10.07955637503925        0.52064039462985        0.75952182567876
H            6.83735507166906       -4.26417893777708        1.67620900959763
H            5.26389952606006       -3.43246127367085        1.80332731730117
H            5.81651941770756       -4.06594114110940        0.22733348290177
H            4.30456751315889       -2.30558489660654       -0.05939528779391
H            0.26154100213780       -1.91177510793857       -1.57141655419563
H           -0.72930607389261       -1.47000427809898       -0.14730408525312
H            0.93481885445342       -2.05203793516729        0.06282951822956
H           -4.73057061759971        2.93198475321400       -0.15679126912284
H           -3.79754928343154        2.91623478107689        2.73274274969120
H           -4.91704448352054        1.74395364872917        2.02773403502863
H           -5.39717015267521        3.44086006794517        2.17249750774182
H           -2.68887122403319        4.66759663146794        1.27234151922723
H           -3.15285981508672        4.80543310486469       -0.42969203700728
H           -4.32584925659025        5.17853493242572        0.83454970292635
H           -0.70780783951579        2.85702825158316        2.75179056235570
72
 energy: 7.144408001474 xtb: 6.6.1 (8d0f1dd)
N           -1.64605564607455        2.97767261151546        2.29041457791881
C           -1.64860011454010        2.18086800362564        1.27510102639468
C           -2.81664399400828        2.07612851643459        0.31242224926942
C           -3.37693869410063        0.66487880321691        0.36955247400065
C           -4.32276187955792        0.23737106297379       -0.56367211279128
C           -4.84927535065099       -1.03790870320437       -0.52855978970071
O           -5.79054966744118       -1.53435064747563       -1.40739327563562
C           -6.30279101279286       -0.66724824665227       -2.38017669664478
C           -4.43466825975698       -1.93709935934386        0.46722121226248
O           -5.02190998804202       -3.18627244590622        0.42303017830909
C           -4.69477494062473       -4.09418316082710        1.43536749786253
C           -3.50413366089686       -1.51803000885936        1.39715732515055
C           -2.98807746683184       -0.23098201174115        1.34793621445933
C           -2.24403575454755        2.30867250771985       -1.11692784834705
C           -1.30455438369494        1.20479373892613       -1.68396246592243
C           -0.00485574629792        1.18213700879605       -0.95053480665950
N            0.75518979082203       -0.05405311995671       -0.54807564148824
C            2.11677036093393        0.14069262787570       -0.24015168529414
C            3.00984083283577       -0.34909635214412       -1.40170374188827
C            4.42073489619521       -0.34171373072652       -0.96882494454098