      -----------------------------------------------------------      
     |                   =====================                   |     
     |                           x T B                           |     
     |                   =====================                   |     
     |                         S. Grimme                         |     
     |          Mulliken Center for Theoretical Chemistry        |     
     |                    University of Bonn                     |     
      -----------------------------------------------------------      

   * xtb version 6.6.1 (8d0f1dd) compiled by 'conda@1efc2f54142f' on 2023-08-01

   xtb is free software: you can redistribute it and/or modify it under
   the terms of the GNU Lesser General Public License as published by
   the Free Software Foundation, either version 3 of the License, or
   (at your option) any later version.
   
   xtb is distributed in the hope that it will be useful,
   but WITHOUT ANY WARRANTY; without even the implied warranty of
   MERCHANTABILITY or FITNESS FOR A PARTICULAR PURPOSE.  See the
   GNU Lesser General Public License for more details.
   
   Cite this work as:
   * C. Bannwarth, E. Caldeweyher, S. Ehlert, A. Hansen, P. Pracht,
     J. Seibert, S. Spicher, S. Grimme, WIREs Comput. Mol. Sci., 2020, 11,
     e01493. DOI: 10.1002/wcms.1493
   
   for GFN2-xTB:
   * C. Bannwarth, S. Ehlert and S. Grimme., J. Chem. Theory Comput., 2019,
     15, 1652-1671. DOI: 10.1021/acs.jctc.8b01176
   for GFN1-xTB:
   * S. Grimme, C. Bannwarth, P. Shushkov, J. Chem. Theory Comput., 2017,
     13, 1989-2009. DOI: 10.1021/acs.jctc.7b00118
   for GFN0-xTB:
   * P. Pracht, E. Caldeweyher, S. Ehlert, S. Grimme, ChemRxiv, 2019, preprint.
     DOI: 10.26434/chemrxiv.8326202.v1
   for GFN-FF:
   * S. Spicher and S. Grimme, Angew. Chem. Int. Ed., 2020, 59, 15665-15673.
     DOI: 10.1002/anie.202004239
   
   for ALPB and GBSA implicit solvation:
   * S. Ehlert, M. Stahn, S. Spicher, S. Grimme, J. Chem. Theory Comput.,
     2021, 17, 4250-4261. DOI: 10.1021/acs.jctc.1c00471
   
   for DFT-D4:
   * E. Caldeweyher, C. Bannwarth and S. Grimme, J. Chem. Phys., 2017,
     147, 034112. DOI: 10.1063/1.4993215
   * E. Caldeweyher, S. Ehlert, A. Hansen, H. Neugebauer, S. Spicher,
     C. Bannwarth and S. Grimme, J. Chem. Phys., 2019, 150, 154122.
     DOI: 10.1063/1.5090222
   * E. Caldeweyher, J.-M. Mewes, S. Ehlert and S. Grimme, Phys. Chem. Chem. Phys.
     2020, 22, 8499-8512. DOI: 10.1039/D0CP00502A
   
   for sTDA-xTB:
   * S. Grimme and C. Bannwarth, J. Chem. Phys., 2016, 145, 054103.
     DOI: 10.1063/1.4959605
   
   in the mass-spec context:
   * V. Asgeirsson, C. Bauer and S. Grimme, Chem. Sci., 2017, 8, 4879.
     DOI: 10.1039/c7sc00601b
   * J. Koopman and S. Grimme, ACS Omega 2019, 4, 12, 15120-15133.
     DOI: 10.1021/acsomega.9b02011
   
   for metadynamics refer to:
   * S. Grimme, J. Chem. Theory Comput., 2019, 155, 2847-2862
     DOI: 10.1021/acs.jctc.9b00143
   
   for SPH calculations refer to:
   * S. Spicher and S. Grimme, J. Chem. Theory Comput., 2021, 17, 1701-1714
     DOI: 10.1021/acs.jctc.0c01306
   
   with help from (in alphabetical order)
   P. Atkinson, C. Bannwarth, F. Bohle, G. Brandenburg, E. Caldeweyher
   M. Checinski, S. Dohm, S. Ehlert, S. Ehrlich, I. Gerasimov, C. Hölzer
   A. Katbashev, J. Koopman, C. Lavigne, S. Lehtola, F. März, M. Müller,
   F. Musil, H. Neugebauer, J. Pisarek, C. Plett, P. Pracht, F. Pultar,
   J. Seibert, P. Shushkov, S. Spicher, M. Stahn, M. Steiner, T. Strunk,
   J. Stückrath, T. Rose, and J. Unsleber
   
 * started run on 2024/06/05 at 19:58:01.434     

           -------------------------------------------------
          |                Calculation Setup                |
           -------------------------------------------------

          program call               : xtb xtbopt.xyz --opt crude --input .xc2 --gfn2
          hostname                   : n-62-30-26
          coordinate file            : xtbopt.xyz
          omp threads                :                     1

   ID    Z sym.   atoms
    1    6 C      1, 3, 5-7, 10, 11, 14
    2    7 N      2, 4, 9, 13
    3    8 O      8, 12
    4    1 H      15-25
########################################################################
[WARNING] Please study the warnings concerning your input carefully
-1- readin_getIntValue: could not parse ''
########################################################################

           -------------------------------------------------
          |                 G F N 2 - x T B                 |
           -------------------------------------------------

        Reference                      10.1021/acs.jctc.8b01176
      * Hamiltonian:
        H0-scaling (s, p, d)           1.850000    2.230000    2.230000
        zeta-weighting                 0.500000
      * Dispersion:
        s8                             2.700000
        a1                             0.520000
        a2                             5.000000
        s9                             5.000000
      * Repulsion:
        kExp                           1.500000    1.000000
        rExp                           1.000000
      * Coulomb:
        alpha                          2.000000
        third order                    shell-resolved
        anisotropic                    true
        a3                             3.000000
        a5                             4.000000
        cn-shift                       1.200000
        cn-exp                         4.000000
        max-rad                        5.000000

q/qsh data taken from xtbrestart
CAMM data taken from xtbrestart

          ...................................................
          :                      SETUP                      :
          :.................................................:
          :  # basis functions                  67          :
          :  # atomic orbitals                  67          :
          :  # shells                           39          :
          :  # electrons                        74          :
          :  max. iterations                   250          :
          :  Hamiltonian                  GFN2-xTB          :
          :  restarted?                       true          :
          :  GBSA solvation                  false          :
          :  PC potential                    false          :
          :  electronic temp.         5000.0000000     K    :
          :  accuracy                    1.0000000          :
          :  -> integral cutoff          0.2500000E+02      :
          :  -> integral neglect         0.1000000E-07      :
          :  -> SCF convergence          0.1000000E-05 Eh   :
          :  -> wf. convergence          0.1000000E-03 e    :
          :  Broyden damping             0.4000000          :
          ...................................................

 iter      E             dE          RMSdq      gap      omega  full diag
   1    -42.6484686 -0.426485E+02  0.482E-05    1.17       0.0  T
   2    -42.6484686  0.750696E-09  0.137E-04    1.17     145.6  T
   3    -42.6484686 -0.848587E-09  0.783E-06    1.17    2554.9  T

   *** convergence criteria satisfied after 3 iterations ***

         #    Occupation            Energy/Eh            Energy/eV
      -------------------------------------------------------------
         1        2.0000           -0.9274494             -25.2372
       ...           ...                  ...                  ...
        31        1.9995           -0.6145748             -16.7234
        32        1.9992           -0.6051836             -16.4679
        33        1.9984           -0.5949737             -16.1901
        34        1.9951           -0.5772550             -15.7079
        35        1.9371           -0.5362536             -14.5922
        36        1.7303           -0.5114271             -13.9166
        37        1.6993           -0.5094154             -13.8619 (HOMO)
        38        0.5461           -0.4664902             -12.6938 (LUMO)
        39        0.0599           -0.4269205             -11.6171
        40        0.0342           -0.4178544             -11.3704
        41        0.0018           -0.3712602             -10.1025
        42        0.0000           -0.2948758              -8.0240
       ...           ...                  ...                  ...
        67                          0.7670287              20.8719
      -------------------------------------------------------------
                  HL-Gap            0.0429252 Eh            1.1681 eV
             Fermi-level           -0.4819953 Eh          -13.1158 eV

 SCC (total)                   0 d,  0 h,  0 min,  0.023 sec
 SCC setup                      ...        0 min,  0.000 sec (  0.891%)
 Dispersion                     ...        0 min,  0.000 sec (  1.173%)
 classical contributions        ...        0 min,  0.000 sec (  0.279%)
 integral evaluation            ...        0 min,  0.004 sec ( 18.128%)
 iterations                     ...        0 min,  0.006 sec ( 25.784%)
 molecular gradient             ...        0 min,  0.012 sec ( 53.114%)
 printout                       ...        0 min,  0.000 sec (  0.587%)

         :::::::::::::::::::::::::::::::::::::::::::::::::::::
         ::                     SUMMARY                     ::
         :::::::::::::::::::::::::::::::::::::::::::::::::::::
         :: total energy             -42.118341054979 Eh    ::
         :: gradient norm              0.005869722486 Eh/a0 ::
         :: HOMO-LUMO gap              1.168054089778 eV    ::
         ::.................................................::
         :: SCC energy               -42.648468569591 Eh    ::
         :: -> isotropic ES            0.139395393809 Eh    ::
         :: -> anisotropic ES         -0.010013155855 Eh    ::
         :: -> anisotropic XC          0.017560525548 Eh    ::
         :: -> dispersion             -0.021718010943 Eh    ::
         :: repulsion energy           0.529954937005 Eh    ::
         :: add. restraining           0.000000000000 Eh    ::
         :: total charge               1.000000000008 e     ::
         :::::::::::::::::::::::::::::::::::::::::::::::::::::

      ----------------------------------------------------------- 
     |                   =====================                   |
     |                        A N C O P T                        |
     |                   =====================                   |
     |               Approximate Normal Coordinate               |
     |                Rational Function Optimizer                |
      ----------------------------------------------------------- 

          ...................................................
          :                      SETUP                      :
          :.................................................:
          :   optimization level             crude          :
          :   max. optcycles                   200          :
          :   ANC micro-cycles                  20          :
          :   degrees of freedom                69          :
          :.................................................:
          :   RF solver                   davidson          :
          :   write xtbopt.log                true          :
          :   linear?                        false          :
          :   energy convergence         0.5000000E-03 Eh   :
          :   grad. convergence          0.1000000E-01 Eh/α :
          :   maxmium RF displ.          1.0000000          :
          :   Hlow (freq-cutoff)         0.1000000E-01      :
          :   Hmax (freq-cutoff)         5.0000000          :
          :   S6 in model hess.         20.0000000          :
          ...................................................

generating ANC from model Hessian ...
Using Lindh-Hessian (1995)
 Shifting diagonal of input Hessian by    8.9324350292401856E-003
 Lowest  eigenvalues of input Hessian
    0.000000    0.000000    0.000000    0.000000    0.000000    0.000000
    0.010000    0.010579    0.012070    0.013345    0.014175    0.015052
    0.019051    0.019985    0.021662    0.028251    0.030294    0.033445
 Highest eigenvalues
    2.024190    2.070266    2.165145    2.243004    2.345380    2.742633


........................................................................
.............................. CYCLE    1 ..............................
........................................................................

 iter      E             dE          RMSdq      gap      omega  full diag
   1    -42.6484686 -0.426485E+02  0.578E-06    1.17       0.0  T
   2    -42.6484686  0.454747E-12  0.581E-06    1.17    3440.2  T
   3    -42.6484686 -0.675016E-12  0.377E-06    1.17    5302.5  T
     SCC iter.                  ...        0 min,  0.005 sec
     gradient                   ...        0 min,  0.012 sec
 * total energy  :   -42.1183411 Eh     change        0.1136868E-12 Eh
   gradient norm :     0.0058700 Eh/α   predicted     0.0000000E+00 (-100.00%)
   displ. norm   :     0.0605547 α      lambda       -0.1514072E-03
   maximum displ.:     0.0259838 α      in ANC's #16, #5, #6, ...

........................................................................
.............................. CYCLE    2 ..............................
........................................................................

 iter      E             dE          RMSdq      gap      omega  full diag
   1    -42.6497733 -0.426498E+02  0.440E-02    1.17       0.0  T
   2    -42.6497748 -0.152232E-05  0.279E-02    1.17       1.0  T
   3    -42.6497460  0.287578E-04  0.287E-02    1.18       1.0  T
   4    -42.6497533 -0.727923E-05  0.236E-02    1.15       1.0  T
   5    -42.6497773 -0.239570E-04  0.277E-03    1.17       7.2  T
   6    -42.6497775 -0.223936E-06  0.791E-04    1.17      25.3  T
   7    -42.6497775 -0.375027E-08  0.404E-04    1.17      49.5  T
     SCC iter.                  ...        0 min,  0.009 sec
     gradient                   ...        0 min,  0.012 sec
 * total energy  :   -42.1184337 Eh     change       -0.9262317E-04 Eh
   gradient norm :     0.0021993 Eh/α   predicted    -0.7598142E-04 ( -17.97%)
   displ. norm   :     0.1376077 α      lambda       -0.1672622E-03
   maximum displ.:     0.1065401 α      in ANC's #1, #2, #12, ...

   *** GEOMETRY OPTIMIZATION CONVERGED AFTER 2 ITERATIONS ***

------------------------------------------------------------------------
 total energy gain   :        -0.0000926 Eh       -0.0581 kcal/mol
 total RMSD          :         0.0121109 a0        0.0064 Å
 total power (kW/mol):        -0.1215911 (step)   -4.4587 (real)
------------------------------------------------------------------------

 ANCopt (total)                0 d,  0 h,  0 min,  0.055 sec
 optimizer setup                ...        0 min,  0.000 sec (  0.518%)
 model hessian                  ...        0 min,  0.005 sec (  9.483%)
 ANC generation                 ...        0 min,  0.001 sec (  1.395%)
 coordinate transformation      ...        0 min,  0.000 sec (  0.025%)
 single point calculation       ...        0 min,  0.046 sec ( 84.961%)
 optimization log               ...        0 min,  0.002 sec (  2.864%)
 hessian update                 ...        0 min,  0.000 sec (  0.027%)
 rational function              ...        0 min,  0.000 sec (  0.318%)

================
 final structure:
================
25
 xtb: 6.6.1 (8d0f1dd)
C            3.08298548771381        0.97041829844937        0.11718741054620
N            2.08630231186149       -0.05160269707630        0.32623237304408
C            2.36438245210424       -1.23103389287616        0.86569914567257
N            1.24827619691591       -1.96474166460745        0.91095116317112
C            0.21560728219345       -1.22325598480068        0.38535619880707
C            0.74353954229025        0.00656449892974        0.02008551866211
C            0.10685304394444        1.27234939698472       -0.50642264243160
O            0.81783830124607        2.16932766076785       -0.96268982876541
N           -1.20135669563153        1.28388411009746       -0.38060191049838
C           -1.96580590638016        2.42692829218637       -0.72596804607578
C           -1.45368586706431       -2.62066309319478        1.22836390436133
O           -1.29496067021128       -3.31769539121770        2.15535710356331
N           -1.07374885014001       -1.79241505503343        0.32025506760035
C           -1.95920437603979       -1.44804113317412       -0.79097744199464
H            3.60527102878170        1.17572442374306        1.05034416152571
H            3.80308175017964        0.63627615270861       -0.62995267783040
H            2.59518842826333        1.87514882129876       -0.24980822091438
H            3.33024208359183       -1.54534870871047        1.21076570107230
H           -1.34747586877246        3.23197204550793       -1.13572100588932
H           -2.72896682634779        2.14473414088778       -1.45573810825186
H           -2.48036051747899        2.78803053667947        0.16910426974224
H           -1.56009377284054       -1.85523811376332       -1.71958883902535
H           -2.00274382844309       -0.35352053074398       -0.85213510962519
H           -2.94787562106301       -1.85817277535909       -0.60434337993912
H            1.17714240543583       -2.90139079609490        1.28541681137493

 Bond Distances (Angstroems)
 ---------------------------
C1-N2=1.4428         C1-H15=1.0889        C1-H16=1.0901        C1-H17=1.0914        N2-C1=1.4428         N2-C3=1.3264         
N2-C6=1.3784         C3-N2=1.3264         C3-N4=1.3364         C3-H18=1.0727        N4-C3=1.3364         N4-C5=1.3757         
N4-H25=1.0112        C5-N4=1.3757         C5-C6=1.3873         C5-N13=1.4109        C6-N2=1.3784         C6-C5=1.3873         
C6-C7=1.5116         C7-C6=1.5116         C7-O8=1.2322         C7-N9=1.3143         O8-C7=1.2322         N9-C7=1.3143         
N9-C10=1.4178        C10-N9=1.4178        C10-H19=1.0947       C10-H20=1.0930       C10-H21=1.0938       C11-O12=1.1706       
C11-N13=1.2865       O12-C11=1.1706       N13-C5=1.4109        N13-C11=1.2865       N13-C14=1.4620       C14-N13=1.4620       
C14-H22=1.0897       C14-H23=1.0971       C14-H24=1.0865       H15-C1=1.0889        H16-C1=1.0901        H17-C1=1.0914        
H18-C3=1.0727        H19-C10=1.0947       H20-C10=1.0930       H21-C10=1.0938       H22-C14=1.0897       H23-C14=1.0971       
H24-C14=1.0865       H25-N4=1.0112        
 C  H  Rav=1.0898 sigma=0.0064  Rmin=1.0727  Rmax=1.0971    10
 C  C  Rav=1.4494 sigma=0.0621  Rmin=1.3873  Rmax=1.5116     2
 N  H  Rav=1.0112 sigma=0.0000  Rmin=1.0112  Rmax=1.0112     1
 N  C  Rav=1.3751 sigma=0.0554  Rmin=1.2865  Rmax=1.4620    10
 O  C  Rav=1.2014 sigma=0.0308  Rmin=1.1706  Rmax=1.2322     2

 selected bond angles (degree)
 --------------------
H15-C1-N2=109.92               H16-C1-N2=109.79               H16-C1-H15=109.17              H17-C1-N2=109.10               
H17-C1-H15=110.26              H17-C1-H16=108.59              C3-N2-C1=122.95                C6-N2-C1=127.65                
C6-N2-C3=109.39                N4-C3-N2=109.08                H18-C3-N2=125.46               H18-C3-N4=125.46               
C5-N4-C3=108.55                H25-N4-C3=125.44               H25-N4-C5=126.01               C6-C5-N4=107.02                
N13-C5-N4=119.09               N13-C5-C6=133.89               C5-C6-N2=105.95                C7-C6-N2=121.53                
C7-C6-C5=132.36                O8-C7-C6=119.71                N9-C7-C6=113.16                N9-C7-O8=127.11                
C10-N9-C7=121.36               H19-C10-N9=112.30              H20-C10-N9=109.33              H20-C10-H19=109.53             
H21-C10-N9=108.69              H21-C10-H19=109.22             H21-C10-H20=107.65             

 selected dihedral angles (degree)
 ---------------------------------
C3-N2-C1-H15=306.28           C3-N2-C1-H16= 66.38           C3-N2-C1-H17=185.27           C6-N2-C1-H15=126.38           
C6-N2-C1-H16=246.47           C6-N2-C1-H17=  5.36           N4-C3-N2-C1=180.87            N4-C3-N2-C6=  0.79            
H18-C3-N2-C1=  0.90           H18-C3-N2-C6=180.82           C5-N4-C3-N2=359.73            C5-N4-C3-H18=179.70           
H25-N4-C3-N2=180.75           H25-N4-C3-H18=  0.72          C6-C5-N4-C3=359.65            C6-C5-N4-H25=178.63           
N13-C5-N4-C3=179.74           N13-C5-N4-H25=358.72          C5-C6-N2-C1=178.93            C5-C6-N2-C3=359.02            
C7-C6-N2-C1=354.91            C7-C6-N2-C3=175.00            N2-C6-C5-N4=  0.80            N2-C6-C5-N13=180.69           
C7-C6-C5-N4=185.43            C7-C6-C5-N13=  5.33           O8-C7-C6-N2= 16.92            O8-C7-C6-C5=191.69            
N9-C7-C6-N2=198.53            N9-C7-C6-C5= 13.30            C10-N9-C7-C6=175.25           C10-N9-C7-O8=357.01           
H19-C10-N9-C7=  2.72          H20-C10-N9-C7=124.52          H21-C10-N9-C7=241.76          
           -------------------------------------------------
          |                Final Singlepoint                |
           -------------------------------------------------

          ...................................................
          :                      SETUP                      :
          :.................................................:
          :  # basis functions                  67          :
          :  # atomic orbitals                  67          :
          :  # shells                           39          :
          :  # electrons                        74          :
          :  max. iterations                   250          :
          :  Hamiltonian                  GFN2-xTB          :
          :  restarted?                      false          :
          :  GBSA solvation                  false          :
          :  PC potential                    false          :
          :  electronic temp.         5000.0000000     K    :
          :  accuracy                    1.0000000          :
          :  -> integral cutoff          0.2500000E+02      :
          :  -> integral neglect         0.1000000E-07      :
          :  -> SCF convergence          0.1000000E-05 Eh   :
          :  -> wf. convergence          0.1000000E-03 e    :
          :  Broyden damping             0.4000000          :
          ...................................................

 iter      E             dE          RMSdq      gap      omega  full diag
   1    -42.6497775 -0.426498E+02  0.163E-04    1.17       0.0  T
   2    -42.6497775 -0.146734E-09  0.117E-04    1.17     170.5  T
   3    -42.6497775 -0.254460E-09  0.576E-05    1.17     347.3  T

   *** convergence criteria satisfied after 3 iterations ***

         #    Occupation            Energy/Eh            Energy/eV
      -------------------------------------------------------------
         1        2.0000           -0.9272364             -25.2314
       ...           ...                  ...                  ...
        31        1.9995           -0.6146245             -16.7248
        32        1.9992           -0.6053042             -16.4712
        33        1.9984           -0.5949755             -16.1901
        34        1.9952           -0.5775639             -15.7163
        35        1.9372           -0.5362902             -14.5932
        36        1.7302           -0.5114119             -13.9162
        37        1.6995           -0.5094221             -13.8621 (HOMO)
        38        0.5460           -0.4664796             -12.6936 (LUMO)
        39        0.0598           -0.4268970             -11.6165
        40        0.0340           -0.4177351             -11.3672
        41        0.0019           -0.3715214             -10.1096
        42        0.0000           -0.2943470              -8.0096
       ...           ...                  ...                  ...
        67                          0.7652024              20.8222
      -------------------------------------------------------------
                  HL-Gap            0.0429425 Eh            1.1685 eV
             Fermi-level           -0.4819886 Eh          -13.1156 eV

 SCC (total)                   0 d,  0 h,  0 min,  0.021 sec
 SCC setup                      ...        0 min,  0.000 sec (  0.740%)
 Dispersion                     ...        0 min,  0.000 sec (  0.655%)
 classical contributions        ...        0 min,  0.000 sec (  0.270%)
 integral evaluation            ...        0 min,  0.004 sec ( 17.231%)
 iterations                     ...        0 min,  0.005 sec ( 23.194%)
 molecular gradient             ...        0 min,  0.012 sec ( 57.288%)
 printout                       ...        0 min,  0.000 sec (  0.574%)

         :::::::::::::::::::::::::::::::::::::::::::::::::::::
         ::                     SUMMARY                     ::
         :::::::::::::::::::::::::::::::::::::::::::::::::::::
         :: total energy             -42.118433679791 Eh    ::
         :: gradient norm              0.002201061088 Eh/a0 ::
         :: HOMO-LUMO gap              1.168523578058 eV    ::
         ::.................................................::
         :: SCC energy               -42.649777502403 Eh    ::
         :: -> isotropic ES            0.139504263535 Eh    ::
         :: -> anisotropic ES         -0.010027194078 Eh    ::
         :: -> anisotropic XC          0.017503944388 Eh    ::
         :: -> dispersion             -0.021740738086 Eh    ::
         :: repulsion energy           0.531170692348 Eh    ::
         :: add. restraining           0.000000000000 Eh    ::
         :: total charge               1.000000000008 e     ::
         :::::::::::::::::::::::::::::::::::::::::::::::::::::

           -------------------------------------------------
          |                Property Printout                |
           -------------------------------------------------

    * Orbital Energies and Occupations

         #    Occupation            Energy/Eh            Energy/eV
      -------------------------------------------------------------
         1        2.0000           -0.9272364             -25.2314
       ...           ...                  ...                  ...
        25        2.0000           -0.6673417             -18.1593
        26        2.0000           -0.6655885             -18.1116
        27        1.9999           -0.6386120             -17.3775
        28        1.9999           -0.6372650             -17.3409
        29        1.9998           -0.6243924             -16.9906
        30        1.9996           -0.6175505             -16.8044
        31        1.9995           -0.6146245             -16.7248
        32        1.9992           -0.6053042             -16.4712
        33        1.9984           -0.5949755             -16.1901
        34        1.9952           -0.5775639             -15.7163
        35        1.9372           -0.5362902             -14.5932
        36        1.7302           -0.5114119             -13.9162
        37        1.6995           -0.5094221             -13.8621 (HOMO)
        38        0.5460           -0.4664796             -12.6936 (LUMO)
        39        0.0598           -0.4268970             -11.6165
        40        0.0340           -0.4177351             -11.3672
        41        0.0019           -0.3715214             -10.1096
        42        0.0000           -0.2943470              -8.0096
        43        0.0000           -0.2172527              -5.9117
        44                         -0.1915995              -5.2137
        45                         -0.1382416              -3.7617
        46                         -0.0766354              -2.0854
        47                         -0.0572202              -1.5570
        48                         -0.0450014              -1.2246
       ...                                ...                  ...
        67                          0.7652024              20.8222
      -------------------------------------------------------------
                  HL-Gap            0.0429425 Eh            1.1685 eV
             Fermi-level           -0.4819886 Eh          -13.1156 eV

     #   Z          covCN         q      C6AA      α(0)
     1   6 C        3.694    -0.100    22.601     6.802
     2   7 N        2.859     0.086    19.752     6.601
     3   6 C        3.029     0.056    26.714     8.478
     4   7 N        2.803    -0.057    22.347     7.021
     5   6 C        3.051     0.089    25.971     8.358
     6   6 C        3.074     0.011    27.695     8.628
     7   6 C        2.764     0.281    22.250     7.725
     8   8 O        0.858    -0.415    21.985     6.286
     9   7 N        1.831    -0.267    27.778     7.810
    10   6 C        3.702    -0.027    21.211     6.586
    11   6 C        1.822     0.260    25.193     8.110
    12   8 O        0.856    -0.169    17.562     5.619
    13   7 N        2.729     0.026    20.792     6.772
    14   6 C        3.704    -0.099    22.544     6.788
    15   1 H        0.925     0.101     1.773     2.083
    16   1 H        0.925     0.107     1.721     2.052
    17   1 H        0.924     0.156     1.351     1.818
    18   1 H        0.926     0.128     1.548     1.945
    19   1 H        0.924     0.089     1.892     2.151
    20   1 H        0.924     0.081     1.965     2.192
    21   1 H        0.924     0.088     1.896     2.153
    22   1 H        0.925     0.100     1.789     2.092
    23   1 H        0.924     0.139     1.469     1.895
    24   1 H        0.925     0.107     1.723     2.053
    25   1 H        0.860     0.229     0.970     1.543

 Mol. C6AA /au·bohr⁶  :       6581.653200
 Mol. C8AA /au·bohr⁸  :     151260.679207
 Mol. α(0) /au        :        123.560358


Wiberg/Mayer (AO) data.
largest (>0.10) Wiberg bond orders for each atom

 ---------------------------------------------------------------------------
     #   Z sym  total        # sym  WBO       # sym  WBO       # sym  WBO
 ---------------------------------------------------------------------------
     1   6 C    3.893 --     2 N    0.979    15 H    0.963    16 H    0.956
                            17 H    0.937
     2   7 N    3.701 --     3 C    1.384     6 C    1.191     1 C    0.979
     3   6 C    3.883 --     2 N    1.384     4 N    1.317    18 H    0.951
     4   7 N    3.594 --     3 C    1.317     5 C    1.177    25 H    0.918
     5   6 C    3.854 --     6 C    1.445     4 N    1.177    13 N    1.011
     6   6 C    3.881 --     5 C    1.445     2 N    1.191     7 C    0.959
     7   6 C    3.928 --     8 O    1.530     9 N    1.375     6 C    0.959
     8   8 O    1.804 --     7 C    1.530     9 N    0.151
     9   7 N    2.721 --     7 C    1.375    10 C    1.064     8 O    0.151
    10   6 C    3.901 --     9 N    1.064    20 H    0.938    19 H    0.937
                            21 H    0.930
    11   6 C    3.453 --    12 O    1.963    13 N    1.402
    12   8 O    2.199 --    11 C    1.963    13 N    0.171
    13   7 N    3.587 --    11 C    1.402     5 C    1.011    14 C    0.936
                            12 O    0.171
    14   6 C    3.861 --    24 H    0.974    22 H    0.968    13 N    0.936
                            23 H    0.916
    15   1 H    0.987 --     1 C    0.963
    16   1 H    0.986 --     1 C    0.956
    17   1 H    0.974 --     1 C    0.937
    18   1 H    0.983 --     3 C    0.951
    19   1 H    0.943 --    10 C    0.937
    20   1 H    0.957 --    10 C    0.938
    21   1 H    0.951 --    10 C    0.930
    22   1 H    0.989 --    14 C    0.968
    23   1 H    0.979 --    14 C    0.916
    24   1 H    0.987 --    14 C    0.974
    25   1 H    0.947 --     4 N    0.918
 ---------------------------------------------------------------------------

Topologies differ in total number of bonds
Writing topology from bond orders to xtbtopo.mol

molecular dipole:
                 x           y           z       tot (Debye)
 q only:        1.122      -2.363       0.677
   full:        1.241      -2.639       0.815       7.697
molecular quadrupole (traceless):
                xx          xy          yy          xz          yz          zz
 q only:       19.761      -5.214      -2.816      11.149      -0.264     -16.945
  q+dip:       18.500      -8.045      -1.277      11.774      -0.001     -17.223
   full:       18.517      -8.234      -2.073      12.006       1.427     -16.444

           -------------------------------------------------
          |                Geometry Summary                 |
           -------------------------------------------------

      molecular mass/u    :      195.1988581
   center of mass at/Å    :        0.1141870      -0.3716942       0.2035714
  moments of inertia/u·Å² :        0.5631775E+03   0.8109360E+03   0.1291303E+04
rotational constants/cm⁻¹ :        0.2993307E-01   0.2078787E-01   0.1305475E-01

 * 24 selected distances

     #   Z          #   Z                                           value/Å
     1   6 C        2   7 N                                       1.4427766
     2   7 N        3   6 C                                       1.3264280
     3   6 C        4   7 N                                       1.3364387
     4   7 N        5   6 C                                       1.3756658
     2   7 N        6   6 C                                       1.3784490
     5   6 C        6   6 C                                       1.3872973
     7   6 C        8   8 O                                       1.2321729
     7   6 C        9   7 N                                       1.3142971
     9   7 N       10   6 C                                       1.4178190
    11   6 C       12   8 O                                       1.1706256
     5   6 C       13   7 N                                       1.4108933
    11   6 C       13   7 N                                       1.2864715
    13   7 N       14   6 C                                       1.4620065 (max)
     1   6 C       15   1 H                                       1.0889052
     1   6 C       16   1 H                                       1.0901413
     1   6 C       17   1 H                                       1.0914070
     3   6 C       18   1 H                                       1.0727301
    10   6 C       19   1 H                                       1.0946804
    10   6 C       20   1 H                                       1.0929834
    10   6 C       21   1 H                                       1.0937623
    14   6 C       22   1 H                                       1.0896871
    14   6 C       23   1 H                                       1.0970923
    14   6 C       24   1 H                                       1.0865134
     4   7 N       25   1 H                                       1.0112350 (min)

 * 5 distinct bonds (by element types)

   Z      Z             #   av. dist./Å        max./Å        min./Å
   1 H    6 C          10     1.0897902     1.0970923     1.0727301
   6 C    6 C           1     1.3872973     1.3872973     1.3872973
   1 H    7 N           1     1.0112350     1.0112350     1.0112350
   6 C    7 N          10     1.3751246     1.4620065     1.2864715
   6 C    8 O           2     1.2013993     1.2321729     1.1706256


optimized geometry written to: xtbopt.xyz


           -------------------------------------------------
          | TOTAL ENERGY              -42.118433679791 Eh   |
          | GRADIENT NORM               0.002201061088 Eh/α |
          | HOMO-LUMO GAP               1.168523578058 eV   |
           -------------------------------------------------

------------------------------------------------------------------------
 * finished run on 2024/06/05 at 19:58:01.564     
------------------------------------------------------------------------
 total:
 * wall-time:     0 d,  0 h,  0 min,  0.129 sec
 *  cpu-time:     0 d,  0 h,  0 min,  0.109 sec
 * ratio c/w:     0.845 speedup
 SCF:
 * wall-time:     0 d,  0 h,  0 min,  0.023 sec
 *  cpu-time:     0 d,  0 h,  0 min,  0.023 sec
 * ratio c/w:     1.000 speedup
 ANC optimizer:
 * wall-time:     0 d,  0 h,  0 min,  0.080 sec
 *  cpu-time:     0 d,  0 h,  0 min,  0.075 sec
 * ratio c/w:     0.932 speedup

