      -----------------------------------------------------------      
     |                   =====================                   |     
     |                           x T B                           |     
     |                   =====================                   |     
     |                         S. Grimme                         |     
     |          Mulliken Center for Theoretical Chemistry        |     
     |                    University of Bonn                     |     
      -----------------------------------------------------------      

   * xtb version 6.6.1 (8d0f1dd) compiled by 'conda@1efc2f54142f' on 2023-08-01

   xtb is free software: you can redistribute it and/or modify it under
   the terms of the GNU Lesser General Public License as published by
   the Free Software Foundation, either version 3 of the License, or
   (at your option) any later version.
   
   xtb is distributed in the hope that it will be useful,
   but WITHOUT ANY WARRANTY; without even the implied warranty of
   MERCHANTABILITY or FITNESS FOR A PARTICULAR PURPOSE.  See the
   GNU Lesser General Public License for more details.
   
   Cite this work as:
   * C. Bannwarth, E. Caldeweyher, S. Ehlert, A. Hansen, P. Pracht,
     J. Seibert, S. Spicher, S. Grimme, WIREs Comput. Mol. Sci., 2020, 11,
     e01493. DOI: 10.1002/wcms.1493
   
   for GFN2-xTB:
   * C. Bannwarth, S. Ehlert and S. Grimme., J. Chem. Theory Comput., 2019,
     15, 1652-1671. DOI: 10.1021/acs.jctc.8b01176
   for GFN1-xTB:
   * S. Grimme, C. Bannwarth, P. Shushkov, J. Chem. Theory Comput., 2017,
     13, 1989-2009. DOI: 10.1021/acs.jctc.7b00118
   for GFN0-xTB:
   * P. Pracht, E. Caldeweyher, S. Ehlert, S. Grimme, ChemRxiv, 2019, preprint.
     DOI: 10.26434/chemrxiv.8326202.v1
   for GFN-FF:
   * S. Spicher and S. Grimme, Angew. Chem. Int. Ed., 2020, 59, 15665-15673.
     DOI: 10.1002/anie.202004239
   
   for ALPB and GBSA implicit solvation:
   * S. Ehlert, M. Stahn, S. Spicher, S. Grimme, J. Chem. Theory Comput.,
     2021, 17, 4250-4261. DOI: 10.1021/acs.jctc.1c00471
   
   for DFT-D4:
   * E. Caldeweyher, C. Bannwarth and S. Grimme, J. Chem. Phys., 2017,
     147, 034112. DOI: 10.1063/1.4993215
   * E. Caldeweyher, S. Ehlert, A. Hansen, H. Neugebauer, S. Spicher,
     C. Bannwarth and S. Grimme, J. Chem. Phys., 2019, 150, 154122.
     DOI: 10.1063/1.5090222
   * E. Caldeweyher, J.-M. Mewes, S. Ehlert and S. Grimme, Phys. Chem. Chem. Phys.
     2020, 22, 8499-8512. DOI: 10.1039/D0CP00502A
   
   for sTDA-xTB:
   * S. Grimme and C. Bannwarth, J. Chem. Phys., 2016, 145, 054103.
     DOI: 10.1063/1.4959605
   
   in the mass-spec context:
   * V. Asgeirsson, C. Bauer and S. Grimme, Chem. Sci., 2017, 8, 4879.
     DOI: 10.1039/c7sc00601b
   * J. Koopman and S. Grimme, ACS Omega 2019, 4, 12, 15120-15133.
     DOI: 10.1021/acsomega.9b02011
   
   for metadynamics refer to:
   * S. Grimme, J. Chem. Theory Comput., 2019, 155, 2847-2862
     DOI: 10.1021/acs.jctc.9b00143
   
   for SPH calculations refer to:
   * S. Spicher and S. Grimme, J. Chem. Theory Comput., 2021, 17, 1701-1714
     DOI: 10.1021/acs.jctc.0c01306
   
   with help from (in alphabetical order)
   P. Atkinson, C. Bannwarth, F. Bohle, G. Brandenburg, E. Caldeweyher
   M. Checinski, S. Dohm, S. Ehlert, S. Ehrlich, I. Gerasimov, C. Hölzer
   A. Katbashev, J. Koopman, C. Lavigne, S. Lehtola, F. März, M. Müller,
   F. Musil, H. Neugebauer, J. Pisarek, C. Plett, P. Pracht, F. Pultar,
   J. Seibert, P. Shushkov, S. Spicher, M. Stahn, M. Steiner, T. Strunk,
   J. Stückrath, T. Rose, and J. Unsleber
   
 * started run on 2024/04/06 at 11:12:16.805     

           -------------------------------------------------
          |                Calculation Setup                |
           -------------------------------------------------

          program call               : xtb xtbopt.xyz --opt crude --input .xc2 --gfn2
          hostname                   : n-62-30-23
          coordinate file            : xtbopt.xyz
          omp threads                :                     1

   ID    Z sym.   atoms
    1    7 N      1, 17
    2    6 C      2-6, 8, 9, 11-16, 18-23, 25, 26, 28-33
    3    8 O      7, 10, 24, 27
    4    1 H      34-72
########################################################################
[WARNING] Please study the warnings concerning your input carefully
-1- readin_getIntValue: could not parse ''
########################################################################

           -------------------------------------------------
          |                 G F N 2 - x T B                 |
           -------------------------------------------------

        Reference                      10.1021/acs.jctc.8b01176
      * Hamiltonian:
        H0-scaling (s, p, d)           1.850000    2.230000    2.230000
        zeta-weighting                 0.500000
      * Dispersion:
        s8                             2.700000
        a1                             0.520000
        a2                             5.000000
        s9                             5.000000
      * Repulsion:
        kExp                           1.500000    1.000000
        rExp                           1.000000
      * Coulomb:
        alpha                          2.000000
        third order                    shell-resolved
        anisotropic                    true
        a3                             3.000000
        a5                             4.000000
        cn-shift                       1.200000
        cn-exp                         4.000000
        max-rad                        5.000000

q/qsh data taken from xtbrestart
CAMM data taken from xtbrestart

          ...................................................
          :                      SETUP                      :
          :.................................................:
          :  # basis functions                 171          :
          :  # atomic orbitals                 171          :
          :  # shells                          105          :
          :  # electrons                       180          :
          :  max. iterations                   250          :
          :  Hamiltonian                  GFN2-xTB          :
          :  restarted?                       true          :
          :  GBSA solvation                  false          :
          :  PC potential                    false          :
          :  electronic temp.         5000.0000000     K    :
          :  accuracy                    1.0000000          :
          :  -> integral cutoff          0.2500000E+02      :
          :  -> integral neglect         0.1000000E-07      :
          :  -> SCF convergence          0.1000000E-05 Eh   :
          :  -> wf. convergence          0.1000000E-03 e    :
          :  Broyden damping             0.4000000          :
          ...................................................

 iter      E             dE          RMSdq      gap      omega  full diag
   1   -100.5822698 -0.100582E+03  0.624E-05    0.08       0.0  T
   2   -100.5822698  0.609786E-08  0.219E-04    0.08      53.8  T
   3   -100.5822698 -0.628897E-08  0.385E-05    0.08     306.4  T

   *** convergence criteria satisfied after 3 iterations ***

         #    Occupation            Energy/Eh            Energy/eV
      -------------------------------------------------------------
         1        2.0000           -0.8182086             -22.2646
       ...           ...                  ...                  ...
        84        1.9911           -0.5057326             -13.7617
        85        1.9773           -0.4907448             -13.3538
        86        1.9300           -0.4725257             -12.8581
        87        1.9147           -0.4692789             -12.7697
        88        1.8799           -0.4635557             -12.6140
        89        1.8341           -0.4580584             -12.4644
        90        1.0950           -0.4230254             -11.5111 (HOMO)
        91        0.9988           -0.4199684             -11.4279 (LUMO)
        92        0.3872           -0.3974168             -10.8143
        93        0.0179           -0.3454688              -9.4007
        94        0.0026           -0.3147242              -8.5641
        95        0.0022           -0.3123349              -8.4991
       ...           ...                  ...                  ...
       171                          0.7137293              19.4216
      -------------------------------------------------------------
                  HL-Gap            0.0030570 Eh            0.0832 eV
             Fermi-level           -0.4200075 Eh          -11.4290 eV

 SCC (total)                   0 d,  0 h,  0 min,  0.120 sec
 SCC setup                      ...        0 min,  0.001 sec (  0.804%)
 Dispersion                     ...        0 min,  0.002 sec (  1.450%)
 classical contributions        ...        0 min,  0.000 sec (  0.377%)
 integral evaluation            ...        0 min,  0.019 sec ( 15.459%)
 iterations                     ...        0 min,  0.028 sec ( 23.257%)
 molecular gradient             ...        0 min,  0.070 sec ( 58.102%)
 printout                       ...        0 min,  0.001 sec (  0.538%)

         :::::::::::::::::::::::::::::::::::::::::::::::::::::
         ::                     SUMMARY                     ::
         :::::::::::::::::::::::::::::::::::::::::::::::::::::
         :: total energy             -99.211202344481 Eh    ::
         :: gradient norm              0.004388418462 Eh/a0 ::
         :: HOMO-LUMO gap              0.083184393689 eV    ::
         ::.................................................::
         :: SCC energy              -100.582269839776 Eh    ::
         :: -> isotropic ES            0.114687866988 Eh    ::
         :: -> anisotropic ES          0.002828243018 Eh    ::
         :: -> anisotropic XC          0.043462710828 Eh    ::
         :: -> dispersion             -0.075472988650 Eh    ::
         :: repulsion energy           1.369442543660 Eh    ::
         :: add. restraining           0.000000000000 Eh    ::
         :: total charge               1.000000000000 e     ::
         :::::::::::::::::::::::::::::::::::::::::::::::::::::

      ----------------------------------------------------------- 
     |                   =====================                   |
     |                        A N C O P T                        |
     |                   =====================                   |
     |               Approximate Normal Coordinate               |
     |                Rational Function Optimizer                |
      ----------------------------------------------------------- 

          ...................................................
          :                      SETUP                      :
          :.................................................:
          :   optimization level             crude          :
          :   max. optcycles                   200          :
          :   ANC micro-cycles                  20          :
          :   degrees of freedom               210          :
          :.................................................:
          :   RF solver                   davidson          :
          :   write xtbopt.log                true          :
          :   linear?                        false          :
          :   energy convergence         0.5000000E-03 Eh   :
          :   grad. convergence          0.1000000E-01 Eh/α :
          :   maxmium RF displ.          1.0000000          :
          :   Hlow (freq-cutoff)         0.1000000E-01      :
          :   Hmax (freq-cutoff)         5.0000000          :
          :   S6 in model hess.         20.0000000          :
          ...................................................

generating ANC from model Hessian ...
Using Lindh-Hessian (1995)
 Shifting diagonal of input Hessian by    9.9888074155998555E-003
 Lowest  eigenvalues of input Hessian
    0.000000    0.000000    0.000000    0.000000    0.000000    0.000000
    0.010000    0.010026    0.010140    0.010159    0.010299    0.010610
    0.010681    0.010925    0.011154    0.011494    0.011743    0.011943
 Highest eigenvalues
    2.000921    2.019520    2.049020    2.090428    2.184967    2.265886


........................................................................
.............................. CYCLE    1 ..............................
........................................................................

 iter      E             dE          RMSdq      gap      omega  full diag
   1   -100.5822698 -0.100582E+03  0.256E-05    0.08       0.0  T
   2   -100.5822698  0.449702E-09  0.627E-05    0.08     187.9  T
   3   -100.5822698 -0.455685E-09  0.205E-05    0.08     574.0  T
     SCC iter.                  ...        0 min,  0.026 sec
     gradient                   ...        0 min,  0.070 sec
 * total energy  :   -99.2112023 Eh     change       -0.1309530E-09 Eh
   gradient norm :     0.0043886 Eh/α   predicted     0.0000000E+00 (-100.00%)
   displ. norm   :     0.0688996 α      lambda       -0.1289412E-03
   maximum displ.:     0.0320152 α      in ANC's #27, #14, #11, ...

   *** GEOMETRY OPTIMIZATION CONVERGED AFTER 1 ITERATIONS ***

------------------------------------------------------------------------
 total energy gain   :        -0.0000000 Eh       -0.0000 kcal/mol
 total RMSD          :         0.0000002 a0        0.0000 Å
 total power (kW/mol):        -0.0000003 (step)   -0.0000 (real)
------------------------------------------------------------------------

 ANCopt (total)                0 d,  0 h,  0 min,  0.179 sec
 optimizer setup                ...        0 min,  0.000 sec (  0.144%)
 model hessian                  ...        0 min,  0.052 sec ( 29.099%)
 ANC generation                 ...        0 min,  0.006 sec (  3.545%)
 coordinate transformation      ...        0 min,  0.000 sec (  0.027%)
 single point calculation       ...        0 min,  0.118 sec ( 65.600%)
 optimization log               ...        0 min,  0.002 sec (  1.130%)
 hessian update                 ...        0 min,  0.000 sec (  0.001%)
 rational function              ...        0 min,  0.000 sec (  0.109%)

================
 final structure:
================
72
 xtb: 6.6.1 (8d0f1dd)
N           -2.16469422185722        2.70149827799510        2.38991647801869
C           -1.95251673273065        1.99688132494537        1.27289610950366
C           -3.10447840505425        1.81671251638779        0.18555743563151
C           -2.71933411903180        0.71424783511377        1.03283832110670
C           -4.25354491568865       -1.25219911230627       -2.08216246804003
C           -4.71906241131483       -1.10271658258845       -0.86857546463941
O           -5.68631982828312       -0.24145021225922       -0.46557574529573
C           -6.42863839838201        0.35471500871065       -1.50568104022721
C           -4.25783237767506       -2.01191029692320        0.24661913504034
O           -4.79524079508573       -3.22883147471450        0.03539148965765
C           -4.49447950374089       -4.31093147784683        0.89220050247822
C           -3.41871513033181       -1.70677904201176        1.26029976917875
C           -2.71769796913791       -0.49062321998317        1.58546754644287
C           -2.61164443230494        1.88427990132020       -1.25432682945762
C           -1.59699440735078        0.79701572299364       -1.63535373343980
C           -0.24306310628568        1.01033780530916       -1.08031696285223
N            0.53038031407638        0.05910954422950       -0.57803755268569
C            1.90976247563346        0.32227282737151       -0.24148070514344
C            2.86644063075714       -0.19090992934776       -1.33529070814126
C            4.29377444001156       -0.01629078830284       -0.89867265429879
C            4.96362634441814        1.17610610689936       -1.11955700064847
C            6.27367688837441        1.34176452342409       -0.69799615736520
C            6.94067660195852        0.31653147252132       -0.04194898997653
O            8.20839932122375        0.36398970698982        0.40470676193497
C            8.97330996479051        1.52675630220923        0.18339025891873
C            6.25914696443237       -0.90995920808008        0.19391924612340
O            6.97932403066240       -1.85352796279996        0.83137381289907
C            6.40142767516057       -3.11316814902085        1.07799326242562
C            4.94850521013335       -1.05056553502036       -0.23415254944919
C            0.08052711032701       -1.30781634236260       -0.45618210136743
C           -4.40140110957909        2.57871356663613        0.45231731144320
C           -5.08960291368611        2.10668141925399        1.72845298904661
C           -4.14344893982082        4.08323254210708        0.51313272511173
H           -3.56134349400617       -1.92147021318770       -2.53880686188408
H           -5.77388169058967        0.90154439898859       -2.19557308676057
H           -7.13571081476687        1.03657981749069       -1.03095346080934
H           -6.97054810911436       -0.40531625750726       -2.07723156957897
H           -4.84273866161401       -4.12178917200850        1.91099341468910
H           -5.03138412687681       -5.16280539484235        0.47961570589464
H           -3.42166077348508       -4.52596952942818        0.90223421717945
H           -3.21415844296279       -2.50031140247175        1.96783420045154
H           -2.05278059348883       -0.60837928745656        2.43661360336267
H           -3.47993896559808        1.75951944878705       -1.90420862034671
H           -2.19199537308433        2.87327023738201       -1.45254965566782
H           -2.00717642398536       -0.17305906098548       -1.35782202918332
H           -1.50839260035793        0.81627953318299       -2.73004780285648
H           -0.95828280631936        2.00785487028441        0.79707453756389
H            0.20631257917748        1.98481828818196       -1.20294976675033
H            2.14456269294673       -0.17077416887106        0.70581356701095
H            2.05645097916945        1.39592218845551       -0.11134730601956
H            2.68310745352720        0.36681420712023       -2.25507420705885
H            2.66564671586499       -1.24578258548475       -1.52622779424632
H            4.47085992721157        1.98524198786245       -1.63657436522783
H            6.77158934928375        2.27768453495878       -0.89083789325443
H            8.53583437338222        2.39556906416577        0.68445477123623
H            9.08191070565987        1.73622061952118       -0.88491003200181
H            9.95169526334877        1.31825140856393        0.61184399577992
H            7.17556827624319       -3.69866484341053        1.57008369411816
H            5.53337786146936       -3.03376806608662        1.74050188144786
H            6.10902879931996       -3.60990474869807        0.14756477645521
H            4.42563734199457       -1.97946749219131       -0.06752556298576
H           -0.06958483401242       -1.76100941273533       -1.43837243639844
H           -0.85935195089401       -1.35027081107682        0.09705879118503
H            0.82757542252944       -1.88321206316392        0.08418331258212
H           -5.06700458010664        2.38104240009908       -0.39383004120232
H           -4.42819887984777        2.25105360914660        2.57868997780462
H           -5.35535467434332        1.05596508627578        1.65076544422256
H           -5.99626382102373        2.68387011086241        1.89013317117938
H           -3.51142275649667        4.30302481399037        1.37216654334242
H           -3.65874026175988        4.44559578314475       -0.39073590121022
H           -5.08319310036396        4.61560978308075        0.63156542454332
H           -1.38380266363515        3.26119476966614        2.70648971406734

 Bond Distances (Angstroems)
 ---------------------------
N1-C2=1.3376         N1-H72=1.0116        C2-N1=1.3376         C2-C3=1.5943         C2-C4=1.5135         C2-H47=1.1023        
C3-C2=1.5943         C3-C4=1.4428         C3-C14=1.5234        C3-C31=1.5277        C4-C2=1.5135         C4-C3=1.4428         
C4-C13=1.3256        C5-C6=1.3084         C5-H34=1.0656        C6-C5=1.3084         C6-O7=1.3564         C6-C9=1.5110         
O7-C6=1.3564         O7-C8=1.4101         C8-O7=1.4101         C8-H35=1.0971        C8-H36=1.0910        C8-H37=1.0945        
C9-C6=1.5110         C9-O10=1.3470        C9-C12=1.3508        O10-C9=1.3470        O10-C11=1.4126       C11-O10=1.4126       
C11-H38=1.0932       C11-H39=1.0882       C11-H40=1.0942       C12-C9=1.3508        C12-C13=1.4409       C12-H41=1.0827       
C13-C4=1.3256        C13-C12=1.4409       C13-H42=1.0865       C14-C3=1.5234        C14-C15=1.5352       C14-H43=1.0917       
C14-H44=1.0925       C15-C14=1.5352       C15-C16=1.4788       C15-H45=1.0892       C15-H46=1.0984       C16-C15=1.4788       
C16-N17=1.3249       C16-H48=1.0801       N17-C16=1.3249       N17-C18=1.4440       N17-C30=1.4442       C18-N17=1.4440       
C18-C19=1.5411       C18-H49=1.0934       C18-H50=1.0914       C19-C18=1.5411       C19-C20=1.5028       C19-H51=1.0912       
C19-H52=1.0907       C20-C19=1.5028       C20-C21=1.3854       C20-C29=1.3928       C21-C20=1.3854       C21-C22=1.3861       
C21-H53=1.0793       C22-C21=1.3861       C22-C23=1.3879       C22-H54=1.0775       C23-C22=1.3879       C23-O24=1.3449       
C23-C26=1.4228       O24-C23=1.3449       O24-C25=1.4093       C25-O24=1.4093       C25-H55=1.0942       C25-H56=1.0940       
C25-H57=1.0882       C26-C23=1.4228       C26-O27=1.3473       C26-C29=1.3859       O27-C26=1.3473       O27-C28=1.4077       
C28-O27=1.4077       C28-H58=1.0882       C28-H59=1.0949       C28-H60=1.0945       C29-C20=1.3928       C29-C26=1.3859       
C29-H61=1.0789       C30-N17=1.4442       C30-H62=1.0921       C30-H63=1.0914       C30-H64=1.0868       C31-C3=1.5277        
C31-C32=1.5248       C31-C33=1.5277       C31-H65=1.0946       C32-C31=1.5248       C32-H66=1.0868       C32-H67=1.0866       
C32-H68=1.0869       C33-C31=1.5277       C33-H69=1.0889       C33-H70=1.0878       C33-H71=1.0865       H34-C5=1.0656        
H35-C8=1.0971        H36-C8=1.0910        H37-C8=1.0945        H38-C11=1.0932       H39-C11=1.0882       H40-C11=1.0942       
H41-C12=1.0827       H42-C13=1.0865       H43-C14=1.0917       H44-C14=1.0925       H45-C15=1.0892       H46-C15=1.0984       
H47-C2=1.1023        H48-C16=1.0801       H49-C18=1.0934       H50-C18=1.0914       H51-C19=1.0912       H52-C19=1.0907       
H53-C21=1.0793       H54-C22=1.0775       H55-C25=1.0942       H56-C25=1.0940       H57-C25=1.0882       H58-C28=1.0882       
H59-C28=1.0949       H60-C28=1.0945       H61-C29=1.0789       H62-C30=1.0921       H63-C30=1.0914       H64-C30=1.0868       
H65-C31=1.0946       H66-C32=1.0868       H67-C32=1.0866       H68-C32=1.0869       H69-C33=1.0889       H70-C33=1.0878       
H71-C33=1.0865       H72-N1=1.0116        
 C  H  Rav=1.0893 sigma=0.0066  Rmin=1.0656  Rmax=1.1023    38
 C  C  Rav=1.4550 sigma=0.0786  Rmin=1.3084  Rmax=1.5943    22
 N  H  Rav=1.0116 sigma=0.0000  Rmin=1.0116  Rmax=1.0116     1
 N  C  Rav=1.3877 sigma=0.0566  Rmin=1.3249  Rmax=1.4442     4
 O  C  Rav=1.3794 sigma=0.0307  Rmin=1.3449  Rmax=1.4126     8

 selected bond angles (degree)
 --------------------
H72-N1-C2=115.49               C3-C2-N1=120.96                C4-C2-N1=119.90                C4-C2-C3= 55.25                
H47-C2-N1=119.89               H47-C2-C3=111.00               H47-C2-C4=113.39               C4-C3-C2= 59.53                
C14-C3-C2=113.95               C14-C3-C4=120.17               C31-C3-C2=115.97               C31-C3-C4=120.35               
C31-C3-C14=114.68              C3-C4-C2= 65.22                C13-C4-C2=134.71               C13-C4-C3=160.00               
H34-C5-C6=134.45               O7-C6-C5=127.00                C9-C6-C5=120.48                C9-C6-O7=112.36                
C8-O7-C6=115.13                H35-C8-O7=111.12               H36-C8-O7=106.53               H36-C8-H35=110.42              
H37-C8-O7=110.62               H37-C8-H35=108.25              H37-C8-H36=109.90              O10-C9-C6=107.82               
C12-C9-C6=127.41               C12-C9-O10=124.72              C11-O10-C9=120.80              

 selected dihedral angles (degree)
 ---------------------------------
C3-C2-N1-H72=217.71           C4-C2-N1-H72=152.66           H47-C2-N1-H72=  3.50          C4-C3-C2-N1=253.06            
C4-C3-C2-H47=104.54           C14-C3-C2-N1=140.93           C14-C3-C2-C4=247.87           C14-C3-C2-H47=352.41          
C31-C3-C2-N1=  4.50           C31-C3-C2-C4=111.43           C31-C3-C2-H47=215.98          C3-C4-C2-N1=108.87            
C3-C4-C2-H47=259.91           C13-C4-C2-N1=290.91           C13-C4-C2-C3=182.04           C13-C4-C2-H47= 81.95          
C2-C4-C3-C14=101.69           C2-C4-C3-C31=255.85           C13-C4-C3-C2=175.75           C13-C4-C3-C14=277.45          
C13-C4-C3-C31= 71.61          O7-C6-C5-H34=185.07           C9-C6-C5-H34=  0.21           C8-O7-C6-C5= 13.09            
C8-O7-C6-C9=197.63            H35-C8-O7-C6=302.12           H36-C8-O7-C6=181.80           H37-C8-O7-C6= 62.40           
O10-C9-C6-C5=288.62           O10-C9-C6-O7=104.42           C12-C9-C6-C5=106.35           C12-C9-C6-O7=282.15           
C11-O10-C9-C6=177.33          C11-O10-C9-C12=359.53         
           -------------------------------------------------
          |                Final Singlepoint                |
           -------------------------------------------------

          ...................................................
          :                      SETUP                      :
          :.................................................:
          :  # basis functions                 171          :
          :  # atomic orbitals                 171          :
          :  # shells                          105          :
          :  # electrons                       180          :
          :  max. iterations                   250          :
          :  Hamiltonian                  GFN2-xTB          :
          :  restarted?                      false          :
          :  GBSA solvation                  false          :
          :  PC potential                    false          :
          :  electronic temp.         5000.0000000     K    :
          :  accuracy                    1.0000000          :
          :  -> integral cutoff          0.2500000E+02      :
          :  -> integral neglect         0.1000000E-07      :
          :  -> SCF convergence          0.1000000E-05 Eh   :
          :  -> wf. convergence          0.1000000E-03 e    :
          :  Broyden damping             0.4000000          :
          ...................................................

 iter      E             dE          RMSdq      gap      omega  full diag
   1   -100.5822698 -0.100582E+03  0.140E-05    0.08       0.0  T
   2   -100.5822698  0.322160E-09  0.499E-05    0.08     235.9  T
   3   -100.5822698 -0.333443E-09  0.825E-06    0.08    1428.8  T

   *** convergence criteria satisfied after 3 iterations ***

         #    Occupation            Energy/Eh            Energy/eV
      -------------------------------------------------------------
         1        2.0000           -0.8182088             -22.2646
       ...           ...                  ...                  ...
        84        1.9911           -0.5057324             -13.7617
        85        1.9773           -0.4907450             -13.3539
        86        1.9300           -0.4725258             -12.8581
        87        1.9147           -0.4692788             -12.7697
        88        1.8799           -0.4635552             -12.6140
        89        1.8341           -0.4580587             -12.4644
        90        1.0950           -0.4230255             -11.5111 (HOMO)
        91        0.9987           -0.4199677             -11.4279 (LUMO)
        92        0.3872           -0.3974166             -10.8143
        93        0.0179           -0.3454688              -9.4007
        94        0.0026           -0.3147245              -8.5641
        95        0.0022           -0.3123352              -8.4991
       ...           ...                  ...                  ...
       171                          0.7137295              19.4216
      -------------------------------------------------------------
                  HL-Gap            0.0030578 Eh            0.0832 eV
             Fermi-level           -0.4200073 Eh          -11.4290 eV

 SCC (total)                   0 d,  0 h,  0 min,  0.118 sec
 SCC setup                      ...        0 min,  0.001 sec (  0.746%)
 Dispersion                     ...        0 min,  0.002 sec (  1.368%)
 classical contributions        ...        0 min,  0.000 sec (  0.380%)
 integral evaluation            ...        0 min,  0.018 sec ( 15.662%)
 iterations                     ...        0 min,  0.026 sec ( 22.418%)
 molecular gradient             ...        0 min,  0.069 sec ( 58.938%)
 printout                       ...        0 min,  0.001 sec (  0.474%)

         :::::::::::::::::::::::::::::::::::::::::::::::::::::
         ::                     SUMMARY                     ::
         :::::::::::::::::::::::::::::::::::::::::::::::::::::
         :: total energy             -99.211202344655 Eh    ::
         :: gradient norm              0.004388512768 Eh/a0 ::
         :: HOMO-LUMO gap              0.083206588787 eV    ::
         ::.................................................::
         :: SCC energy              -100.582269839950 Eh    ::
         :: -> isotropic ES            0.114687018556 Eh    ::
         :: -> anisotropic ES          0.002828139561 Eh    ::
         :: -> anisotropic XC          0.043462758902 Eh    ::
         :: -> dispersion             -0.075472986131 Eh    ::
         :: repulsion energy           1.369442543660 Eh    ::
         :: add. restraining           0.000000000000 Eh    ::
         :: total charge               1.000000000000 e     ::
         :::::::::::::::::::::::::::::::::::::::::::::::::::::

           -------------------------------------------------
          |                Property Printout                |
           -------------------------------------------------

    * Orbital Energies and Occupations

         #    Occupation            Energy/Eh            Energy/eV
      -------------------------------------------------------------
         1        2.0000           -0.8182088             -22.2646
       ...           ...                  ...                  ...
        78        1.9982           -0.5308605             -14.4455
        79        1.9980           -0.5290697             -14.3967
        80        1.9968           -0.5221530             -14.2085
        81        1.9966           -0.5210314             -14.1780
        82        1.9958           -0.5174886             -14.0816
        83        1.9933           -0.5102564             -13.8848
        84        1.9911           -0.5057324             -13.7617
        85        1.9773           -0.4907450             -13.3539
        86        1.9300           -0.4725258             -12.8581
        87        1.9147           -0.4692788             -12.7697
        88        1.8799           -0.4635552             -12.6140
        89        1.8341           -0.4580587             -12.4644
        90        1.0950           -0.4230255             -11.5111 (HOMO)
        91        0.9987           -0.4199677             -11.4279 (LUMO)
        92        0.3872           -0.3974166             -10.8143
        93        0.0179           -0.3454688              -9.4007
        94        0.0026           -0.3147245              -8.5641
        95        0.0022           -0.3123352              -8.4991
        96        0.0003           -0.2801695              -7.6238
        97        0.0000           -0.2442401              -6.6461
        98        0.0000           -0.1898287              -5.1655
        99        0.0000           -0.1687287              -4.5913
       100                         -0.1382878              -3.7630
       101                         -0.0732551              -1.9934
       ...                                ...                  ...
       171                          0.7137295              19.4216
      -------------------------------------------------------------
                  HL-Gap            0.0030578 Eh            0.0832 eV
             Fermi-level           -0.4200073 Eh          -11.4290 eV

     #   Z          covCN         q      C6AA      α(0)
     1   7 N        1.773    -0.328    29.330     8.020
     2   6 C        3.776     0.087    19.157     6.236
     3   6 C        3.902     0.025    20.100     6.373
     4   6 C        2.943     0.003    27.954     8.671
     5   6 C        1.917    -0.161    35.684     9.647
     6   6 C        2.851     0.145    24.839     8.169
     7   8 O        1.705    -0.243    18.025     5.732
     8   6 C        3.659     0.031    20.330     6.471
     9   6 C        2.838     0.139    24.957     8.187
    10   8 O        1.707    -0.230    17.821     5.700
    11   6 C        3.639     0.024    20.537     6.518
    12   6 C        2.890    -0.084    30.098     8.995
    13   6 C        2.887    -0.035    28.875     8.810
    14   6 C        3.803    -0.063    21.708     6.633
    15   6 C        3.803    -0.072    21.873     6.658
    16   6 C        2.843     0.007    27.849     8.649
    17   7 N        2.729     0.016    20.968     6.801
    18   6 C        3.756    -0.018    20.945     6.525
    19   6 C        3.808    -0.071    21.852     6.654
    20   6 C        2.969     0.000    28.020     8.683
    21   6 C        2.922    -0.048    29.190     8.860
    22   6 C        2.914    -0.067    29.665     8.931
    23   6 C        2.865     0.134    25.065     8.206
    24   8 O        1.706    -0.220    17.651     5.672
    25   6 C        3.645     0.024    20.500     6.507
    26   6 C        2.863     0.134    25.077     8.208
    27   8 O        1.706    -0.223    17.703     5.681
    28   6 C        3.645     0.027    20.459     6.501
    29   6 C        2.920    -0.080    29.989     8.980
    30   6 C        3.701    -0.073    22.070     6.718
    31   6 C        3.851    -0.005    20.630     6.460
    32   6 C        3.756    -0.122    22.900     6.823
    33   6 C        3.756    -0.114    22.732     6.798
    34   1 H        0.927     0.056     2.250     2.346
    35   1 H        0.924     0.045     2.386     2.416
    36   1 H        0.924     0.074     2.045     2.236
    37   1 H        0.924     0.060     2.202     2.321
    38   1 H        0.924     0.062     2.181     2.309
    39   1 H        0.925     0.085     1.926     2.170
    40   1 H        0.924     0.051     2.313     2.379
    41   1 H        0.925     0.057     2.230     2.335
    42   1 H        0.925     0.057     2.231     2.336
    43   1 H        0.924     0.067     2.120     2.277
    44   1 H        0.924     0.058     2.225     2.333
    45   1 H        0.925     0.072     2.064     2.247
    46   1 H        0.923     0.086     1.915     2.164
    47   1 H        0.923     0.003     3.006     2.711
    48   1 H        0.926     0.072     2.062     2.245
    49   1 H        0.924     0.070     2.082     2.257
    50   1 H        0.924     0.069     2.097     2.264
    51   1 H        0.924     0.056     2.242     2.342
    52   1 H        0.924     0.056     2.245     2.343
    53   1 H        0.926     0.047     2.361     2.403
    54   1 H        0.926     0.060     2.200     2.320
    55   1 H        0.924     0.055     2.253     2.347
    56   1 H        0.924     0.057     2.237     2.339
    57   1 H        0.925     0.083     1.946     2.181
    58   1 H        0.925     0.083     1.952     2.185
    59   1 H        0.924     0.049     2.332     2.388
    60   1 H        0.924     0.053     2.287     2.365
    61   1 H        0.926     0.047     2.360     2.402
    62   1 H        0.924     0.077     2.008     2.216
    63   1 H        0.924     0.080     1.975     2.198
    64   1 H        0.925     0.082     1.956     2.187
    65   1 H        0.924     0.053     2.277     2.360
    66   1 H        0.925     0.073     2.050     2.239
    67   1 H        0.925     0.053     2.278     2.360
    68   1 H        0.925     0.052     2.299     2.371
    69   1 H        0.925     0.065     2.145     2.290
    70   1 H        0.925     0.035     2.522     2.484
    71   1 H        0.925     0.055     2.264     2.353
    72   1 H        0.860     0.145     1.437     1.878

 Mol. C6AA /au·bohr⁶  :      47199.222644
 Mol. C8AA /au·bohr⁸  :    1076795.848286
 Mol. α(0) /au        :        332.373328


Wiberg/Mayer (AO) data.
largest (>0.10) Wiberg bond orders for each atom

 ---------------------------------------------------------------------------
     #   Z sym  total        # sym  WBO       # sym  WBO       # sym  WBO
 ---------------------------------------------------------------------------
     1   7 N    2.390 --     2 C    1.329    72 H    0.949
     2   6 C    3.840 --     1 N    1.329    47 H    0.909     4 C    0.813
                             3 C    0.724
     3   6 C    3.792 --     4 C    1.026    14 C    0.979    31 C    0.962
                             2 C    0.724
     4   6 C    3.781 --    13 C    1.746     3 C    1.026     2 C    0.813
     5   6 C    3.016 --     6 C    1.844    34 H    0.958     7 O    0.115
     6   6 C    3.888 --     5 C    1.844     7 O    1.063     9 C    0.905
     7   8 O    2.212 --     6 C    1.063     8 C    0.975     5 C    0.115
     8   6 C    3.926 --    36 H    0.977     7 O    0.975    37 H    0.973
                            35 H    0.969
     9   6 C    3.811 --    12 C    1.610    10 O    1.116     6 C    0.905
    10   8 O    2.274 --     9 C    1.116    11 C    0.967
    11   6 C    3.924 --    39 H    0.975    40 H    0.973    38 H    0.972
                            10 O    0.967
    12   6 C    3.886 --     9 C    1.610    13 C    1.147    41 H    0.949
    13   6 C    3.954 --     4 C    1.746    12 C    1.147    42 H    0.948
    14   6 C    3.964 --    15 C    0.985     3 C    0.979    44 H    0.966
                            43 H    0.959
    15   6 C    3.985 --    16 C    1.062    14 C    0.985    45 H    0.957
                            46 H    0.923
    16   6 C    3.595 --    17 N    1.416    15 C    1.062    48 H    0.956
    17   7 N    3.487 --    16 C    1.416    30 C    0.997    18 C    0.988
    18   6 C    3.954 --    17 N    0.988    50 H    0.968    19 C    0.966
                            49 H    0.963
    19   6 C    3.976 --    20 C    1.008    51 H    0.972    52 H    0.971
                            18 C    0.966
    20   6 C    3.942 --    21 C    1.408    29 C    1.380    19 C    1.008
    21   6 C    3.948 --    22 C    1.418    20 C    1.408    53 H    0.968
    22   6 C    3.958 --    21 C    1.418    23 C    1.382    54 H    0.963
    23   6 C    3.893 --    22 C    1.382    26 C    1.218    24 O    1.113
    24   8 O    2.256 --    23 C    1.113    25 C    0.975
    25   6 C    3.927 --    57 H    0.977    24 O    0.975    56 H    0.972
                            55 H    0.972
    26   6 C    3.897 --    29 C    1.394    23 C    1.218    27 O    1.105
    27   8 O    2.255 --    26 C    1.105    28 C    0.978
    28   6 C    3.931 --    27 O    0.978    58 H    0.977    59 H    0.973
                            60 H    0.973
    29   6 C    3.958 --    26 C    1.394    20 C    1.380    61 H    0.962
    30   6 C    3.956 --    17 N    0.997    64 H    0.977    62 H    0.966
                            63 H    0.959
    31   6 C    3.966 --    32 C    1.008    33 C    0.998     3 C    0.962
                            65 H    0.942
    32   6 C    3.972 --    31 C    1.008    68 H    0.981    67 H    0.979
                            66 H    0.970
    33   6 C    3.969 --    31 C    0.998    70 H    0.984    71 H    0.981
                            69 H    0.967
    34   1 H    0.979 --     5 C    0.958
    35   1 H    0.994 --     8 C    0.969
    36   1 H    0.994 --     8 C    0.977
    37   1 H    0.991 --     8 C    0.973
    38   1 H    0.992 --    11 C    0.972
    39   1 H    0.992 --    11 C    0.975
    40   1 H    0.994 --    11 C    0.973
    41   1 H    0.986 --    12 C    0.949
    42   1 H    0.989 --    13 C    0.948
    43   1 H    0.985 --    14 C    0.959
    44   1 H    0.993 --    14 C    0.966
    45   1 H    0.994 --    15 C    0.957
    46   1 H    0.966 --    15 C    0.923
    47   1 H    0.979 --     2 C    0.909
    48   1 H    0.994 --    16 C    0.956
    49   1 H    0.990 --    18 C    0.963
    50   1 H    0.994 --    18 C    0.968
    51   1 H    0.995 --    19 C    0.972
    52   1 H    0.996 --    19 C    0.971
    53   1 H    0.997 --    21 C    0.968
    54   1 H    0.995 --    22 C    0.963
    55   1 H    0.991 --    25 C    0.972
    56   1 H    0.991 --    25 C    0.972
    57   1 H    0.992 --    25 C    0.977
    58   1 H    0.992 --    28 C    0.977
    59   1 H    0.993 --    28 C    0.973
    60   1 H    0.993 --    28 C    0.973
    61   1 H    0.997 --    29 C    0.962
    62   1 H    0.985 --    30 C    0.966
    63   1 H    0.987 --    30 C    0.959
    64   1 H    0.993 --    30 C    0.977
    65   1 H    0.979 --    31 C    0.942
    66   1 H    0.989 --    32 C    0.970
    67   1 H    0.994 --    32 C    0.979
    68   1 H    0.993 --    32 C    0.981
    69   1 H    0.991 --    33 C    0.967
    70   1 H    0.997 --    33 C    0.984
    71   1 H    0.993 --    33 C    0.981
    72   1 H    0.971 --     1 N    0.949
 ---------------------------------------------------------------------------

Topologies differ in total number of bonds
Writing topology from bond orders to xtbtopo.mol

molecular dipole:
                 x           y           z       tot (Debye)
 q only:        0.928      -0.373      -0.876
   full:        1.323      -0.433      -1.077       4.473
molecular quadrupole (traceless):
                xx          xy          yy          xz          yz          zz
 q only:       55.820       5.023     -10.865       3.818     -13.542     -44.955
  q+dip:       46.052      11.733      -4.200       5.555     -15.639     -41.852
   full:       46.112      11.431      -4.336       4.373     -14.975     -41.776

           -------------------------------------------------
          |                Geometry Summary                 |
           -------------------------------------------------

      molecular mass/u    :      455.6105846
   center of mass at/Å    :        0.0229125       0.0524316       0.0070100
  moments of inertia/u·Å² :        0.2196330E+04   0.1098656E+05   0.1207973E+05
rotational constants/cm⁻¹ :        0.7675365E-02   0.1534386E-02   0.1395531E-02

 * 66 selected distances

     #   Z          #   Z                                           value/Å
     1   7 N        2   6 C                                       1.3376245
     3   6 C        4   6 C                                       1.4427924
     5   6 C        6   6 C                                       1.3083751
     6   6 C        7   8 O                                       1.3563833
     7   8 O        8   6 C                                       1.4100600
     9   6 C       10   8 O                                       1.3469679
    10   8 O       11   6 C                                       1.4126287
     9   6 C       12   6 C                                       1.3508411
     4   6 C       13   6 C                                       1.3255626
     3   6 C       14   6 C                                       1.5233902
    14   6 C       15   6 C                                       1.5352003
    15   6 C       16   6 C                                       1.4787503
    16   6 C       17   7 N                                       1.3248905
    17   7 N       18   6 C                                       1.4440294
    18   6 C       19   6 C                                       1.5411069 (max)
    20   6 C       21   6 C                                       1.3853888
    21   6 C       22   6 C                                       1.3861418
    22   6 C       23   6 C                                       1.3879444
    23   6 C       24   8 O                                       1.3449442
    24   8 O       25   6 C                                       1.4092891
    23   6 C       26   6 C                                       1.4228128
    26   6 C       27   8 O                                       1.3473402
    27   8 O       28   6 C                                       1.4076502
    20   6 C       29   6 C                                       1.3928331
    26   6 C       29   6 C                                       1.3859285
    17   7 N       30   6 C                                       1.4441965
     3   6 C       31   6 C                                       1.5276830
    31   6 C       32   6 C                                       1.5247815
    31   6 C       33   6 C                                       1.5276831
     8   6 C       35   1 H                                       1.0971235
     8   6 C       36   1 H                                       1.0909892
     8   6 C       37   1 H                                       1.0945245
    11   6 C       38   1 H                                       1.0931599
    11   6 C       39   1 H                                       1.0882014
    11   6 C       40   1 H                                       1.0942040
    12   6 C       41   1 H                                       1.0826552
    13   6 C       42   1 H                                       1.0864766
    14   6 C       43   1 H                                       1.0917175
    14   6 C       44   1 H                                       1.0924741
    15   6 C       45   1 H                                       1.0891825
    15   6 C       46   1 H                                       1.0984429
     2   6 C       47   1 H                                       1.1022830
    16   6 C       48   1 H                                       1.0800878
    18   6 C       49   1 H                                       1.0934318
    18   6 C       50   1 H                                       1.0914098
    19   6 C       51   1 H                                       1.0911779
    19   6 C       52   1 H                                       1.0906565
    21   6 C       53   1 H                                       1.0792714
    22   6 C       54   1 H                                       1.0775209 (min)
    25   6 C       55   1 H                                       1.0942058
    25   6 C       56   1 H                                       1.0940453
    25   6 C       57   1 H                                       1.0882486
    28   6 C       58   1 H                                       1.0882340
    28   6 C       59   1 H                                       1.0948665
    28   6 C       60   1 H                                       1.0945052
    29   6 C       61   1 H                                       1.0788950
    30   6 C       62   1 H                                       1.0920694
    30   6 C       63   1 H                                       1.0914443
    30   6 C       64   1 H                                       1.0868102
    31   6 C       65   1 H                                       1.0945627
    32   6 C       66   1 H                                       1.0868311
    32   6 C       67   1 H                                       1.0865838
    32   6 C       68   1 H                                       1.0868861
    33   6 C       69   1 H                                       1.0889008
    33   6 C       70   1 H                                       1.0877630
    33   6 C       71   1 H                                       1.0865409

 * 4 distinct bonds (by element types)

   Z      Z             #   av. dist./Å        max./Å        min./Å
   1 H    6 C          37     1.0899023     1.1022830     1.0775209
   6 C    6 C          17     1.4380715     1.5411069     1.3083751
   6 C    7 N           4     1.3876852     1.4441965     1.3248905
   6 C    8 O           8     1.3794080     1.4126287     1.3449442


optimized geometry written to: xtbopt.xyz


           -------------------------------------------------
          | TOTAL ENERGY              -99.211202344655 Eh   |
          | GRADIENT NORM               0.004388512768 Eh/α |
          | HOMO-LUMO GAP               0.083206588787 eV   |
           -------------------------------------------------

------------------------------------------------------------------------
 * finished run on 2024/04/06 at 11:12:17.276     
------------------------------------------------------------------------
 total:
 * wall-time:     0 d,  0 h,  0 min,  0.470 sec
 *  cpu-time:     0 d,  0 h,  0 min,  0.440 sec
 * ratio c/w:     0.938 speedup
 SCF:
 * wall-time:     0 d,  0 h,  0 min,  0.120 sec
 *  cpu-time:     0 d,  0 h,  0 min,  0.120 sec
 * ratio c/w:     0.997 speedup
 ANC optimizer:
 * wall-time:     0 d,  0 h,  0 min,  0.304 sec
 *  cpu-time:     0 d,  0 h,  0 min,  0.296 sec
 * ratio c/w:     0.976 speedup

