      -----------------------------------------------------------      
     |                   =====================                   |     
     |                           x T B                           |     
     |                   =====================                   |     
     |                         S. Grimme                         |     
     |          Mulliken Center for Theoretical Chemistry        |     
     |                    University of Bonn                     |     
      -----------------------------------------------------------      

   * xtb version 6.6.1 (8d0f1dd) compiled by 'conda@1efc2f54142f' on 2023-08-01

   xtb is free software: you can redistribute it and/or modify it under
   the terms of the GNU Lesser General Public License as published by
   the Free Software Foundation, either version 3 of the License, or
   (at your option) any later version.
   
   xtb is distributed in the hope that it will be useful,
   but WITHOUT ANY WARRANTY; without even the implied warranty of
   MERCHANTABILITY or FITNESS FOR A PARTICULAR PURPOSE.  See the
   GNU Lesser General Public License for more details.
   
   Cite this work as:
   * C. Bannwarth, E. Caldeweyher, S. Ehlert, A. Hansen, P. Pracht,
     J. Seibert, S. Spicher, S. Grimme, WIREs Comput. Mol. Sci., 2020, 11,
     e01493. DOI: 10.1002/wcms.1493
   
   for GFN2-xTB:
   * C. Bannwarth, S. Ehlert and S. Grimme., J. Chem. Theory Comput., 2019,
     15, 1652-1671. DOI: 10.1021/acs.jctc.8b01176
   for GFN1-xTB:
   * S. Grimme, C. Bannwarth, P. Shushkov, J. Chem. Theory Comput., 2017,
     13, 1989-2009. DOI: 10.1021/acs.jctc.7b00118
   for GFN0-xTB:
   * P. Pracht, E. Caldeweyher, S. Ehlert, S. Grimme, ChemRxiv, 2019, preprint.
     DOI: 10.26434/chemrxiv.8326202.v1
   for GFN-FF:
   * S. Spicher and S. Grimme, Angew. Chem. Int. Ed., 2020, 59, 15665-15673.
     DOI: 10.1002/anie.202004239
   
   for ALPB and GBSA implicit solvation:
   * S. Ehlert, M. Stahn, S. Spicher, S. Grimme, J. Chem. Theory Comput.,
     2021, 17, 4250-4261. DOI: 10.1021/acs.jctc.1c00471
   
   for DFT-D4:
   * E. Caldeweyher, C. Bannwarth and S. Grimme, J. Chem. Phys., 2017,
     147, 034112. DOI: 10.1063/1.4993215
   * E. Caldeweyher, S. Ehlert, A. Hansen, H. Neugebauer, S. Spicher,
     C. Bannwarth and S. Grimme, J. Chem. Phys., 2019, 150, 154122.
     DOI: 10.1063/1.5090222
   * E. Caldeweyher, J.-M. Mewes, S. Ehlert and S. Grimme, Phys. Chem. Chem. Phys.
     2020, 22, 8499-8512. DOI: 10.1039/D0CP00502A
   
   for sTDA-xTB:
   * S. Grimme and C. Bannwarth, J. Chem. Phys., 2016, 145, 054103.
     DOI: 10.1063/1.4959605
   
   in the mass-spec context:
   * V. Asgeirsson, C. Bauer and S. Grimme, Chem. Sci., 2017, 8, 4879.
     DOI: 10.1039/c7sc00601b
   * J. Koopman and S. Grimme, ACS Omega 2019, 4, 12, 15120-15133.
     DOI: 10.1021/acsomega.9b02011
   
   for metadynamics refer to:
   * S. Grimme, J. Chem. Theory Comput., 2019, 155, 2847-2862
     DOI: 10.1021/acs.jctc.9b00143
   
   for SPH calculations refer to:
   * S. Spicher and S. Grimme, J. Chem. Theory Comput., 2021, 17, 1701-1714
     DOI: 10.1021/acs.jctc.0c01306
   
   with help from (in alphabetical order)
   P. Atkinson, C. Bannwarth, F. Bohle, G. Brandenburg, E. Caldeweyher
   M. Checinski, S. Dohm, S. Ehlert, S. Ehrlich, I. Gerasimov, C. Hölzer
   A. Katbashev, J. Koopman, C. Lavigne, S. Lehtola, F. März, M. Müller,
   F. Musil, H. Neugebauer, J. Pisarek, C. Plett, P. Pracht, F. Pultar,
   J. Seibert, P. Shushkov, S. Spicher, M. Stahn, M. Steiner, T. Strunk,
   J. Stückrath, T. Rose, and J. Unsleber
   
 * started run on 2024/06/05 at 19:58:06.283     

           -------------------------------------------------
          |                Calculation Setup                |
           -------------------------------------------------

          program call               : xtb xtbopt.xyz --opt crude --input .xc2 --gfn2
          hostname                   : n-62-12-66
          coordinate file            : xtbopt.xyz
          omp threads                :                     1

   ID    Z sym.   atoms
    1    6 C      1, 3, 5-7, 10, 11, 14
    2    7 N      2, 4, 9, 13
    3    8 O      8, 12
    4    1 H      15-25
########################################################################
[WARNING] Please study the warnings concerning your input carefully
-1- readin_getIntValue: could not parse ''
########################################################################

           -------------------------------------------------
          |                 G F N 2 - x T B                 |
           -------------------------------------------------

        Reference                      10.1021/acs.jctc.8b01176
      * Hamiltonian:
        H0-scaling (s, p, d)           1.850000    2.230000    2.230000
        zeta-weighting                 0.500000
      * Dispersion:
        s8                             2.700000
        a1                             0.520000
        a2                             5.000000
        s9                             5.000000
      * Repulsion:
        kExp                           1.500000    1.000000
        rExp                           1.000000
      * Coulomb:
        alpha                          2.000000
        third order                    shell-resolved
        anisotropic                    true
        a3                             3.000000
        a5                             4.000000
        cn-shift                       1.200000
        cn-exp                         4.000000
        max-rad                        5.000000

q/qsh data taken from xtbrestart
CAMM data taken from xtbrestart

          ...................................................
          :                      SETUP                      :
          :.................................................:
          :  # basis functions                  67          :
          :  # atomic orbitals                  67          :
          :  # shells                           39          :
          :  # electrons                        74          :
          :  max. iterations                   250          :
          :  Hamiltonian                  GFN2-xTB          :
          :  restarted?                       true          :
          :  GBSA solvation                  false          :
          :  PC potential                    false          :
          :  electronic temp.         5000.0000000     K    :
          :  accuracy                    1.0000000          :
          :  -> integral cutoff          0.2500000E+02      :
          :  -> integral neglect         0.1000000E-07      :
          :  -> SCF convergence          0.1000000E-05 Eh   :
          :  -> wf. convergence          0.1000000E-03 e    :
          :  Broyden damping             0.4000000          :
          ...................................................

 iter      E             dE          RMSdq      gap      omega  full diag
   1    -42.6323861 -0.426324E+02  0.154E-05    1.58       0.0  T
   2    -42.6323861  0.107221E-10  0.211E-05    1.58     948.3  T
   3    -42.6323861 -0.210534E-10  0.308E-06    1.58    6499.7  T

   *** convergence criteria satisfied after 3 iterations ***

         #    Occupation            Energy/Eh            Energy/eV
      -------------------------------------------------------------
         1        2.0000           -0.8974045             -24.4196
       ...           ...                  ...                  ...
        31        1.9987           -0.6221104             -16.9285
        32        1.9977           -0.6133670             -16.6906
        33        1.9892           -0.5886521             -16.0180
        34        1.9586           -0.5670795             -15.4310
        35        1.9403           -0.5611391             -15.2694
        36        1.9175           -0.5558226             -15.1247
        37        1.7947           -0.5403425             -14.7035 (HOMO)
        38        0.3642           -0.4822284             -13.1221 (LUMO)
        39        0.0393           -0.4440881             -12.0843
        40        0.0017           -0.3936907             -10.7129
        41        0.0003           -0.3664421              -9.9714
        42        0.0000           -0.2598017              -7.0696
       ...           ...                  ...                  ...
        67                         25.4504507             692.5420
      -------------------------------------------------------------
                  HL-Gap            0.0581141 Eh            1.5814 eV
             Fermi-level           -0.5060160 Eh          -13.7694 eV

 SCC (total)                   0 d,  0 h,  0 min,  0.020 sec
 SCC setup                      ...        0 min,  0.000 sec (  1.204%)
 Dispersion                     ...        0 min,  0.000 sec (  1.105%)
 classical contributions        ...        0 min,  0.000 sec (  0.339%)
 integral evaluation            ...        0 min,  0.004 sec ( 20.608%)
 iterations                     ...        0 min,  0.004 sec ( 21.804%)
 molecular gradient             ...        0 min,  0.011 sec ( 54.265%)
 printout                       ...        0 min,  0.000 sec (  0.637%)

         :::::::::::::::::::::::::::::::::::::::::::::::::::::
         ::                     SUMMARY                     ::
         :::::::::::::::::::::::::::::::::::::::::::::::::::::
         :: total energy             -37.619871916427 Eh    ::
         :: gradient norm             23.667077415828 Eh/a0 ::
         :: HOMO-LUMO gap              1.581365740809 eV    ::
         ::.................................................::
         :: SCC energy               -42.632386061328 Eh    ::
         :: -> isotropic ES            0.151029199959 Eh    ::
         :: -> anisotropic ES         -0.005734516982 Eh    ::
         :: -> anisotropic XC          0.018802415659 Eh    ::
         :: -> dispersion             -0.022924027597 Eh    ::
         :: repulsion energy           5.012336762373 Eh    ::
         :: add. restraining           0.000000000000 Eh    ::
         :: total charge               1.000000000006 e     ::
         :::::::::::::::::::::::::::::::::::::::::::::::::::::

      ----------------------------------------------------------- 
     |                   =====================                   |
     |                        A N C O P T                        |
     |                   =====================                   |
     |               Approximate Normal Coordinate               |
     |                Rational Function Optimizer                |
      ----------------------------------------------------------- 

          ...................................................
          :                      SETUP                      :
          :.................................................:
          :   optimization level             crude          :
          :   max. optcycles                   200          :
          :   ANC micro-cycles                  20          :
          :   degrees of freedom                69          :
          :.................................................:
          :   RF solver                   davidson          :
          :   write xtbopt.log                true          :
          :   linear?                        false          :
          :   energy convergence         0.5000000E-03 Eh   :
          :   grad. convergence          0.1000000E-01 Eh/α :
          :   maxmium RF displ.          1.0000000          :
          :   Hlow (freq-cutoff)         0.1000000E-01      :
          :   Hmax (freq-cutoff)         5.0000000          :
          :   S6 in model hess.         20.0000000          :
          ...................................................

generating ANC from model Hessian ...
Using Lindh-Hessian (1995)
 Shifting diagonal of input Hessian by    7.1972675167886651E-003
 Lowest  eigenvalues of input Hessian
    0.000000    0.000000    0.000000    0.000000    0.000000    0.000000
    0.010000    0.010588    0.011041    0.013468    0.014559    0.016133
    0.017596    0.023190    0.025846    0.028819    0.034335    0.041841
 Highest eigenvalues
    2.292214    2.494629    2.532746    4.372318    6.798374   11.479329


........................................................................
.............................. CYCLE    1 ..............................
........................................................................

 iter      E             dE          RMSdq      gap      omega  full diag
   1    -42.6323861 -0.426324E+02  0.205E-06    1.58       0.0  T
   2    -42.6323861 -0.497380E-13  0.140E-06    1.58   14262.5  T
   3    -42.6323861  0.284217E-13  0.108E-06    1.58   18463.2  T
     SCC iter.                  ...        0 min,  0.003 sec
     gradient                   ...        0 min,  0.008 sec
 * total energy  :   -37.6198719 Eh     change       -0.5684342E-13 Eh
   gradient norm :    23.6670774 Eh/α   predicted     0.0000000E+00 (-100.00%)
   displ. norm   :     0.9125873 α      lambda       -0.2159151E+02
   maximum displ.:     0.9072942 α      in ANC's #67, #63, #60, ...

........................................................................
.............................. CYCLE    2 ..............................
........................................................................

 iter      E             dE          RMSdq      gap      omega  full diag
   1    -42.6523807 -0.426524E+02  0.107E+00    1.83       0.0  T
   2    -42.6574870 -0.510625E-02  0.617E-01    1.66       1.0  T
   3    -42.6582594 -0.772450E-03  0.408E-01    1.90       1.0  T
   4    -42.6600531 -0.179373E-02  0.147E-01    1.67       1.0  T
   5    -42.6606525 -0.599401E-03  0.552E-02    1.80       1.0  T
   6    -42.6607498 -0.972986E-04  0.256E-02    1.76       1.0  T
   7    -42.6607598 -0.995588E-05  0.107E-02    1.76       1.9  T
   8    -42.6607604 -0.566040E-06  0.221E-03    1.76       9.0  T
   9    -42.6607604 -0.716984E-07  0.807E-04    1.76      24.8  T
  10    -42.6607604 -0.344092E-08  0.350E-04    1.76      57.1  T
     SCC iter.                  ...        0 min,  0.008 sec
     gradient                   ...        0 min,  0.008 sec
 * total energy  :   -42.0776289 Eh     change       -0.4457757E+01 Eh
   gradient norm :     0.1781916 Eh/α   predicted    -0.1979099E+02 ( 343.97%)
   displ. norm   :     0.3795655 α      lambda       -0.4079490E-01
   maximum displ.:     0.1094049 α      in ANC's #32, #2, #37, ...

........................................................................
.............................. CYCLE    3 ..............................
........................................................................

 iter      E             dE          RMSdq      gap      omega  full diag
   1    -42.6586096 -0.426586E+02  0.381E-01    1.64       0.0  T
   2    -42.6589933 -0.383700E-03  0.242E-01    1.65       1.0  T
   3    -42.6589973 -0.396657E-05  0.124E-01    1.63       1.0  T
   4    -42.6591364 -0.139161E-03  0.559E-02    1.64       1.0  T
   5    -42.6592111 -0.747280E-04  0.124E-02    1.64       1.6  T
   6    -42.6592096  0.152794E-05  0.904E-03    1.63       2.2  T
   7    -42.6592124 -0.274941E-05  0.371E-03    1.64       5.4  T
   8    -42.6592128 -0.412283E-06  0.855E-04    1.64      23.4  T
   9    -42.6592128 -0.433675E-08  0.408E-04    1.64      49.0  T
     SCC iter.                  ...        0 min,  0.008 sec
     gradient                   ...        0 min,  0.008 sec
 * total energy  :   -42.1029942 Eh     change       -0.2536526E-01 Eh
   gradient norm :     0.1346647 Eh/α   predicted    -0.2334119E-01 (  -7.98%)
   displ. norm   :     0.2379116 α      lambda       -0.8597663E-02
   maximum displ.:     0.1025144 α      in ANC's #2, #18, #38, ...

........................................................................
.............................. CYCLE    4 ..............................
........................................................................

 iter      E             dE          RMSdq      gap      omega  full diag
   1    -42.6540991 -0.426541E+02  0.248E-01    1.59       0.0  T
   2    -42.6541234 -0.243332E-04  0.144E-01    1.62       1.0  T
   3    -42.6536019  0.521556E-03  0.126E-01    1.53       1.0  T
   4    -42.6541515 -0.549595E-03  0.346E-02    1.62       1.0  T
   5    -42.6542001 -0.486034E-04  0.646E-03    1.60       3.1  T
   6    -42.6542005 -0.374785E-06  0.378E-03    1.60       5.3  T
   7    -42.6542006 -0.120891E-06  0.159E-03    1.60      12.6  T
   8    -42.6542006 -0.534040E-07  0.479E-04    1.60      41.7  T
   9    -42.6542006 -0.303469E-08  0.231E-04    1.60      86.6  T
     SCC iter.                  ...        0 min,  0.008 sec
     gradient                   ...        0 min,  0.008 sec
 * total energy  :   -42.1084338 Eh     change       -0.5439561E-02 Eh
   gradient norm :     0.1368806 Eh/α   predicted    -0.4542101E-02 ( -16.50%)
   displ. norm   :     0.1467855 α      lambda       -0.2251732E-02
   maximum displ.:     0.0961609 α      in ANC's #2, #18, #30, ...

........................................................................
.............................. CYCLE    5 ..............................
........................................................................

 iter      E             dE          RMSdq      gap      omega  full diag
   1    -42.6511018 -0.426511E+02  0.123E-01    1.57       0.0  T
   2    -42.6511051 -0.328932E-05  0.747E-02    1.60       1.0  T
   3    -42.6509615  0.143589E-03  0.699E-02    1.54       1.0  T
   4    -42.6511264 -0.164903E-03  0.191E-02    1.59       1.0  T
   5    -42.6511397 -0.132774E-04  0.450E-03    1.58       4.4  T
   6    -42.6511402 -0.480092E-06  0.175E-03    1.58      11.4  T
   7    -42.6511402 -0.347152E-07  0.922E-04    1.58      21.7  T
   8    -42.6511402 -0.102722E-07  0.224E-04    1.58      89.1  T
     SCC iter.                  ...        0 min,  0.007 sec
     gradient                   ...        0 min,  0.008 sec
 * total energy  :   -42.1101099 Eh     change       -0.1676105E-02 Eh
   gradient norm :     0.1322423 Eh/α   predicted    -0.1150324E-02 ( -31.37%)
   displ. norm   :     0.1925984 α      lambda       -0.2456722E-02
   maximum displ.:     0.1448982 α      in ANC's #2, #1, #5, ...

........................................................................
.............................. CYCLE    6 ..............................
........................................................................

 iter      E             dE          RMSdq      gap      omega  full diag
   1    -42.6482864 -0.426483E+02  0.137E-01    1.56       0.0  T
   2    -42.6482863  0.649426E-07  0.842E-02    1.59       1.0  T
   3    -42.6480897  0.196649E-03  0.789E-02    1.53       1.0  T
   4    -42.6483164 -0.226755E-03  0.216E-02    1.58       1.0  T
   5    -42.6483318 -0.153186E-04  0.464E-03    1.57       4.3  T
   6    -42.6483322 -0.464049E-06  0.187E-03    1.57      10.7  T
   7    -42.6483323 -0.384244E-07  0.103E-03    1.57      19.5  T
   8    -42.6483323 -0.143430E-07  0.218E-04    1.57      91.8  T
   9    -42.6483323 -0.641251E-09  0.102E-04    1.57     197.0  T
     SCC iter.                  ...        0 min,  0.008 sec
     gradient                   ...        0 min,  0.008 sec
 * total energy  :   -42.1119727 Eh     change       -0.1862816E-02 Eh
   gradient norm :     0.1175433 Eh/α   predicted    -0.1273937E-02 ( -31.61%)
   displ. norm   :     0.2245964 α      lambda       -0.3003155E-02
   maximum displ.:     0.1816154 α      in ANC's #2, #1, #4, ...

........................................................................
.............................. CYCLE    7 ..............................
........................................................................

 iter      E             dE          RMSdq      gap      omega  full diag
   1    -42.6460743 -0.426461E+02  0.137E-01    1.55       0.0  T
   2    -42.6460679  0.640666E-05  0.850E-02    1.58       1.0  T
   3    -42.6458309  0.236961E-03  0.815E-02    1.52       1.0  T
   4    -42.6460997 -0.268795E-03  0.194E-02    1.57       1.0  T
   5    -42.6461108 -0.111483E-04  0.362E-03    1.56       5.5  T
   6    -42.6461110 -0.206930E-06  0.184E-03    1.56      10.9  T
   7    -42.6461111 -0.287320E-07  0.957E-04    1.56      20.9  T
   8    -42.6461111 -0.165758E-07  0.180E-04    1.56     110.9  T
     SCC iter.                  ...        0 min,  0.007 sec
     gradient                   ...        0 min,  0.008 sec
 * total energy  :   -42.1142629 Eh     change       -0.2290200E-02 Eh
   gradient norm :     0.0908150 Eh/α   predicted    -0.1577322E-02 ( -31.13%)
   displ. norm   :     0.2204613 α      lambda       -0.3460674E-02
   maximum displ.:     0.1816214 α      in ANC's #2, #1, #67, ...

........................................................................
.............................. CYCLE    8 ..............................
........................................................................

 iter      E             dE          RMSdq      gap      omega  full diag
   1    -42.6455875 -0.426456E+02  0.126E-01    1.56       0.0  T
   2    -42.6455890 -0.153824E-05  0.747E-02    1.57       1.0  T
   3    -42.6454649  0.124106E-03  0.556E-02    1.54       1.0  T
   4    -42.6455939 -0.128956E-03  0.128E-02    1.58       1.6  T
   5    -42.6455994 -0.545490E-05  0.300E-03    1.57       6.7  T
   6    -42.6455995 -0.151737E-06  0.169E-03    1.57      11.9  T
   7    -42.6455995 -0.400915E-07  0.392E-04    1.57      51.0  T
   8    -42.6455995 -0.170034E-08  0.138E-04    1.57     144.9  T
     SCC iter.                  ...        0 min,  0.007 sec
     gradient                   ...        0 min,  0.008 sec
 * total energy  :   -42.1167937 Eh     change       -0.2530797E-02 Eh
   gradient norm :     0.0546651 Eh/α   predicted    -0.1814441E-02 ( -28.31%)
   displ. norm   :     0.1700809 α      lambda       -0.2537339E-02
   maximum displ.:     0.1239427 α      in ANC's #2, #1, #4, ...

........................................................................
.............................. CYCLE    9 ..............................
........................................................................

 iter      E             dE          RMSdq      gap      omega  full diag
   1    -42.6457673 -0.426458E+02  0.109E-01    1.58       0.0  T
   2    -42.6457790 -0.116447E-04  0.610E-02    1.57       1.0  T
   3    -42.6457585  0.204505E-04  0.310E-02    1.59       1.0  T
   4    -42.6457704 -0.118915E-04  0.164E-02    1.57       1.2  T
   5    -42.6457827 -0.123087E-04  0.387E-03    1.58       5.2  T
   6    -42.6457831 -0.420818E-06  0.162E-03    1.58      12.3  T
   7    -42.6457832 -0.325964E-07  0.643E-04    1.58      31.1  T
   8    -42.6457832 -0.356076E-08  0.167E-04    1.58     120.0  T
     SCC iter.                  ...        0 min,  0.007 sec
     gradient                   ...        0 min,  0.008 sec
 * total energy  :   -42.1184988 Eh     change       -0.1705073E-02 Eh
   gradient norm :     0.0237623 Eh/α   predicted    -0.1305375E-02 ( -23.44%)
   displ. norm   :     0.1191598 α      lambda       -0.9368364E-03
   maximum displ.:     0.0730606 α      in ANC's #2, #1, #17, ...

........................................................................
.............................. CYCLE   10 ..............................
........................................................................

 iter      E             dE          RMSdq      gap      omega  full diag
   1    -42.6442513 -0.426443E+02  0.815E-02    1.59       0.0  T
   2    -42.6442576 -0.634056E-05  0.480E-02    1.57       1.0  T
   3    -42.6442149  0.426874E-04  0.390E-02    1.60       1.0  T
   4    -42.6442544 -0.394718E-04  0.194E-02    1.57       1.0  T
   5    -42.6442686 -0.142295E-04  0.213E-03    1.58       9.4  T
   6    -42.6442687 -0.578001E-07  0.107E-03    1.58      18.6  T
   7    -42.6442687 -0.103479E-07  0.541E-04    1.58      36.9  T
   8    -42.6442687 -0.359245E-08  0.125E-04    1.58     160.5  T
     SCC iter.                  ...        0 min,  0.007 sec
     gradient                   ...        0 min,  0.008 sec
 * total energy  :   -42.1190619 Eh     change       -0.5631551E-03 Eh
   gradient norm :     0.0104890 Eh/α   predicted    -0.4750729E-03 ( -15.64%)
   displ. norm   :     0.0900941 α      lambda       -0.2787914E-03
   maximum displ.:     0.0361702 α      in ANC's #4, #10, #3, ...

........................................................................
.............................. CYCLE   11 ..............................
........................................................................

 iter      E             dE          RMSdq      gap      omega  full diag
   1    -42.6429305 -0.426429E+02  0.647E-02    1.59       0.0  T
   2    -42.6429321 -0.157751E-05  0.385E-02    1.58       1.0  T
   3    -42.6429137  0.184178E-04  0.226E-02    1.60       1.0  T
   4    -42.6429293 -0.156385E-04  0.105E-02    1.58       1.9  T
   5    -42.6429339 -0.454903E-05  0.114E-03    1.58      17.5  T
   6    -42.6429339 -0.673932E-08  0.634E-04    1.58      31.5  T
   7    -42.6429339 -0.138176E-08  0.327E-04    1.58      61.2  T
     SCC iter.                  ...        0 min,  0.006 sec
     gradient                   ...        0 min,  0.008 sec
 * total energy  :   -42.1191984 Eh     change       -0.1365095E-03 Eh
   gradient norm :     0.0087448 Eh/α   predicted    -0.1405344E-03 (   2.95%)
   displ. norm   :     0.0464429 α      lambda       -0.1045011E-03
   maximum displ.:     0.0294362 α      in ANC's #1, #15, #3, ...

   *** GEOMETRY OPTIMIZATION CONVERGED AFTER 11 ITERATIONS ***

------------------------------------------------------------------------
 total energy gain   :        -4.4993265 Eh    -2823.3700 kcal/mol
 total RMSD          :         0.3422888 a0        0.1811 Å
 total power (kW/mol):     -1073.9072831 (step)********** (real)
------------------------------------------------------------------------

 ANCopt (total)                0 d,  0 h,  0 min,  0.222 sec
 optimizer setup                ...        0 min,  0.001 sec (  0.441%)
 model hessian                  ...        0 min,  0.009 sec (  4.094%)
 ANC generation                 ...        0 min,  0.001 sec (  0.247%)
 coordinate transformation      ...        0 min,  0.000 sec (  0.037%)
 single point calculation       ...        0 min,  0.207 sec ( 93.180%)
 optimization log               ...        0 min,  0.002 sec (  1.080%)
 hessian update                 ...        0 min,  0.000 sec (  0.050%)
 rational function              ...        0 min,  0.001 sec (  0.659%)

================
 final structure:
================
25
 xtb: 6.6.1 (8d0f1dd)
C            2.36334748219351        1.66399805906841        0.15092343630186
N            1.53298993317398        0.49121898083174        0.05250245509489
C            1.95481009389785       -0.61142695085502       -0.47903326673212
N            1.23215983944586       -1.74322816720084       -0.54910167159934
C           -0.00607262847875       -1.90935798746364        0.02314880891284
C           -0.65682967309748       -0.73709127465267        0.59776552691408
C            0.17633835519742        0.61061495263926        0.79805661423788
O            0.30371269558639        1.11344327379899        1.92266688532552
N           -0.76844781188483        1.22568331575594       -0.20784895829577
C           -1.05866488576791        2.60267335225596       -0.48320136190740
C           -1.52742226278917        0.13024864210059       -0.37822886155268
O           -2.47842698256006       -0.14370792280807       -1.03861604023293
N           -0.61176423358938       -3.03352248594653       -0.16555943092128
C           -1.42741383509817       -3.88089447108751        0.29441861308018
H            2.22864193661948        2.08556038034619        1.14873972144246
H            3.40959941755524        1.42076848294523       -0.01400824186634
H            2.03693682568043        2.40381778040818       -0.58158405343118
H            2.95538378226030       -0.65104288393439       -0.89468169961625
H           -0.38026725179015        2.99239235342678       -1.24585142162541
H           -2.08408714884512        2.68041039985123       -0.84106321085837
H           -0.94105290337939        3.17984902626674        0.43520802175286
H           -1.53759834051397       -4.08470133022783        1.35728027119398
H           -1.99926523213011       -4.47121609710835       -0.40465528524702
H           -1.20449363516818       -0.95689509339709        1.51961447033464
H            1.64831797758232       -2.55935579363255       -0.98571970272067

 Bond Distances (Angstroems)
 ---------------------------
C1-N2=1.4403         C1-H15=1.0916        C1-H16=1.0867        C1-H17=1.0911        N2-C1=1.4403         N2-C3=1.2947         
N2-C7=1.5526         C3-N2=1.2947         C3-N4=1.3447         C3-H18=1.0842        N4-C3=1.3447         N4-C5=1.3742         
N4-H25=1.0148        C5-N4=1.3742         C5-C6=1.4587         C5-N13=1.2908        C6-C5=1.4587         C6-C7=1.5971         
C6-C11=1.5693        C6-H24=1.0946        C7-N2=1.5526         C7-C6=1.5971         C7-O8=1.2385         C7-N9=1.5109         
O8-C7=1.2385         N9-C7=1.5109         N9-C10=1.4339        N9-C11=1.3435        C10-N9=1.4339        C10-H19=1.0926       
C10-H20=1.0889       C10-H21=1.0911       C11-C6=1.5693        C11-N9=1.3435        C11-O12=1.1898       O12-C11=1.1898       
N13-C5=1.2908        N13-C14=1.2629       C14-N13=1.2629       C14-H22=1.0878       C14-H23=1.0790       H15-C1=1.0916        
H16-C1=1.0867        H17-C1=1.0911        H18-C3=1.0842        H19-C10=1.0926       H20-C10=1.0889       H21-C10=1.0911       
H22-C14=1.0878       H23-C14=1.0790       H24-C6=1.0946        H25-N4=1.0148        
 C  H  Rav=1.0887 sigma=0.0043  Rmin=1.0790  Rmax=1.0946    10
 C  C  Rav=1.5417 sigma=0.0598  Rmin=1.4587  Rmax=1.5971     3
 N  H  Rav=1.0148 sigma=0.0000  Rmin=1.0148  Rmax=1.0148     1
 N  C  Rav=1.3849 sigma=0.0921  Rmin=1.2629  Rmax=1.5526    10
 O  C  Rav=1.2141 sigma=0.0243  Rmin=1.1898  Rmax=1.2385     2

 selected bond angles (degree)
 --------------------
H15-C1-N2=107.81               H16-C1-N2=111.25               H16-C1-H15=110.12              H17-C1-N2=109.50               
H17-C1-H15=108.36              H17-C1-H16=109.75              C3-N2-C1=122.25                C7-N2-C1=114.10                
C7-N2-C3=123.18                N4-C3-N2=124.27                H18-C3-N2=119.29               H18-C3-N4=116.44               
C5-N4-C3=124.36                H25-N4-C3=118.62               H25-N4-C5=116.84               C6-C5-N4=117.96                
N13-C5-N4=117.85               N13-C5-C6=123.24               C7-C6-C5=119.66                C11-C6-C5=116.53               
C11-C6-C7= 84.32               H24-C6-C5=113.18               H24-C6-C7=108.96               H24-C6-C11=110.93              
C6-C7-N2=109.31                O8-C7-N2=112.17                O8-C7-C6=120.67                N9-C7-N2=104.95                
N9-C7-C6= 86.20                N9-C7-O8=120.24                C10-N9-C7=130.19               C11-N9-C7= 96.07               
C11-N9-C10=130.11              H19-C10-N9=110.54              H20-C10-N9=108.80              H20-C10-H19=109.26             
H21-C10-N9=108.94              H21-C10-H19=109.39             H21-C10-H20=109.90             

 selected dihedral angles (degree)
 ---------------------------------
C3-N2-C1-H15=223.79           C3-N2-C1-H16=344.63           C3-N2-C1-H17=106.11           C7-N2-C1-H15= 36.20           
C7-N2-C1-H16=157.03           C7-N2-C1-H17=278.52           N4-C3-N2-C1=177.53            N4-C3-N2-C7=  5.81            
H18-C3-N2-C1=358.01           H18-C3-N2-C7=186.29           C5-N4-C3-N2=354.77            C5-N4-C3-H18=174.31           
H25-N4-C3-N2=179.98           H25-N4-C3-H18=359.51          C6-C5-N4-C3=  8.17            C6-C5-N4-H25=183.05           
N13-C5-N4-C3=177.41           N13-C5-N4-H25=352.29          C7-C6-C5-N4=348.41            C7-C6-C5-N13=179.79           
C11-C6-C5-N4= 87.44           C11-C6-C5-N13=278.82          H24-C6-C5-N4=217.83           H24-C6-C5-N13= 49.21          
C6-C7-N2-C1=179.20            C6-C7-N2-C3=351.53            O8-C7-N2-C1=315.80            O8-C7-N2-C3=128.13            
N9-C7-N2-C1= 88.00            N9-C7-N2-C3=260.32            N2-C7-C6-C5= 11.22            N2-C7-C6-C11=253.84           
N2-C7-C6-H24=143.64           O8-C7-C6-C5=238.94            O8-C7-C6-C11=121.56           O8-C7-C6-H24= 11.35           
N9-C7-C6-C5=115.74            N9-C7-C6-C11=358.36           N9-C7-C6-H24=248.16           C10-N9-C7-N2=270.62           
C10-N9-C7-C6=161.63           C10-N9-C7-O8= 38.05           C11-N9-C7-N2=110.90           C11-N9-C7-C6=  1.91           
C11-N9-C7-O8=238.33           H19-C10-N9-C7= 89.62          H19-C10-N9-C11=242.83         H20-C10-N9-C7=209.60          
H20-C10-N9-C11=  2.81         H21-C10-N9-C7=329.40          H21-C10-N9-C11=122.61         
           -------------------------------------------------
          |                Final Singlepoint                |
           -------------------------------------------------

          ...................................................
          :                      SETUP                      :
          :.................................................:
          :  # basis functions                  67          :
          :  # atomic orbitals                  67          :
          :  # shells                           39          :
          :  # electrons                        74          :
          :  max. iterations                   250          :
          :  Hamiltonian                  GFN2-xTB          :
          :  restarted?                      false          :
          :  GBSA solvation                  false          :
          :  PC potential                    false          :
          :  electronic temp.         5000.0000000     K    :
          :  accuracy                    1.0000000          :
          :  -> integral cutoff          0.2500000E+02      :
          :  -> integral neglect         0.1000000E-07      :
          :  -> SCF convergence          0.1000000E-05 Eh   :
          :  -> wf. convergence          0.1000000E-03 e    :
          :  Broyden damping             0.4000000          :
          ...................................................

 iter      E             dE          RMSdq      gap      omega  full diag
   1    -42.6429339 -0.426429E+02  0.665E-05    1.58       0.0  T
   2    -42.6429339 -0.311289E-10  0.373E-05    1.58     535.5  T
   3    -42.6429339 -0.179554E-10  0.214E-05    1.58     936.3  T

   *** convergence criteria satisfied after 3 iterations ***

         #    Occupation            Energy/Eh            Energy/eV
      -------------------------------------------------------------
         1        2.0000           -0.8932912             -24.3077
       ...           ...                  ...                  ...
        31        1.9986           -0.6201261             -16.8745
        32        1.9973           -0.6092077             -16.5774
        33        1.9892           -0.5873217             -15.9818
        34        1.9537           -0.5640008             -15.3472
        35        1.9258           -0.5562802             -15.1372
        36        1.9004           -0.5514230             -15.0050
        37        1.8095           -0.5403731             -14.7043 (HOMO)
        38        0.3877           -0.4821641             -13.1204 (LUMO)
        39        0.0379           -0.4422206             -12.0334
        40        0.0016           -0.3917390             -10.6598
        41        0.0003           -0.3644136              -9.9162
        42                         -0.2266933              -6.1686
       ...                                ...                  ...
        67                          0.6232473              16.9594
      -------------------------------------------------------------
                  HL-Gap            0.0582090 Eh            1.5839 eV
             Fermi-level           -0.5047288 Eh          -13.7344 eV

 SCC (total)                   0 d,  0 h,  0 min,  0.015 sec
 SCC setup                      ...        0 min,  0.000 sec (  1.082%)
 Dispersion                     ...        0 min,  0.000 sec (  0.830%)
 classical contributions        ...        0 min,  0.000 sec (  0.351%)
 integral evaluation            ...        0 min,  0.003 sec ( 21.641%)
 iterations                     ...        0 min,  0.003 sec ( 20.336%)
 molecular gradient             ...        0 min,  0.008 sec ( 55.147%)
 printout                       ...        0 min,  0.000 sec (  0.568%)

         :::::::::::::::::::::::::::::::::::::::::::::::::::::
         ::                     SUMMARY                     ::
         :::::::::::::::::::::::::::::::::::::::::::::::::::::
         :: total energy             -42.119198421563 Eh    ::
         :: gradient norm              0.008750936746 Eh/a0 ::
         :: HOMO-LUMO gap              1.583947351651 eV    ::
         ::.................................................::
         :: SCC energy               -42.642933871412 Eh    ::
         :: -> isotropic ES            0.154352621891 Eh    ::
         :: -> anisotropic ES         -0.009054899007 Eh    ::
         :: -> anisotropic XC          0.018450706400 Eh    ::
         :: -> dispersion             -0.022711233418 Eh    ::
         :: repulsion energy           0.523555891950 Eh    ::
         :: add. restraining           0.000000000000 Eh    ::
         :: total charge               1.000000000107 e     ::
         :::::::::::::::::::::::::::::::::::::::::::::::::::::

           -------------------------------------------------
          |                Property Printout                |
           -------------------------------------------------

    * Orbital Energies and Occupations

         #    Occupation            Energy/Eh            Energy/eV
      -------------------------------------------------------------
         1        2.0000           -0.8932912             -24.3077
       ...           ...                  ...                  ...
        25        2.0000           -0.6742415             -18.3470
        26        1.9999           -0.6565527             -17.8657
        27        1.9998           -0.6492849             -17.6679
        28        1.9997           -0.6442972             -17.5322
        29        1.9995           -0.6368430             -17.3294
        30        1.9993           -0.6299753             -17.1425
        31        1.9986           -0.6201261             -16.8745
        32        1.9973           -0.6092077             -16.5774
        33        1.9892           -0.5873217             -15.9818
        34        1.9537           -0.5640008             -15.3472
        35        1.9258           -0.5562802             -15.1372
        36        1.9004           -0.5514230             -15.0050
        37        1.8095           -0.5403731             -14.7043 (HOMO)
        38        0.3877           -0.4821641             -13.1204 (LUMO)
        39        0.0379           -0.4422206             -12.0334
        40        0.0016           -0.3917390             -10.6598
        41        0.0003           -0.3644136              -9.9162
        42                         -0.2266933              -6.1686
        43                         -0.1907382              -5.1903
        44                         -0.1842660              -5.0141
        45                         -0.1706268              -4.6430
        46                         -0.1223179              -3.3284
        47                         -0.1010500              -2.7497
        48                         -0.0687092              -1.8697
       ...                                ...                  ...
        67                          0.6232473              16.9594
      -------------------------------------------------------------
                  HL-Gap            0.0582090 Eh            1.5839 eV
             Fermi-level           -0.5047288 Eh          -13.7344 eV

     #   Z          covCN         q      C6AA      α(0)
     1   6 C        3.702    -0.077    22.138     6.728
     2   7 N        2.723    -0.018    21.593     6.902
     3   6 C        2.782     0.100    25.772     8.315
     4   7 N        2.705    -0.067    22.546     7.052
     5   6 C        2.825     0.152    24.694     8.143
     6   6 C        3.998    -0.089    22.115     6.681
     7   6 C        3.874     0.296    16.123     5.709
     8   8 O        0.856    -0.439    22.471     6.355
     9   7 N        2.874    -0.122    23.654     7.223
    10   6 C        3.684    -0.052    21.715     6.672
    11   6 C        2.988     0.291    22.083     7.708
    12   8 O        0.856    -0.312    20.008     5.997
    13   7 N        1.839    -0.051    22.961     7.101
    14   6 C        2.770     0.027    27.370     8.568
    15   1 H        0.924     0.135     1.501     1.916
    16   1 H        0.925     0.092     1.858     2.131
    17   1 H        0.924     0.105     1.737     2.061
    18   1 H        0.925     0.119     1.620     1.990
    19   1 H        0.924     0.083     1.949     2.183
    20   1 H        0.925     0.103     1.762     2.076
    21   1 H        0.924     0.104     1.753     2.070
    22   1 H        0.925     0.123     1.589     1.971
    23   1 H        0.926     0.144     1.436     1.874
    24   1 H        0.924     0.118     1.629     1.996
    25   1 H        0.860     0.237     0.935     1.515

 Mol. C6AA /au·bohr⁶  :       6412.750279
 Mol. C8AA /au·bohr⁸  :     146841.767836
 Mol. α(0) /au        :        120.938308


Wiberg/Mayer (AO) data.
largest (>0.10) Wiberg bond orders for each atom

 ---------------------------------------------------------------------------
     #   Z sym  total        # sym  WBO       # sym  WBO       # sym  WBO
 ---------------------------------------------------------------------------
     1   6 C    3.916 --     2 N    0.992    16 H    0.971    15 H    0.950
                            17 H    0.950
     2   7 N    3.565 --     3 C    1.539     1 C    0.992     7 C    0.767
                             4 N    0.104
     3   6 C    3.872 --     2 N    1.539     4 N    1.261    18 H    0.937
     4   7 N    3.575 --     3 C    1.261     5 C    1.144    25 H    0.913
                             2 N    0.104
     5   6 C    3.830 --    13 N    1.458     4 N    1.144     6 C    1.048
     6   6 C    3.884 --     5 C    1.048    24 H    0.932     7 C    0.830
                            11 C    0.821
     7   6 C    3.939 --     8 O    1.421     6 C    0.830     9 N    0.829
                             2 N    0.767
     8   8 O    1.696 --     7 C    1.421
     9   7 N    3.393 --    11 C    1.244    10 C    0.994     7 C    0.829
                            12 O    0.186
    10   6 C    3.914 --     9 N    0.994    20 H    0.962    21 H    0.955
                            19 H    0.954
    11   6 C    3.937 --    12 O    1.766     9 N    1.244     6 C    0.821
    12   8 O    2.109 --    11 C    1.766     9 N    0.186
    13   7 N    3.384 --    14 C    1.739     5 C    1.458
    14   6 C    3.704 --    13 N    1.739    23 H    0.936    22 H    0.926
    15   1 H    0.976 --     1 C    0.950
    16   1 H    0.989 --     1 C    0.971
    17   1 H    0.981 --     1 C    0.950
    18   1 H    0.982 --     3 C    0.937
    19   1 H    0.973 --    10 C    0.954
    20   1 H    0.980 --    10 C    0.962
    21   1 H    0.974 --    10 C    0.955
    22   1 H    0.966 --    14 C    0.926
    23   1 H    0.969 --    14 C    0.936
    24   1 H    0.982 --     6 C    0.932
    25   1 H    0.943 --     4 N    0.913
 ---------------------------------------------------------------------------

Topologies differ in total number of bonds
Writing topology from bond orders to xtbtopo.mol

molecular dipole:
                 x           y           z       tot (Debye)
 q only:        1.818      -2.251      -0.951
   full:        1.950      -2.517      -0.970       8.461
molecular quadrupole (traceless):
                xx          xy          yy          xz          yz          zz
 q only:       -2.572       6.804      28.410      -8.684      -5.300     -25.838
  q+dip:       -1.978       5.254      28.097     -11.918      -7.140     -26.119
   full:       -1.977       4.532      28.174     -11.627      -7.558     -26.197

           -------------------------------------------------
          |                Geometry Summary                 |
           -------------------------------------------------

      molecular mass/u    :      195.1988581
   center of mass at/Å    :       -0.0687281      -0.2606835       0.0396489
  moments of inertia/u·Å² :        0.4784723E+03   0.7780093E+03   0.1044161E+04
rotational constants/cm⁻¹ :        0.3523220E-01   0.2166765E-01   0.1614467E-01

 * 22 selected distances

     #   Z          #   Z                                           value/Å
     1   6 C        2   7 N                                       1.4403442
     2   7 N        3   6 C                                       1.2947165
     3   6 C        4   7 N                                       1.3446588
     4   7 N        5   6 C                                       1.3741505
     5   6 C        6   6 C                                       1.4587250 (max)
     7   6 C        8   8 O                                       1.2384705
     9   7 N       10   6 C                                       1.4339271
     9   7 N       11   6 C                                       1.3435211
    11   6 C       12   8 O                                       1.1897788
     5   6 C       13   7 N                                       1.2908212
    13   7 N       14   6 C                                       1.2628949
     1   6 C       15   1 H                                       1.0915576
     1   6 C       16   1 H                                       1.0867412
     1   6 C       17   1 H                                       1.0910750
     3   6 C       18   1 H                                       1.0841960
    10   6 C       19   1 H                                       1.0925839
    10   6 C       20   1 H                                       1.0888522
    10   6 C       21   1 H                                       1.0910730
    14   6 C       22   1 H                                       1.0878203
    14   6 C       23   1 H                                       1.0789802
     6   6 C       24   1 H                                       1.0945571
     4   7 N       25   1 H                                       1.0148337 (min)

 * 5 distinct bonds (by element types)

   Z      Z             #   av. dist./Å        max./Å        min./Å
   1 H    6 C          10     1.0887436     1.0945571     1.0789802
   6 C    6 C           1     1.4587250     1.4587250     1.4587250
   1 H    7 N           1     1.0148337     1.0148337     1.0148337
   6 C    7 N           8     1.3481293     1.4403442     1.2628949
   6 C    8 O           2     1.2141246     1.2384705     1.1897788


optimized geometry written to: xtbopt.xyz


           -------------------------------------------------
          | TOTAL ENERGY              -42.119198421563 Eh   |
          | GRADIENT NORM               0.008750936746 Eh/α |
          | HOMO-LUMO GAP               1.583947351651 eV   |
           -------------------------------------------------

------------------------------------------------------------------------
 * finished run on 2024/06/05 at 19:58:06.591     
------------------------------------------------------------------------
 total:
 * wall-time:     0 d,  0 h,  0 min,  0.308 sec
 *  cpu-time:     0 d,  0 h,  0 min,  0.269 sec
 * ratio c/w:     0.872 speedup
 SCF:
 * wall-time:     0 d,  0 h,  0 min,  0.020 sec
 *  cpu-time:     0 d,  0 h,  0 min,  0.020 sec
 * ratio c/w:     0.999 speedup
 ANC optimizer:
 * wall-time:     0 d,  0 h,  0 min,  0.245 sec
 *  cpu-time:     0 d,  0 h,  0 min,  0.236 sec
 * ratio c/w:     0.965 speedup

