25
 energy: 0.000000000000 xtb: 6.6.1 (8d0f1dd)
C            3.23720163006194        1.16630919979326        0.08434469647475
N            2.29877817382611        0.07527477071623        0.03981603040599
C            2.58028210190900       -1.21425402444508        0.03006176031096
N            1.43813958087363       -1.93419271955128        0.00098261760884
C            0.39035688448383       -1.05887472636071       -0.00790371836672
C            0.93510056364412        0.21347819449412        0.01709077491437
C            0.09450143893243        1.40504303904423       -0.00410947031874
O            0.49712751527797        2.54126714362870       -0.00342325688240
N           -1.25076640035757        1.06271879480407       -0.03085478223738
C           -2.21907211982101        2.15522099834493       -0.05001256985998
C           -1.81739487048744       -0.20012725993278       -0.04692818574614
O           -2.99983886758376       -0.37846417018721       -0.07008878229737
N           -0.92618586207120       -1.30210215599479       -0.03682761578324
C           -1.46982264913417       -2.64643102187190       -0.06029820460571
H            3.71247264356769        1.21471455160235        1.06488849150277
H            4.00791497605742        1.03430808813993       -0.67357694370751
H            2.69910007168542        2.09770118228144       -0.09130154882931
H            3.56654120610678       -1.63682992603973        0.04233140067262
H           -1.67107961066214        3.09322851271934       -0.02552706933167
H           -2.82428953597071        2.09428624779827       -0.95318082946668
H           -2.87644029173232        2.07745725625962        0.81450067533302
H           -1.17061996399332       -3.19584890659852        0.83242232437030
H           -1.14560257411436       -3.17511610292205       -0.95688275822323
H           -2.55549792440841       -2.55659984320617       -0.07459039797972
H            1.38130855184625       -2.94313852034425       -0.01389874181052
25
 energy: -5.394850103120 xtb: 6.6.1 (8d0f1dd)
C            3.24324299974594        1.17752114406489        0.08681126155147
N            2.30770325932263        0.09534457999181        0.03778948100573
C            2.59945186359678       -1.23272936929454        0.02995836556550
N            1.42744737814603       -1.94052678131756        0.00074837940124
C            0.39618944974978       -1.05654046098979       -0.00818170049463
C            0.92987649146663        0.22219606035214        0.01540805467919
C            0.10135485297357        1.39564012754513       -0.00506523317750
O            0.49799341658113        2.56146723547080       -0.00438347032656
N           -1.26064240119812        1.05064066839603       -0.03113433395912
C           -2.22014740619979        2.14785687989562       -0.05018526727097
C           -1.82386664991169       -0.20063856713125       -0.04721371333905
O           -3.02058609111416       -0.38208619681918       -0.07045791953019
N           -0.93441469551204       -1.30127114224359       -0.03692951242892
C           -1.47120926718389       -2.64376967267266       -0.06013494022667
H            3.72167547183685        1.22336471108525        1.06876891770982
H            4.01109816989138        1.04308455610441       -0.67644650755922
H            2.69610748473126        2.10200763514549       -0.08840686716937
H            3.57775234901488       -1.65885165452975        0.04246215616248
H           -1.65772053181879        3.07842681831737       -0.02563916715711
H           -2.82628055867334        2.09585193985746       -0.95417476621924
H           -2.87751582727347        2.07946319709670        0.81573362470689
H           -1.16726122550272       -3.19494164195194        0.83187204491707
H           -1.14221218471489       -3.17432393016448       -0.95585831713654
H           -2.55654605010225       -2.55389373503543       -0.07452085348063
H            1.36072437008448       -2.94426379900089       -0.01378582007637
25
 energy: -6.569424248048 xtb: 6.6.1 (8d0f1dd)
C            3.24869560330213        1.18424845631003        0.08932185525889
N            2.31348289459425        0.10637016569904        0.03432747964958
C            2.60865992385142       -1.24619924002650        0.02994164731159
N            1.41510188728714       -1.93960728789392        0.00092393666790
C            0.39900369849646       -1.05290265260939       -0.00870142645948
C            0.92566881202016        0.22940428661066        0.01300178786464
C            0.10674690011834        1.38339630622395       -0.00690167741186
O            0.48605668339354        2.56405179510315       -0.00668424054005
N           -1.27131578597285        1.03985530487755       -0.03187652045647
C           -2.21967428116313        2.14277886021196       -0.05037990789982
C           -1.82691901358117       -0.20206331316299       -0.04760053721664
O           -3.02773434665289       -0.38866049771252       -0.07063943196449
N           -0.94069392614016       -1.29856514740745       -0.03696497532732
C           -1.47030825078671       -2.64063299923269       -0.05976916077239
H            3.73452559943788        1.23303152649233        1.06961581222577
H            4.01551029995617        1.05897057896911       -0.67848000218050
H            2.69574000626101        2.10642290008445       -0.08066194535331
H            3.58035785063779       -1.67834191929750        0.04265595943821
H           -1.63814014331067        3.06243505914959       -0.02628101376988
H           -2.82762358994944        2.10004250464278       -0.95421603713074
H           -2.87721190822903        2.08459216456965        0.81664184179098
H           -1.16324523970526       -3.19328310519152        0.83155198607972
H           -1.13804726725009       -3.17298634565845       -0.95453657067566
H           -2.55574493516010       -2.55206966462799       -0.07434173228098
H            1.33932319648141       -2.94125913395131       -0.01291323070038
25
 energy: -6.666150287680 xtb: 6.6.1 (8d0f1dd)
C            3.25043001869366        1.18602497237393        0.09081098223620
N            2.31575441369746        0.10700153466392        0.03141710721306
C            2.60851683970388       -1.25201209498352        0.02977973609971
N            1.40964424625895       -1.93802733925418        0.00140285672831
C            0.39891457773463       -1.05160285336481       -0.00917881447321
C            0.92510300062181        0.23177922843780        0.01112706883402
C            0.10793633223676        1.38004287387487       -0.00891302467623
O            0.47429074562898        2.56374478327451       -0.00940077268220
N           -1.27732464453136        1.03629926512554       -0.03290219904304
C           -2.21854041425503        2.14279317073853       -0.05068460314849
C           -1.82873601888442       -0.20425622456081       -0.04800101680118
O           -3.02898453232507       -0.39550580561885       -0.07074076314717
N           -0.94214457223395       -1.29747260206254       -0.03690629349436
C           -1.46772018690215       -2.64021862677776       -0.05924856294831
H            3.74242805677707        1.23487440519336        1.06859660751855
H            4.01621268117261        1.07246485515482       -0.68045547327609
H            2.69527610906908        2.10908877066354       -0.07111340990879
H            3.57753555995241       -1.68940463173969        0.04251070198851
H           -1.62486216871975        3.05481409318275       -0.02756522342653
H           -2.82788629088888        2.10528399335169       -0.95377793465369
H           -2.87533872508482        2.09096944249809        0.81730071063347
H           -1.15957819413845       -3.19217073627650        0.83224672230978
H           -1.13415011965027       -3.17241910994721       -0.95374681665913
H           -2.55343074416545       -2.55334707221100       -0.07401611195007
H            1.32886869816855       -2.93971568956445       -0.01150757712585
25
 energy: -6.655699825175 xtb: 6.6.1 (8d0f1dd)
C            3.25075288451539        1.18717407364857        0.09342591791213
N            2.31836376167979        0.10484855797947        0.02647548744505
C            2.60569014475235       -1.25798847702171        0.02906617801649
N            1.40418897534760       -1.93614280691886        0.00232099532643
C            0.39752064050102       -1.05015563118798       -0.01011694847995
C            0.92553475879723        0.23383550504136        0.00777370620700
C            0.10874771415641        1.37857343344980       -0.01301062675897
O            0.45867599670636        2.56404818565709       -0.01484569326040
N           -1.28426234005782        1.03308714343339       -0.03516187148295
C           -2.21603340931276        2.14511325946038       -0.05151527617065
C           -1.83203884662509       -0.20765284208490       -0.04884287084066
O           -3.03079833588086       -0.40516803690782       -0.07083746552562
N           -0.94302857207907       -1.29660455296259       -0.03676761249739
C           -1.46241088402464       -2.64140955574454       -0.05801596052657
H            3.75288171544534        1.22990237999058        1.06677058473004
H            4.01250286788318        1.09391015873153       -0.68544687627533
H            2.69121047009096        2.11161032851223       -0.05121159463237
H            3.57137564827022       -1.70323559077050        0.04173896379215
H           -1.60732794860671        3.04737339154145       -0.03086179657677
H           -2.82813547992938        2.11507152343340       -0.95288032251534
H           -2.87070906063227        2.10318415956141        0.81856515292434
H           -1.15233240188280       -3.19094154155423        0.83420751558836
H           -1.12642977667211       -3.17258103146996       -0.95213940847816
H           -2.54859301494047       -2.55877732977066       -0.07317383466169
H            1.31686916043432       -2.93804610187485       -0.00848244711185
25
 energy: -6.499406944438 xtb: 6.6.1 (8d0f1dd)
C            3.24840781014345        1.18787733129588        0.09849058290835
N            2.32080822309319        0.10060735096927        0.01846327888297
C            2.60051515585034       -1.26383817855108        0.02689560958205
N            1.39825015166801       -1.93440821639684        0.00352800843850
C            0.39437261302860       -1.04817765167972       -0.01195735282825
C            0.92622712541721        0.23564844302852        0.00183346455502
C            0.10972378355177        1.37830631961703       -0.02069640644388
O            0.44258424116330        2.56516631927125       -0.02498651338032
N           -1.29152126766541        1.02989190354418       -0.03961274948099
C           -2.21146673550335        2.15022551429521       -0.05346810620467
C           -1.83740371471721       -0.21145593188564       -0.05041086610202
O           -3.03430508313660       -0.41585101835220       -0.07078599521842
N           -0.94425032309767       -1.29600038869566       -0.03656103393458
C           -1.45359537988035       -2.64488666851461       -0.05539691470522
H            3.76782021545252        1.21195098352208        1.06406644649798
H            3.99963265786195        1.12719333548121       -0.69577256907895
H            2.67992461111548        2.11335193456002       -0.01287981751362
H            3.56191947112881       -1.71934210572827        0.03955664406646
H           -1.58570310791379        3.04123186427784       -0.03813397723766
H           -2.82877284330416        2.13004422274200       -0.95139876121603
H           -2.86133490447747        2.12303441420213        0.82087335032241
H           -1.13928142447919       -3.18958126538866        0.83823280580265
H           -1.11256586114227       -3.17435942957876       -0.94853512391567
H           -2.54045555399927       -2.57130482712980       -0.07124400039275
H            1.30268480777827       -2.93629565273334       -0.00306610725608
25
 energy: -5.033297184239 xtb: 6.6.1 (8d0f1dd)
C            3.23732109277943        1.18919972265317        0.11706793307887
N            2.32559577771440        0.08787804396994       -0.00756509678767
C            2.58461773108591       -1.27847621966169        0.01779372694654
N            1.38143573871491       -1.93080446120838        0.00628219827266
C            0.38366732936551       -1.04250112638022       -0.01873660361844
C            0.92712629815007        0.23962146875193       -0.01856175654866
C            0.11290795200002        1.37822900920158       -0.04735641303846
O            0.40589987551726        2.56824270133705       -0.06019442067672
N           -1.30980400115509        1.02232403246431       -0.05538973666115
C           -2.19668188053985        2.16748677899263       -0.06099876373865
C           -1.85383610042902       -0.22015186372682       -0.05576048482760
O           -3.04589017141125       -0.44172456003289       -0.07006449478444
N           -0.94901931711591       -1.29469218644078       -0.03605882060910
C           -1.42595098572132       -2.65703121155623       -0.04568411337089
H            3.81630274139471        1.14059422558734        1.05483406085383
H            3.94741249378041        1.23459308744805       -0.73129407370474
H            2.63842830401079        2.11606320671459        0.12261512943257
H            3.53398815118621       -1.76223147949242        0.03078118302552
H           -1.52604547227736        3.02859186591521       -0.06556743679689
H           -2.83217282986864        2.17383852935182       -0.94651689386397
H           -2.82819563329624        2.18471553836815        0.82869293540939
H           -1.09616218170109       -3.18511956271719        0.85270983967991
H           -1.06688198818258       -3.18193248045046       -0.93467911955727
H           -2.51476958437508       -2.61560914580209       -0.06374567920922
H            1.26292132830985       -2.93207531111453        0.01443079724187
25
 energy: -2.330309929128 xtb: 6.6.1 (8d0f1dd)
C            3.22301846224893        1.18898520337212        0.13856696983984
N            2.32717029852454        0.07622014651408       -0.03380301399214
C            2.56921768661942       -1.28879304954604        0.00712368367395
N            1.36681995060419       -1.92870163875994        0.00730208166126
C            0.37253070961159       -1.03752329453858       -0.02726005069176
C            0.92680898986114        0.24178175979155       -0.04141802573102
C            0.11632868605612        1.37942978472946       -0.07652063625566
O            0.38462371630526        2.57013545889063       -0.09851667323500
N           -1.32374267444223        1.01847401195809       -0.07244418914343
C           -2.18314152898655        2.18525004860765       -0.06876587185191
C           -1.86919468985250       -0.22512326620284       -0.06129815916001
O           -3.05718679693035       -0.45980292263217       -0.06810804275831
N           -0.95448772777297       -1.29363340620977       -0.03626918209695
C           -1.39910806954315       -2.66935348195260       -0.03499180954814
H            3.86217931708141        1.06220614375482        1.04258483894398
H            3.88587209753166        1.33780016596101       -0.75875455899626
H            2.59929930341990        2.11182444934642        0.26271844626958
H            3.50828786552985       -1.79572400993672        0.01991398282788
H           -1.47972820786743        3.02267512123307       -0.09655760385642
H           -2.83861865403696        2.21221678973715       -0.93963838422474
H           -2.79163041025060        2.24239554689709        0.83800279113956
H           -1.05230047945442       -3.17961698748983        0.86833095848793
H           -1.02082597400378       -3.19040609388858       -0.91898232365335
H           -2.48927298875790       -2.66293364929306       -0.05487289436231
H            1.22929578644080       -2.92875422817090        0.03069156286069
25
 energy: -1.816793191847 xtb: 6.6.1 (8d0f1dd)
C            3.20774004546688        1.18532911728659        0.15690211477697
N            2.32217033615391        0.07029163088006       -0.05085532536659
C            2.55971105932303       -1.28554055587153       -0.00070948075107
N            1.36305390111387       -1.93006822396439        0.00504114717916
C            0.36430643641869       -1.03548633467653       -0.03626331321384
C            0.92488029763023        0.23958587868778       -0.06114623188686
C            0.11855026464641        1.38393651244003       -0.09946649808184
O            0.40062475396651        2.57002819622414       -0.12798364417908
N           -1.32354138975115        1.02331642673250       -0.08500296118584
C           -2.17702575777143        2.19758843809084       -0.07266985902372
C           -1.87718988524202       -0.22137793363038       -0.06501161644470
O           -3.06391546556518       -0.45631561942575       -0.06423399934418
N           -0.95873699517262       -1.29371033439028       -0.03813916942076
C           -1.38342344884027       -2.67791778869270       -0.02726565469702
H            3.87908873470445        1.00448785608506        1.03026549084954
H            3.83330602239311        1.38734495937014       -0.75539470997969
H            2.58097218248528        2.09366832221275        0.34877137423387
H            3.49572784942250       -1.79773345639021        0.00962115200312
H           -1.47738087931133        3.03291675960092       -0.12089139022745
H           -2.84859315911745        2.22700044352665       -0.93001355806133
H           -2.76207395668341        2.27063018696321        0.84792861385113
H           -1.02314143277752       -3.17470493150784        0.87930914385906
H           -0.99108712290621       -3.19716344750567       -0.90686844746537
H           -2.47305855116047       -2.69894523417520       -0.04733764442618
H            1.22125082851008       -2.92813226569806        0.03844836314994
25
 energy: -2.736239357266 xtb: 6.6.1 (8d0f1dd)
C            3.17831078408517        1.17397679691676        0.19357200076889
N            2.30090457221827        0.07511619108018       -0.07757750536916
C            2.55409667468443       -1.26058418123484       -0.01070998495056
N            1.36635753018731       -1.93922783961028       -0.00600830378985
C            0.35364455476211       -1.03609858244311       -0.05907090952194
C            0.91335378589794        0.22975715952085       -0.10278951185170
C            0.11357263193390        1.39012679985162       -0.14028948458844
O            0.48143494718518        2.56874566391033       -0.18159653843839
N           -1.30347495785847        1.04001203225731       -0.10552098408609
C           -2.17257780384943        2.21175833822413       -0.07457436355630
C           -1.88223727912749       -0.20085118454260       -0.07027949127655
O           -3.07315304890533       -0.41324926948598       -0.05191957617209
N           -0.97000286325537       -1.29669704441202       -0.04640173551427
C           -1.37031183756687       -2.68812224937876       -0.01497599272923
H            3.87159724831561        0.91932938971961        0.99802627042600
H            3.73665168990203        1.42495045997573       -0.69466774997632
H            2.57614216301884        2.02589256864872        0.46231163536554
H            3.49548044623413       -1.75472598989338       -0.01316874498814
H           -1.51599117310340        3.07047068108089       -0.17048194664156
H           -2.88048132948718        2.21763083235297       -0.90050178503046
H           -2.70403795931920        2.28729773002956        0.87326973250501
H           -0.98652499429581       -3.16196898054774        0.89602843216237
H           -0.95538859684252       -3.20806682637120       -0.88518561028342
H           -2.45373953758082       -2.75494652446530       -0.03228781162648
H            1.23858902070279       -2.93149736901128        0.04183385531038
25
 energy: 1.335068272018 xtb: 6.6.1 (8d0f1dd)
C            3.14951841413591        1.16491076910314        0.24290117049808
N            2.28926361274761        0.06986733044929       -0.12643842515569
C            2.53972019025607       -1.26014057534646       -0.02731736672538
N            1.35151313929348       -1.94393403311143       -0.01441167811730
C            0.33899075232241       -1.03346320504979       -0.08613837146556
C            0.90383427224745        0.22540107072312       -0.15736206038565
C            0.11288341732070        1.39047707034596       -0.20099864771941
O            0.51047912853446        2.56540061492012       -0.26011001640392
N           -1.30457611323461        1.04727866004492       -0.13938486748405
C           -2.15752874776795        2.23539829481429       -0.08621354394881
C           -1.89638537754745       -0.18988143823205       -0.08042719737669
O           -3.08715781529713       -0.39808027122317       -0.04088568372140
N           -0.98383993956625       -1.29608576132807       -0.05429507154031
C           -1.33916088713511       -2.70217516239890        0.00635111637261
H            3.92686840773872        0.77325641412669        0.95856556085432
H            3.60981935251796        1.58166941209904       -0.68946804460737
H            2.53104599669052        1.97504947354066        0.71491446321423
H            3.47620860292232       -1.76169107384735       -0.04114030005827
H           -1.49476401104930        3.08609665292816       -0.24675627789893
H           -2.91726259820800        2.23575761637595       -0.87011788073027
H           -2.62451158184546        2.35169198934229        0.89989116644423
H           -0.92595305621419       -3.14179322672364        0.92641636133237
H           -0.89342569410147       -3.22314477699591       -0.85099695481968
H           -2.41886167735317       -2.83051331601606       -0.01019543587621
H            1.21549688052814       -2.93232392636855        0.06065188146631
25
 energy: 3.486554589933 xtb: 6.6.1 (8d0f1dd)
C            3.13770761290872        1.15576875784355        0.28052672838731
N            2.28161382213559        0.07493610951861       -0.16007279637106
C            2.53972694038286       -1.26646108849747       -0.03122396015400
N            1.34208997884499       -1.94809270710526       -0.02982235861277
C            0.33760702054080       -1.03664040003244       -0.11338025887388
C            0.89451709555343        0.22193359336708       -0.20192469066634
C            0.10371573219211        1.38263512507693       -0.24862754656702
O            0.51621261840403        2.55417865253200       -0.31180532204818
N           -1.30168080362755        1.05215577932427       -0.16423549321703
C           -2.14760055844749        2.24434357345893       -0.09067848263571
C           -1.89389910995288       -0.17959520875377       -0.08788325330114
O           -3.08758597777071       -0.37475374203669       -0.02858146948788
N           -0.99154588397641       -1.29478148622083       -0.06752364998231
C           -1.32928361977432       -2.70235613056431        0.02145397323799
H            3.94396248916165        0.71026438704186        0.92980105248558
H            3.54865182373390        1.68928330406197       -0.65255048041922
H            2.51519893917770        1.92158971137404        0.87161381061960
H            3.47983391774315       -1.76206961756468       -0.06644608532567
H           -1.48114079791856        3.09134529607757       -0.30913068535386
H           -2.95649136355687        2.22018786416511       -0.83121595553161
H           -2.56269271985415        2.38101975349592        0.92171451323338
H           -0.90602835410524       -3.11965721342114        0.94802024673220
H           -0.87568446809109       -3.23196257670266       -0.82610254920736
H           -2.40356739879225       -2.85697933108267        0.00976464187990
H            1.20857773302415       -2.93726380318361        0.06534396732631
25
 energy: 1.384985015190 xtb: 6.6.1 (8d0f1dd)
C            3.13963604584454        1.14754276895189        0.31570670732683
N            2.27602517564364        0.09735038448015       -0.17978021163946
C            2.55472568679244       -1.28252428163714       -0.01840154045129
N            1.33266669314538       -1.94803088426515       -0.05679578559555
C            0.35175348021061       -1.04660393617418       -0.14719825462276
C            0.88176598234203        0.22117689191982       -0.24135447412299
C            0.08047908681270        1.36318545817796       -0.29084835364933
O            0.48132294585174        2.53241936013442       -0.35131400455766
N           -1.29721225143754        1.05567948244661       -0.18422694757716
C           -2.14124078352971        2.23947395888795       -0.08914794506334
C           -1.87024178535028       -0.17016971761852       -0.09250157811905
O           -3.07046442993561       -0.34106367545951       -0.01072109052569
N           -0.99415133677363       -1.29010488775811       -0.09276010122545
C           -1.33880164918495       -2.68567969171685        0.03303142091589
H            3.93391737787944        0.72028291268326        0.90763642965339
H            3.54707580158307        1.74568304398052       -0.56436016489043
H            2.53083606815932        1.86043593047459        0.94885849068878
H            3.50886092793133       -1.75463918192716       -0.10519981740999
H           -1.47214056937245        3.08172454878617       -0.36236605735361
H           -3.00135896012608        2.16942768651192       -0.77386208266400
H           -2.50968054418157        2.37767930576827        0.93598577048860
H           -0.92249932114172       -3.08707393436291        0.96515255966975
H           -0.89875321338986       -3.23625894340680       -0.80478990053882
H           -2.40724280734203       -2.83670564156718        0.03204893530602
H            1.21693704750470       -2.94417835513767        0.05424189210458
25
 energy: 2.888468168547 xtb: 6.6.1 (8d0f1dd)
C            3.10371392190531        1.14429145060406        0.38004871051624
N            2.26469020745936        0.10528744951968       -0.21079117537553
C            2.54572190646469       -1.27394184703249       -0.02271018828689
N            1.32732950331596       -1.94560757722072       -0.08126121774227
C            0.34595479889253       -1.04735999066038       -0.18964242987732
C            0.87456598947061        0.21822370208604       -0.29746499157826
C            0.06925888337944        1.36563625520672       -0.35945101483609
O            0.47944945960308        2.53001786576879       -0.44637489892198
N           -1.29444490837587        1.06499379322320       -0.21885670329328
C           -2.13052056559150        2.25396069553692       -0.09393719907684
C           -1.87143989936794       -0.16536912887077       -0.09869571618173
O           -3.07158517124565       -0.32445225987809        0.01579963668849
N           -1.00034999244412       -1.28657455472367       -0.12089591864268
C           -1.32064435926048       -2.68861269366081        0.05309910289209
H            3.95995447555106        0.62754087382797        0.87710757252704
H            3.45241208579045        1.81255819521648       -0.44426302092621
H            2.53335258538589        1.78549685788871        1.09997064565427
H            3.50220549748503       -1.73727632563768       -0.17156155639667
H           -1.47658087646347        3.08852624173309       -0.43045854616934
H           -3.04450476508081        2.16544775267591       -0.71556624478518
H           -2.42220331776238        2.42074209686584        0.96357782361095
H           -0.88209220953131       -3.05018864449678        0.99755820256674
H           -0.86641406497668       -3.25429781539636       -0.76938759945623
H           -2.38743819765611       -2.87967421459648        0.06139045380584
H            1.22182368098833       -2.94033957580676        0.04980016943206
25
 energy: 1.314116976030 xtb: 6.6.1 (8d0f1dd)
C            3.07511107204035        1.13578463703215        0.43225701685058
N            2.27369173151415        0.10460225804898       -0.21478169912566
C            2.54094946791536       -1.26326487715085       -0.01536276513179
N            1.33593171888427       -1.94143678034145       -0.10218919265752
C            0.34596934288219       -1.04781137680724       -0.22784816110794
C            0.88838309267604        0.21407640082642       -0.32747834234245
C            0.07418534224512        1.37355709110984       -0.40974601198117
O            0.47122524164643        2.53470780325438       -0.54580841772775
N           -1.29048036538883        1.07083129321836       -0.23945714229865
C           -2.12614761311390        2.25664710606199       -0.09739757514332
C           -1.86903478603414       -0.17390912809072       -0.09690689067045
O           -3.06338325875189       -0.32962406050929        0.04907978722338
N           -0.99606575505694       -1.28022460063282       -0.15756061941588
C           -1.31689518657458       -2.68039250540701        0.07016841476919
H            3.96124814401970        0.59591930018089        0.84844540787788
H            3.38619388003912        1.84827676155452       -0.30991148906275
H            2.53158917469170        1.68508611672332        1.19452025969560
H            3.49125823577338       -1.71711786635961       -0.26821873421497
H           -1.51828789204343        3.08302958706654       -0.45455357465044
H           -3.04221973485285        2.16761384904891       -0.66890847268096
H           -2.36658941120003        2.43419048611462        0.95616815343577
H           -0.87010735243336       -3.00462861646255        1.02668034492708
H           -0.86351878617231       -3.26968307370908       -0.73709452225763
H           -2.38411455074036       -2.87536740576848        0.09061993557064
H            1.24332291597018       -2.93183379682934        0.03231818626640
25