25
 energy: 0.000000000000 xtb: 6.6.1 (8d0f1dd)
C            3.23720163006194        1.16630919979326        0.08434469647475
N            2.29877817382611        0.07527477071623        0.03981603040599
C            2.58028210190900       -1.21425402444508        0.03006176031096
N            1.43813958087363       -1.93419271955128        0.00098261760884
C            0.39035688448383       -1.05887472636071       -0.00790371836672
C            0.93510056364412        0.21347819449412        0.01709077491437
C            0.09450143893243        1.40504303904423       -0.00410947031874
O            0.49712751527797        2.54126714362870       -0.00342325688240
N           -1.25076640035757        1.06271879480407       -0.03085478223738
C           -2.21907211982101        2.15522099834493       -0.05001256985998
C           -1.81739487048744       -0.20012725993278       -0.04692818574614
O           -2.99983886758376       -0.37846417018721       -0.07008878229737
N           -0.92618586207120       -1.30210215599479       -0.03682761578324
C           -1.46982264913417       -2.64643102187190       -0.06029820460571
H            3.71247264356769        1.21471455160235        1.06488849150277
H            4.00791497605742        1.03430808813993       -0.67357694370751
H            2.69910007168542        2.09770118228144       -0.09130154882931
H            3.56654120610678       -1.63682992603973        0.04233140067262
H           -1.67107961066214        3.09322851271934       -0.02552706933167
H           -2.82428953597071        2.09428624779827       -0.95318082946668
H           -2.87644029173232        2.07745725625962        0.81450067533302
H           -1.17061996399332       -3.19584890659852        0.83242232437030
H           -1.14560257411436       -3.17511610292205       -0.95688275822323
H           -2.55549792440841       -2.55659984320617       -0.07459039797972
H            1.38130855184625       -2.94313852034425       -0.01389874181052
25
 energy: -5.200493512638 xtb: 6.6.1 (8d0f1dd)
C            3.23394111940440        1.17890931179328        0.08755096127486
N            2.30331120409121        0.09296258167208        0.03889709957393
C            2.59928823466700       -1.23383371515811        0.02877131828111
N            1.42917256288632       -1.94499966758722        0.00002635534654
C            0.39439323514373       -1.06353663532778       -0.00684390053882
C            0.92556184835374        0.21595342105568        0.01779200174398
C            0.09732125715338        1.38923328163174       -0.00220963916063
O            0.49391351351808        2.55459988188430       -0.00061041267584
N           -1.26419161891593        1.04944935495596       -0.03142512996634
C           -2.21447058242786        2.16106757310349       -0.05483184541388
C           -1.82635329603695       -0.20164500840646       -0.04588163448407
O           -3.02412485537988       -0.37006589389804       -0.07113409306543
N           -0.93717254603103       -1.30818496019487       -0.03522732623101
C           -1.46413922700942       -2.65624163796349       -0.05925992714219
H            3.71563130229017        1.22456420058562        1.06780335593890
H            3.99888563484254        1.05006111375583       -0.67933192972946
H            2.68122500433154        2.10096522275145       -0.08301801874588
H            3.57939258654916       -1.65601960023336        0.03944953061125
H           -1.64124169634110        3.08260566152476       -0.02946462623200
H           -2.83071500115169        2.12843462825451       -0.95312449284600
H           -2.86893500108535        2.11531154387922        0.81171284160211
H           -1.15542968870440       -3.20792591560220        0.83138665500931
H           -1.13027300779503       -3.18603066347524       -0.95419253389104
H           -2.54981579026674       -2.57756955930820       -0.07384171771749
H            1.36703947585031       -2.94903591752089       -0.01595899539462
25
 energy: -4.814890617517 xtb: 6.6.1 (8d0f1dd)
C            3.21293580355947        1.19819618821091        0.09458097574363
N            2.30003451213248        0.10568618997057        0.03836391805941
C            2.61341990424625       -1.26058293300294        0.02430951790380
N            1.41071467828494       -1.95792207707771       -0.00262872522229
C            0.39109759129914       -1.07543101989124       -0.00369982264065
C            0.90578894234469        0.21121347532356        0.02176233736378
C            0.09424586874831        1.35624601817362        0.00280848655003
O            0.47244830764553        2.54758382928645        0.00865690413768
N           -1.29224332305882        1.02955433503029       -0.03483343451672
C           -2.19227204649098        2.18970285826876       -0.06589926041846
C           -1.84584172031344       -0.20851656956719       -0.04490621982617
O           -3.05562024474127       -0.36143574132252       -0.07353131742519
N           -0.95845469066315       -1.32143786586963       -0.03025212222012
C           -1.44392120805271       -2.68460484242264       -0.05558298103816
H            3.71667637083946        1.24703711970092        1.06739933570530
H            3.96545432414757        1.10159786001431       -0.69320720603999
H            2.62843738604173        2.10624032717047       -0.05256421103199
H            3.58790119977252       -1.68468569936421        0.02905661628944
H           -1.54299170829147        3.06494994152129       -0.04836719140470
H           -2.83152895487764        2.21905266541858       -0.95309555147858
H           -2.83962939139284        2.22332937973832        0.80888736691079
H           -1.11097779321373       -3.23775789339172        0.82971920251237
H           -1.08531044236784       -3.21275105562702       -0.94618103838855
H           -2.53152991269106       -2.64735623676200       -0.07109994815482
H            1.34338121502904       -2.95887965135720       -0.02266173522255
25
 energy: 10.641511705985 xtb: 6.6.1 (8d0f1dd)
C            3.17595258038647        1.23290992797319        0.10840385192862
N            2.29590848915112        0.12485361171909        0.03777140702032
C            2.63921505015060       -1.30830124472823        0.01591400744295
N            1.38245805439214       -1.98075944374595       -0.00802620389400
C            0.38728577140844       -1.10023916925197        0.00271740910409
C            0.87306961180815        0.19978363838337        0.03076274422195
C            0.08907293320542        1.29682606504347        0.01370860180566
O            0.43220639822545        2.52960650697804        0.02922412529576
N           -1.34517196828758        0.99670358261903       -0.04245124559489
C           -2.15542235167629        2.24117847217648       -0.08860954797697
C           -1.87869854867595       -0.22218255907913       -0.04378449603511
O           -3.10603510032370       -0.35006146167764       -0.07813777055879
N           -0.99382026972410       -1.34588922643531       -0.01979427733778
C           -1.41148127778159       -2.73345776874616       -0.04800947269161
H            3.72731473617586        1.28401692709714        1.06321891332522
H            3.90250389158525        1.20526836835551       -0.72108417013756
H            2.53462286132035        2.11780894828188        0.01442386728674
H            3.60500946941929       -1.73482346505585        0.00761642406008
H           -1.37260689334843        3.03075502885587       -0.09230426041589
H           -2.83692293040772        2.37583849346092       -0.95163727167824
H           -2.78283563284102        2.42056141654673        0.80266489101728
H           -1.04183743722508       -3.29147720963673        0.82817569820851
H           -1.01631938816489       -3.25978173003683       -0.93259912076190
H           -2.50116096838764       -2.76227625362155       -0.06442664657550
H            1.30990758755156       -2.97783285330330       -0.03670356091166
25
 energy: 35.238534846865 xtb: 6.6.1 (8d0f1dd)
C            3.12973742134293        1.26342127637562        0.11961501279450
N            2.28511188647591        0.13455055015942        0.03869761364325
C            2.65242758385373       -1.34704235683428        0.00763443015823
N            1.35817138155188       -2.00557812854725       -0.01378088453060
C            0.37768972925795       -1.12349138143755        0.00825702687433
C            0.84462810675816        0.18322371601760        0.03930797474866
C            0.07998637162744        1.25499214891157        0.02446107200120
O            0.41216714662327        2.51474228808240        0.04675959189097
N           -1.38303428829278        0.97552432484414       -0.04613097706704
C           -2.11240495465175        2.29566794521949       -0.10772837503099
C           -1.90979001879344       -0.23278458696638       -0.04117216646801
O           -3.15209775152358       -0.34107269992976       -0.08101719204711
N           -1.02460484671183       -1.36955864702654       -0.01119459994000
C           -1.37751099330590       -2.78272607938755       -0.04123868196878
H            3.71755568592655        1.31730873755003        1.05943855718233
H            3.83218083656100        1.29879292034782       -0.74516127786667
H            2.43337233559242        2.12361937949780        0.07242449797213
H            3.61283735575427       -1.77568814458185       -0.01321989455691
H           -1.21822905646444        3.01086803726912       -0.13231953335809
H           -2.82477049669770        2.51891893001403       -0.95214538829771
H           -2.71961122344692        2.59959008327696        0.79722066235331
H           -0.96911304161162       -3.33900223944204        0.82720726750486
H           -0.94339170185794       -3.30261038394659       -0.91959465485537
H           -2.46955835211044       -2.88350763488845       -0.05872498268659
H            1.28046555207883       -2.99912945240570       -0.05056120230266
25
 energy: 63.447706232009 xtb: 6.6.1 (8d0f1dd)
C            3.08326446855759        1.29077439800922        0.12914927115930
N            2.27145008947732        0.13613825539649        0.04066183022368
C            2.65570206424364       -1.37701174172755        0.00069586328021
N            1.33928838041928       -2.02875230436368       -0.01855606045945
C            0.36390890405674       -1.14555354620878        0.01351590438987
C            0.82085154432146        0.16287010392138        0.04752937757541
C            0.06086091517142        1.22495254898529        0.03363552637224
O            0.38880379141355        2.49861924086605        0.06232463098692
N           -1.41782394878865        0.95962290704942       -0.05004431724087
C           -2.06781101882313        2.35119594891402       -0.12398072564233
C           -1.94365537753188       -0.24700294995278       -0.03979267961291
O           -3.19618733189487       -0.34394103205190       -0.08505107202499
N           -1.05077777504408       -1.39336766635918       -0.00345097721605
C           -1.34404503652424       -2.83206400954872       -0.03532806996363
H            3.70660729322675        1.34652200961889        1.05292583521956
H            3.76254851148039        1.39109321542998       -0.76867316329414
H            2.33626468540412        2.12928652292219        0.13048270887502
H            3.61444400538421       -1.80945111539096       -0.03165089288485
H           -1.05767284441205        2.98691957569915       -0.17428204164311
H           -2.80831101519455        2.65970038674641       -0.95011309721194
H           -2.65281407038237        2.77927777587298        0.79543002199468
H           -0.89842597632810       -3.38381639631448        0.82605338994592
H           -0.87195940160965       -3.34277965892599       -0.90787790507911
H           -2.43958664736648       -3.00424719364518       -0.05407929378345
H            1.25729045867952       -3.01995667277023       -0.06249016781877
25
 energy: 62.015365806573 xtb: 6.6.1 (8d0f1dd)
C            3.07954768541463        1.27860626221637        0.12658211264215
N            2.25780140495311        0.04874026072266        0.05166958860236
C            2.57452519839910       -1.31634901143589        0.00080773810938
N            1.38186276079118       -2.01708211549940       -0.01632632233742
C            0.32025819470788       -1.13873565975262        0.01469254564584
C            0.86795499471449        0.11925761778832        0.05203858748588
C           -0.02852184371999        1.30708919013492        0.02704388420302
O            0.31830268953934        2.46302579993531        0.05935730671581
N           -1.40332686270127        0.98727997041199       -0.06151797216539
C           -2.04284738024784        2.36749386485491       -0.11465001633426
C           -1.98973890297212       -0.28645498722185       -0.04722089629240
O           -3.20513890694083       -0.42774256137163       -0.09492128691737
N           -1.01878099143870       -1.39539469678176       -0.00064598027950
C           -1.33371892043903       -2.84968941777935       -0.03559278859462
H            3.71935653654732        1.34207415984900        1.03631557939849
H            3.76024667689457        1.43639500995432       -0.78037488765699
H            2.32650253423575        2.13792726847385        0.16295888435654
H            3.57542361625546       -1.78941983267227       -0.02938224729380
H           -0.90621193531057        2.92632582687637       -0.20706220285658
H           -2.79691869769934        2.71532251192991       -0.93768132724937
H           -2.63823969974685        2.87458071392006        0.81955125945280
H           -0.88042854951744       -3.38861129812658        0.82197371102509
H           -0.85119171560213       -3.34343871727698       -0.90573948434354
H           -2.45298460832073       -3.04334898587573       -0.05543332071008
H            1.27848139013993       -3.01882257110186       -0.05940856845882
25
 energy: 59.489932208983 xtb: 6.6.1 (8d0f1dd)
C            3.02644847093211        1.29905713904327        0.13402393001121
N            2.24232086515051        0.05829299387367        0.05102629817950
C            2.58270685588041       -1.34394437566215       -0.00899928679032
N            1.35809478356533       -2.03453326385812       -0.02306671276639
C            0.31381243262978       -1.16586130281678        0.01767552496065
C            0.83459542557404        0.10299546641660        0.06138899176104
C           -0.00281527483326        1.24110194128214        0.04767538473168
O            0.39428797301503        2.41491408854960        0.10250086194958
N           -1.43173878199862        0.99157106235582       -0.06164461125401
C           -2.01996443782112        2.43521017647641       -0.14144948809818
C           -1.99876215545383       -0.27738369111289       -0.04518011847458
O           -3.21606344983609       -0.39636924178005       -0.09462454798980
N           -1.04733905658711       -1.41670862326435        0.00756809478965
C           -1.30088120333193       -2.89290865557758       -0.02799842296924
H            3.70088945305137        1.35739106350835        1.02187524501417
H            3.67412288840252        1.50430102111754       -0.79435872220878
H            2.24527027289559        2.13247729573892        0.21172647027919
H            3.56789128804161       -1.80758687334856       -0.04998964820211
H           -0.91169970917853        2.97174497293039       -0.25057733589860
H           -2.78061157984124        2.80602982781463       -0.93432380506916
H           -2.55863874322866        2.99116044593458        0.79502521866312
H           -0.82251184072248       -3.42606470287989        0.82651198689627
H           -0.79649842057058       -3.37759781144945       -0.89666848330997
H           -2.40516932084923       -3.14311292338162       -0.04692477333005
H            1.26446793305024       -3.03514742773841       -0.07415815472762
25
 energy: 60.414833947065 xtb: 6.6.1 (8d0f1dd)
C            2.95750503575691        1.30670400836745        0.13735580651099
N            2.21111951381836        0.05694230234059        0.05051286456728
C            2.56208318450893       -1.33756984927598       -0.01989880473600
N            1.34470138733366       -2.04043800563031       -0.03221087303243
C            0.29920033690343       -1.19834987367770        0.01796684286490
C            0.79470730113233        0.08860760812352        0.07132859042370
C            0.01048266958783        1.17262852708717        0.07577003012819
O            0.45715943359605        2.34892522369439        0.16509369931108
N           -1.45131487256336        1.00910263503988       -0.05644021063934
C           -1.98050267173338        2.52563575180355       -0.17368700976138
C           -1.99986426995378       -0.26440450038102       -0.04388415497835
O           -3.20402640630581       -0.35417610819577       -0.09239561194752
N           -1.06917944058794       -1.44895703636568        0.01569715866499
C           -1.26231984724951       -2.94705503401975       -0.01873453753014
H            3.66080670971062        1.35555756213130        0.99135394033146
H            3.55241121296427        1.54821480935683       -0.79316087546987
H            2.17779671116051        2.10664163856843        0.25670876060091
H            3.52905289563928       -1.79101371480960       -0.07209958017517
H           -0.95767777890624        3.02473746401508       -0.29549881101558
H           -2.73198659468840        2.89693683019138       -0.92177233681949
H           -2.42407009366566        3.09470186578075        0.74427115083558
H           -0.76560664312099       -3.45910690077520        0.83715793108666
H           -0.74627523283205       -3.40989381014084       -0.88933356407094
H           -2.32980748379746       -3.25054894027718       -0.03490081986376
H            1.27781961122823       -3.04479385077919       -0.09216568913856
25
 energy: 77.760338445576 xtb: 6.6.1 (8d0f1dd)
C            2.88978013687675        1.30573418184024        0.14116547027120
N            2.18112071847555        0.03732997557221        0.05278306307413
C            2.53536510216576       -1.32826657843236       -0.03087167766605
N            1.34284697504344       -2.05531632655200       -0.04319052245487
C            0.28063990573699       -1.23879435276234        0.01852697524235
C            0.76527690450542        0.05654192052663        0.08172718549444
C           -0.00736684745716        1.14168361715512        0.11186965412856
O            0.47221306167505        2.31158983268319        0.23847918683010
N           -1.47082624199729        1.03291948969621       -0.04926128017519
C           -1.94334561886376        2.62263659455788       -0.20631521298900
C           -2.00918101097717       -0.25241678113173       -0.04277068870373
O           -3.20604596169932       -0.31048983378507       -0.09603422523378
N           -1.08656364963417       -1.48733974802392        0.02429910913122
C           -1.21824735076724       -3.00960235120265       -0.00867470079816
H            3.62440644340973        1.34575915534503        0.95934798522040
H            3.41763312201202        1.60309475168784       -0.80488443702144
H            2.09230510066140        2.06891585824286        0.32225192512123
H            3.49655267812781       -1.77434318266745       -0.09720169286475
H           -0.94370849833540        3.04691714510065       -0.36876074492575
H           -2.70020224954893        3.02200911396283       -0.91041273307211
H           -2.27622437411680        3.24627510343504        0.70047948201613
H           -0.69473184416365       -3.49624974902533        0.84725290360052
H           -0.68145462852930       -3.44793940626002       -0.87888269941698
H           -2.25274353846790       -3.38901809855778       -0.02240690128806
H            1.30471633380394       -3.06260172923299       -0.11148152737321
25
 energy: 91.955722836339 xtb: 6.6.1 (8d0f1dd)
C            2.83778758634442        1.28073473952469        0.13882412928416
N            2.14892127101575        0.00877077016513        0.05500797967262
C            2.49925172509302       -1.29290115933167       -0.03878192085623
N            1.36237191831954       -2.06660181020382       -0.05626976385063
C            0.26518763565480       -1.28207008585682        0.01514359929238
C            0.74339436399054        0.02179210892414        0.08570589363306
C           -0.05154034776088        1.14590396893033        0.15986800923785
O            0.44132424241854        2.30118888414233        0.32800620812102
N           -1.47269038802354        1.07055344269547       -0.02603040282715
C           -1.93111835930850        2.72133285712714       -0.23194145820542
C           -2.00577204508693       -0.22894190435842       -0.04087717651310
O           -3.19607270519998       -0.24089100845699       -0.10159052621244
N           -1.08971994489417       -1.53671523906545        0.02839631351596
C           -1.18177416599356       -3.06990922838195       -0.00109715399589
H            3.58379813400724        1.31376636098813        0.91975027254525
H            3.28083160274139        1.60833765174877       -0.79902499122150
H            2.05488470113323        2.00598068914741        0.37340185053823
H            3.46578620423734       -1.72557103162849       -0.11898469086085
H           -0.96235939552711        3.05116932678282       -0.46387256575297
H           -2.69194680993879        3.12254842620457       -0.88843547330008
H           -2.11060485253290        3.36285858687922        0.64371198489994
H           -0.64619868691465       -3.51962705181028        0.85950797884535
H           -0.63961481006654       -3.47744938852454       -0.87363070768501
H           -2.16379085587993       -3.50730415526640       -0.01141342560147
H            1.37187865010741       -3.07792714820320       -0.12834006655594
25
 energy: 115.933773614237 xtb: 6.6.1 (8d0f1dd)
C            2.78117523272678        1.27709842189771        0.14457523130112
N            2.11359316380610        0.00044411841937        0.06342888443962
C            2.48915850673413       -1.29341524404867       -0.04803011394470
N            1.37183181567141       -2.09236320348067       -0.06853708688373
C            0.25264478730240       -1.31958707251433        0.01615917882905
C            0.71236652748107       -0.00922380155312        0.09812929690705
C           -0.08946352634089        1.14000502457766        0.20388844879188
O            0.40623772875690        2.28559259594457        0.41367727341317
N           -1.47964032197609        1.08114495071400       -0.00773569207333
C           -1.91329475092008        2.80127476952127       -0.25958029206534
C           -2.02000288099515       -0.21582621773087       -0.04002518590732
O           -3.22189217304962       -0.17667727245463       -0.11488659011897
N           -1.10202275830203       -1.58476047239594        0.03192109673445
C           -1.14471527958406       -3.13087639607246        0.00499384303510
H            3.56772060351855        1.29597251878185        0.89354392699466
H            3.14909062110849        1.65997906179801       -0.82535465756054
H            1.97046758565981        1.97191195014559        0.45448278369037
H            3.46958592056941       -1.70410415300144       -0.14195435298279
H           -0.86504640056479        3.02080500394842       -0.59595017447683
H           -2.72737961830181        3.25362230601444       -0.86817712295739
H           -1.95832996976624        3.55470363768552        0.62287083814749
H           -0.58444541742306       -3.55714109144081        0.86542189420603
H           -0.58124970902078       -3.51830339356168       -0.86655152687654
H           -2.10390319966340       -3.64882338625687       -0.00365254190484
H            1.41972818050863       -3.10242405276477       -0.14562346259047
25
 energy: 130.851276366456 xtb: 6.6.1 (8d0f1dd)
C            2.74556561247514        1.25042062133851        0.14007370463255
N            2.06975810851918       -0.00177347530497        0.07023334745192
C            2.48696947741779       -1.28262852644116       -0.05791060397143
N            1.39649948940500       -2.11550081614964       -0.07925980061717
C            0.24907409305898       -1.35289102033391        0.01369907541548
C            0.67928766245768       -0.03353351271905        0.10841350370021
C           -0.13525629875017        1.14732292354378        0.26132964382197
O            0.32733027663715        2.27722214288605        0.51786219828846
N           -1.45429757686424        1.08010901275635        0.03837610086220
C           -1.90565629120523        2.89199136424718       -0.28437583332594
C           -2.01933606591426       -0.18805619230163       -0.03945492030897
O           -3.23528361933629       -0.06798717524804       -0.12939415491326
N           -1.09547603501092       -1.65030381039083        0.02646026045488
C           -1.11482617146931       -3.19055316950967        0.01077626433138
H            3.56113788241067        1.25248423926683        0.86130527604227
H            3.03653263267165        1.64454167995712       -0.84208000116430
H            1.94074867579123        1.92568265098424        0.50760472788086
H            3.49354856483247       -1.64710044333475       -0.15787020196971
H           -0.87654774242571        3.01446072956051       -0.70826658809620
H           -2.78460657208195        3.37440195453849       -0.84022449487310
H           -1.81296666054197        3.68818858521958        0.54862348516541
H           -0.54748911748332       -3.59081927318369        0.87546632745717
H           -0.55034971795241       -3.56050629731448       -0.86440118495098
H           -2.04657217045681       -3.75536123115902        0.00527086607813
H            1.50442623175134       -3.12078235873563       -0.15522310124468
25
 energy: 147.650711276825 xtb: 6.6.1 (8d0f1dd)
C            2.71836618640913        1.22478592228726        0.12912230187925
N            2.02265570499848       -0.01075833349579        0.07057655099981
C            2.49125416520098       -1.27808746371825       -0.06791627555937
N            1.42519263285585       -2.14362827477525       -0.08658536273551
C            0.24597962462833       -1.38210488585260        0.01363408001977
C            0.65350157788246       -0.06802630100449        0.11408913777186
C           -0.18603299233099        1.15511120442301        0.31370537713471
O            0.23795730210800        2.24404591380224        0.60724607661289
N           -1.40728311923670        1.04688960627388        0.10461273462405
C           -1.90765986196504        3.02027153108885       -0.29387122848947
C           -2.02642323489389       -0.15410075377394       -0.03754925185353
O           -3.24840274210072        0.05825547569412       -0.13649490170700
N           -1.06713229334788       -1.74222201191964        0.01790756064874
C           -1.08293057879241       -3.25915912555003        0.01554372567494
H            3.55004169043507        1.22099967005622        0.83012899132925
H            2.95571325262928        1.62125902178159       -0.84502380530797
H            1.92910232636345        1.89149846607721        0.53705079219189
H            3.53243513438255       -1.58712309347292       -0.16813155385599
H           -0.93004094054341        3.01964082867392       -0.78854174283089
H           -2.84529386434847        3.50700510358595       -0.80500388278038
H           -1.69867733395459        3.82043461785211        0.43458328738778
H           -0.51798876672416       -3.63781093165064        0.88323066419558
H           -0.52561562973291       -3.61200605744527       -0.86723397042096
H           -1.99700611859229       -3.82970401239976        0.01258982816648
H            1.59050254660552       -3.13643751436559       -0.16063523694877
25
 energy: 154.346343191819 xtb: 6.6.1 (8d0f1dd)
C            2.70552173089708        1.20934210029177        0.12193411590805
N            1.99843572153522       -0.02435340218016        0.06489339870982
C            2.50158569509629       -1.28544999966637       -0.07240615631072
N            1.44715050918707       -2.16194358008678       -0.09125579461948
C            0.24660672873433       -1.40300153351082        0.01608714415119
C            0.64981421918853       -0.09505765496283        0.12048092489741
C           -0.20181732170077        1.15272295704290        0.34609734701049
O            0.18769390358800        2.21687976083489        0.69324579650169
N           -1.39830438912872        0.98732154123027        0.12357975387136
C           -1.93092894654972        3.15916836362458       -0.30362347362628
C           -2.05768895448520       -0.12508004364192       -0.03780111606891
O           -3.26218318951113        0.15243270313278       -0.14581954521326
N           -1.03207929369912       -1.82799958310829        0.01608847896389
C           -1.04994553918497       -3.31685685382881        0.02052381772777
H            3.54534449749999        1.20254256349301        0.80819989736581
H            2.91277833267737        1.60368455168540       -0.84494798125793
H            1.93689785192414        1.87461486448465        0.54454648402634
H            3.55899518010401       -1.55152412742472       -0.17222348084463
H           -1.02516927218541        3.01405777855867       -0.82200304344571
H           -2.90282944643060        3.61487611689585       -0.77283074954947
H           -1.61006944745971        3.95542533645487        0.33999519451066
H           -0.49245899896604       -3.68494570238358        0.88990376169493
H           -0.50380072421863       -3.66250628053499       -0.86823672649864
H           -1.96323127461925       -3.87123701016171        0.01905439150360
H            1.65189709564290       -3.14408426406646       -0.16644854326080
25