25
 energy: 0.000000000000 xtb: 6.6.1 (8d0f1dd)
C            3.23720163006194        1.16630919979326        0.08434469647475
N            2.29877817382611        0.07527477071623        0.03981603040599
C            2.58028210190900       -1.21425402444508        0.03006176031096
N            1.43813958087363       -1.93419271955128        0.00098261760884
C            0.39035688448383       -1.05887472636071       -0.00790371836672
C            0.93510056364412        0.21347819449412        0.01709077491437
C            0.09450143893243        1.40504303904423       -0.00410947031874
O            0.49712751527797        2.54126714362870       -0.00342325688240
N           -1.25076640035757        1.06271879480407       -0.03085478223738
C           -2.21907211982101        2.15522099834493       -0.05001256985998
C           -1.81739487048744       -0.20012725993278       -0.04692818574614
O           -2.99983886758376       -0.37846417018721       -0.07008878229737
N           -0.92618586207120       -1.30210215599479       -0.03682761578324
C           -1.46982264913417       -2.64643102187190       -0.06029820460571
H            3.71247264356769        1.21471455160235        1.06488849150277
H            4.00791497605742        1.03430808813993       -0.67357694370751
H            2.69910007168542        2.09770118228144       -0.09130154882931
H            3.56654120610678       -1.63682992603973        0.04233140067262
H           -1.67107961066214        3.09322851271934       -0.02552706933167
H           -2.82428953597071        2.09428624779827       -0.95318082946668
H           -2.87644029173232        2.07745725625962        0.81450067533302
H           -1.17061996399332       -3.19584890659852        0.83242232437030
H           -1.14560257411436       -3.17511610292205       -0.95688275822323
H           -2.55549792440841       -2.55659984320617       -0.07459039797972
H            1.38130855184625       -2.94313852034425       -0.01389874181052
25
 energy: -5.394432567062 xtb: 6.6.1 (8d0f1dd)
C            3.24318088399707        1.17753095314104        0.08681633611177
N            2.30767408722145        0.09532874770034        0.03779680766390
C            2.59945099703917       -1.23273709375233        0.02995033896634
N            1.42745820770235       -1.94055673281431        0.00074352772419
C            0.39617737760028       -1.05658636302076       -0.00817280060605
C            0.92984821455019        0.22215445502439        0.01542383214883
C            0.10132793356411        1.39559738646797       -0.00504637766703
O            0.49796598255816        2.56142172986092       -0.00435824147010
N           -1.26066615505579        1.05063233406793       -0.03113631693685
C           -2.22010903900427        2.14794447102602       -0.05021611037655
C           -1.82388397337745       -0.20064533265411       -0.04720484575823
O           -3.02061117702238       -0.38200740522957       -0.07046281172465
N           -0.93443335555899       -1.30131682184445       -0.03691810921155
C           -1.47116212604102       -2.64385251562306       -0.06012902000309
H            3.72163572059980        1.22337365725350        1.06876248130064
H            4.01101657736189        1.04313263793549       -0.67646598872555
H            2.69600754951476        2.10200111807313       -0.08837028783241
H            3.57776338922237       -1.65883422219078        0.04244194466334
H           -1.65760816449742        3.07845328753239       -0.02566503811875
H           -2.82630927157587        2.09606882651869       -0.95416791259303
H           -2.87745828937251        2.07970214274144        0.81570723875253
H           -1.16718185748836       -3.19502770973906        0.83186880943278
H           -1.14213212976786       -3.17440151447055       -0.95584699265458
H           -2.55650123132445       -2.55405172607513       -0.07451623847416
H            1.36076451709097       -2.94429570775712       -0.01380032846444
25
 energy: -6.549455168841 xtb: 6.6.1 (8d0f1dd)
C            3.25118152503786        1.18777899003292        0.09066680003243
N            2.31699167521700        0.10759480616669        0.03408055399576
C            2.61087603773857       -1.25049743020444        0.02951054495837
N            1.41164261849658       -1.93979566458197        0.00069466861677
C            0.39883902595125       -1.05099710261913       -0.00907017330424
C            0.92677937710115        0.23113470619220        0.01224392897893
C            0.10639767372590        1.38211200652817       -0.00798889471136
O            0.48209803659239        2.56624160759625       -0.00793057560401
N           -1.27386728859223        1.03610761571942       -0.03242470491781
C           -2.21940447864067        2.14007727321961       -0.05062834868611
C           -1.83093101001452       -0.20368395155311       -0.04783398831657
O           -3.03311803758213       -0.39075775766937       -0.07063088945871
N           -0.94262177203466       -1.29770009166709       -0.03706077973111
C           -1.46997597338448       -2.64000847950349       -0.05955789704694
H            3.74052622375851        1.23902590823016        1.06994219835575
H            4.01690670779133        1.06793849774031       -0.67971918533985
H            2.69423368607646        2.10851938775601       -0.07660143767546
H            3.58110862757497       -1.68895494755593        0.04254300832753
H           -1.62760758888488        3.05337944608798       -0.02682541447876
H           -2.82820897468522        2.10183930518748       -0.95443229615120
H           -2.87650125753156        2.08694262592879        0.81735183513116
H           -1.16088613933634       -3.19221520880400        0.83152383691041
H           -1.13571583285527       -3.17215444378321       -0.95388764408317
H           -2.55557667152013       -2.55189291408689       -0.07415870351473
H            1.32904847793632       -2.94100558218534       -0.01277254613976
25
 energy: -5.929665797716 xtb: 6.6.1 (8d0f1dd)
C            3.25734449252978        1.19744742324336        0.09621943794484
N            2.32588828327679        0.11084909232755        0.02959961731006
C            2.61220536436931       -1.26696426829381        0.02767479609510
N            1.39485155735023       -1.93711918875481        0.00071735945470
C            0.39727979123545       -1.04464762728120       -0.01082652606599
C            0.92733652704394        0.23762367748366        0.00768677945809
C            0.10533093609786        1.37230620772382       -0.01461724123396
O            0.45420108706008        2.56679109391170       -0.01696757647458
N           -1.28806245725193        1.02193362400966       -0.03594113250401
C           -2.21437429797532        2.13613940056452       -0.05178436998453
C           -1.84085135864497       -0.21155960466291       -0.04913839720985
O           -3.04365014250674       -0.40729634375818       -0.07047490183477
N           -0.94824233380520       -1.29496649503181       -0.03737119713202
C           -1.46373544230266       -2.63921257578270       -0.05800495064138
H            3.76664483195311        1.25229706238599        1.06744538251007
H            4.01836245873677        1.11260449685247       -0.68631169372428
H            2.68848197938985        2.11684066583240       -0.04753650969698
H            3.57307638673718       -1.72671173486065        0.04200017951080
H           -1.58093438375118        3.02372135208012       -0.03113368399491
H           -2.82794673985160        2.11567937007870       -0.95353149629429
H           -2.86871722161436        2.10442816690547        0.82009039078392
H           -1.14900706830267       -3.18843799587731        0.83342139699610
H           -1.12363577274499       -3.17038161377887       -0.95119889739320
H           -2.54993776470069       -2.55545225883817       -0.07290804547802
H            1.29030595560813       -2.93688332430699       -0.01007482425368
25
 energy: 6.302369069432 xtb: 6.6.1 (8d0f1dd)
C            3.26888773142932        1.23216533718027        0.11962068582612
N            2.35379245537007        0.11836448175654        0.01181048900330
C            2.60978944309153       -1.32293891241970        0.01896386793241
N            1.33513983425977       -1.92610268573037        0.00087466138817
C            0.38801194289696       -1.02115286753815       -0.01839939113364
C            0.92932812352602        0.25986121258219       -0.01108146325767
C            0.09944453847929        1.34135727008603       -0.04425590906412
O            0.34958758342814        2.56776787238729       -0.05808698043982
N           -1.33849665815261        0.97225059146493       -0.05235988824462
C           -2.18753314133472        2.12896792454808       -0.05751673592272
C           -1.87854775676163       -0.24215258608136       -0.05494713931053
O           -3.08092653604985       -0.46998143805285       -0.06912094617831
N           -0.96712239774245       -1.28648535808745       -0.03893049913947
C           -1.43387908582317       -2.64125051452327       -0.05066322220019
H            3.86042224875155        1.27715140968721        1.05654116916972
H            3.99928439910128        1.28539952310495       -0.72018641419584
H            2.65337266547399        2.14919237878997        0.08565829717182
H            3.53591985150732       -1.86121307962820        0.03911938300557
H           -1.39840755979199        2.91822085954813       -0.05282276278987
H           -2.82009786092329        2.17345900500928       -0.94931109204756
H           -2.82509745101351        2.17885861248219        0.83247629591416
H           -1.09611202393272       -3.17465345560128        0.84364706407206
H           -1.07016044647968       -3.16702088541919       -0.93936633683513
H           -2.52275874626994       -2.58062432090064       -0.06673552401407
H            1.14837351489642       -2.92041177247250        0.00210628743749
25
 energy: 25.846107672754 xtb: 6.6.1 (8d0f1dd)
C            3.27080022304113        1.25899922414328        0.14235679162813
N            2.37382784724449        0.11826328460546       -0.00404703616113
C            2.60288584663415       -1.36960398560553        0.00963997942267
N            1.28915044964087       -1.92084102074526        0.00049888056749
C            0.37834826391663       -1.00377900153649       -0.02620720164832
C            0.93275873959800        0.27331369040103       -0.02902341547920
C            0.09826877571077        1.32162960862840       -0.07494883147936
O            0.28455810793340        2.56166649555044       -0.10059212179542
N           -1.37791698568283        0.94160002193010       -0.06979059220432
C           -2.16542080591973        2.13223334165242       -0.06349983516864
C           -1.90940148915620       -0.26399248698181       -0.06048461150520
O           -3.10888851452509       -0.52010700895193       -0.06679070602384
N           -0.98036783536498       -1.27992869838808       -0.04090070294325
C           -1.40280412826715       -2.64641096361493       -0.04271125897987
H            3.93952594271934        1.28098808870023        1.04307968100785
H            3.96299947499396        1.43903721141141       -0.74970742021924
H            2.61613205209265        2.17179508856030        0.21916178934033
H            3.49826226454635       -1.97228116257122        0.03499598480652
H           -1.27377954796674        2.84576236343664       -0.07566342505675
H           -2.81353411548486        2.22597322616195       -0.94361700267254
H           -2.78035925683583        2.24545308167307        0.84352872537244
H           -1.04431424316038       -3.16296765157102        0.85523961896009
H           -1.01833866254832       -3.16707914636847       -0.92717371137246
H           -2.49403601263540       -2.61217262830166       -0.05944058677620
H            1.03385827741177       -2.90852237004622        0.01313090452750
25
 energy: 31.535695698213 xtb: 6.6.1 (8d0f1dd)
C            3.26002384751965        1.27215196450168        0.15980926475241
N            2.38378294351750        0.10229072140733       -0.01692100677359
C            2.58628838141684       -1.39780143675235        0.00379641350147
N            1.27094235274168       -1.92278708107329        0.00103182259347
C            0.36841518763371       -0.99572723128701       -0.03360605077464
C            0.94366856274838        0.27195624309422       -0.04476462587911
C            0.10533239634310        1.32491499076369       -0.10327288494218
O            0.28324247554061        2.54160330748256       -0.13873130247070
N           -1.39935466543670        0.94466388274756       -0.08604173621943
C           -2.15451435084223        2.15114209340713       -0.06774080378789
C           -1.92835560552585       -0.27296288343290       -0.06487893665408
O           -3.11711452221841       -0.55347340851288       -0.06363197127411
N           -0.98039360723526       -1.27609505006926       -0.04344913461046
C           -1.37163231081297       -2.65499549171733       -0.03585760566845
H            3.98810431776191        1.26143429535894        1.02301252499936
H            3.90854887830331        1.54894489497376       -0.76311802067769
H            2.58630697426600        2.17629133268902        0.33028918472480
H            3.45682321967145       -2.04392557276340        0.03146528328828
H           -1.25437934066308        2.82723815613912       -0.09495748257787
H           -2.80846975041437        2.26577312493625       -0.93473481026893
H           -2.73948243199621        2.29177591591600        0.85079401027336
H           -1.00200971434730       -3.15496719426247        0.86682311855786
H           -0.97628409420042       -3.17012619632696       -0.91804197381864
H           -2.46449927636688       -2.64658956570237       -0.05246512491185
H            0.96722480053141       -2.90170120934492        0.02222574476585
25
 energy: 24.733760610391 xtb: 6.6.1 (8d0f1dd)
C            3.21847678961737        1.27142855778503        0.18020796159512
N            2.37576513834043        0.05425458143926       -0.02894888862351
C            2.53449214485420       -1.38625634413571        0.00211420239681
N            1.30091882523197       -1.93679962898360        0.00269457350807
C            0.34712456358183       -0.99814731791508       -0.04615403342297
C            0.97292156671771        0.24007342095704       -0.06704519410840
C            0.11641487108802        1.36656923274136       -0.14406742875954
O            0.36624691367831        2.50567952809292       -0.20377129562009
N           -1.39796280606654        0.98360037612033       -0.10848459967624
C           -2.14379923933106        2.20348304456186       -0.06752751147677
C           -1.94617641245772       -0.27635703798379       -0.07009777795748
O           -3.10687438677802       -0.58139348903915       -0.05548903751902
N           -0.95745572800156       -1.28310160306499       -0.05058700842979
C           -1.32562469277098       -2.67997665977869       -0.02799989894828
H            3.99811362289323        1.19251667967383        0.96858304206049
H            3.77426825783885        1.63065907655535       -0.72844148943722
H            2.56464169054944        2.12868674576788        0.45789469509767
H            3.37316901160621       -2.06127059934445        0.02290123469227
H           -1.35137117925261        2.87117107064109       -0.12268368204849
H           -2.80038445493651        2.32872181253614       -0.91146286906111
H           -2.66994598113931        2.35183810068381        0.86340695872422
H           -0.95114485632114       -3.14978444417016        0.88469200582700
H           -0.92595326523580       -3.18174566718003       -0.91067276166568
H           -2.41638708987297       -2.71537143858505       -0.04214479230042
H            0.96274136410245       -2.88944939520305        0.03011749130060
25
 energy: 41.592061949484 xtb: 6.6.1 (8d0f1dd)
C            3.19761274153531        1.28469095235650        0.21402286050471
N            2.38453206030771        0.03779271989512       -0.04648348636226
C            2.51564396851541       -1.41627397882698       -0.00774732662425
N            1.26859332720114       -1.93843790311147        0.00213309521110
C            0.33236738897376       -0.98760002701304       -0.05831819544392
C            0.97817669949464        0.23886411897859       -0.09225066906579
C            0.12114919332553        1.35843308794924       -0.18883411517610
O            0.35959850663169        2.50076482127173       -0.29008135199756
N           -1.42521449539676        0.97623136556365       -0.13438363492064
C           -2.12596340386687        2.23083939752670       -0.07266483643429
C           -1.97335960274027       -0.28983501760956       -0.07833816195190
O           -3.12631524288797       -0.62404865238464       -0.04865842057983
N           -0.96624613789292       -1.28249284826565       -0.05637354705554
C           -1.27960364145946       -2.69910667743159       -0.01778440363531
H            4.07443029906088        1.13714439138599        0.93836653745432
H            3.66710345811402        1.80092266882449       -0.75623583260111
H            2.50156113460791        2.11867620598611        0.66066460926302
H            3.32100901655913       -2.14576208103462        0.01574158489704
H           -1.26881064525895        2.85211232470649       -0.17096840661609
H           -2.80952291738336        2.39742868146047       -0.89271883782166
H           -2.60247871025644        2.43924088879250        0.88823580651737
H           -0.87950882846548       -3.14143597383836        0.90220338171327
H           -0.85399134573656       -3.19379181276871       -0.89499113214012
H           -2.37116245755347       -2.78517706761564       -0.03186876729965
H            0.87261430250703       -2.88015098262513        0.04436714631244
25
 energy: 40.314146265611 xtb: 6.6.1 (8d0f1dd)
C            3.17271711587491        1.25887945813037        0.23822098037861
N            2.36516372678191        0.04416121425064       -0.04812461317727
C            2.52295987537592       -1.36413433740907       -0.00695128789230
N            1.25206769903230       -1.93547561343632       -0.00373105442311
C            0.32817224575852       -0.99130055836818       -0.06603988471156
C            0.94971973801715        0.23375963728259       -0.10814545392291
C            0.08923604811044        1.32134590523481       -0.18704108609590
O            0.37382883181884        2.57787703754920       -0.39433248666943
N           -1.40104363521512        0.95812512662391       -0.13429422143032
C           -2.12395114442108        2.23982817879612       -0.06215732388248
C           -1.96909457690134       -0.29010110359312       -0.08545093524877
O           -3.14193819445017       -0.61224572033601       -0.04131922974863
N           -0.99098820076553       -1.30440842373398       -0.06477320490715
C           -1.27023733389690       -2.72725511995271       -0.01832631049016
H            4.05773430144941        1.07352768397166        0.91474521232676
H            3.56668035651534        1.81887894075592       -0.73622095492371
H            2.46772543681912        2.04300523986712        0.75802953045825
H            3.32877704086990       -2.08151392558370        0.00858447260615
H           -1.13747345383710        2.91106708858810       -0.22841903368761
H           -2.84843395688751        2.43455341588191       -0.86752996814316
H           -2.56656832901405        2.48888617898324        0.93017924359457
H           -0.84444868150073       -3.15328392496886        0.90491627900218
H           -0.81676226327775       -3.21823021609074       -0.89255380673094
H           -2.35064747234110       -2.85387774810361       -0.03066406886705
H            0.89901949402019       -2.88303981216706        0.04843310273319
25
 energy: 41.806655413233 xtb: 6.6.1 (8d0f1dd)
C            3.12551253090151        1.26023420580839        0.27590922475222
N            2.34633839311790        0.02784801474128       -0.06054668954940
C            2.49130303450693       -1.36034498188387       -0.00851684825728
N            1.24443628143403       -1.93650069184226       -0.00861171133267
C            0.30990189157642       -0.99060923317001       -0.08620562997747
C            0.94418849376046        0.22732872216923       -0.15120601712383
C            0.08842981322081        1.32421302317213       -0.26544842010862
O            0.40251553374261        2.54216511321176       -0.46538685564602
N           -1.40215819877156        0.97405364793103       -0.16261818456508
C           -2.09027575803253        2.27772885826133       -0.06023762048113
C           -1.97921826774173       -0.28479571899866       -0.09205286318481
O           -3.14124156041535       -0.61325092243235       -0.02837951575075
N           -0.99471332385100       -1.30653674039777       -0.07745644585563
C           -1.22818130767218       -2.74695546484795       -0.00838416091050
H            4.07212009379498        1.01840635316408        0.87624072445988
H            3.43482570557980        1.89671967338870       -0.69336572312748
H            2.43664934184344        1.99843717731506        0.89616301566584
H            3.27949320766149       -2.09932739159303       -0.00354345989172
H           -1.14146719705816        2.93581922206142       -0.25907784064493
H           -2.84907677494388        2.48914631107040       -0.82610754242100
H           -2.47433607022486        2.54565681387023        0.95032230752935
H           -0.77646356537267       -3.14395544887873        0.91971460254649
H           -0.75259129732173       -3.23294136144324       -0.87471372081258
H           -2.30539203551633       -2.93890779554908       -0.01597220233717
H            0.87161570371704       -2.87460278295580        0.05651547317153
25
 energy: 29.517268800101 xtb: 6.6.1 (8d0f1dd)
C            3.06427111491019        1.24908620817304        0.31062635158907
N            2.30404633037113        0.03044526051559       -0.07223612905967
C            2.46479556118696       -1.33016669947014        0.00498724299872
N            1.25729881064681       -1.93655735745929       -0.01526811478932
C            0.29603345224702       -1.00224071828668       -0.11189334049282
C            0.91861976670949        0.22606576704277       -0.20773423292561
C            0.07417936869508        1.33361541301200       -0.37375496052195
O            0.44525030772780        2.46966808757971       -0.51013996088014
N           -1.37349767976486        1.00681778951310       -0.18571661150422
C           -2.03823489201922        2.31223922355171       -0.05382926948067
C           -1.96405711789068       -0.25626628031936       -0.09337529872940
O           -3.12302478196556       -0.55610331396360       -0.00996121002838
N           -0.99934829901738       -1.31216256710429       -0.09668818993692
C           -1.20402532591957       -2.75838115342299       -0.00025327782042
H            4.01881963950491        0.98207901844107        0.82362663491041
H            3.29515195145061        1.88503334939308       -0.58475812262511
H            2.43726513810927        1.90581759211227        0.96524034950296
H            3.26142985834663       -2.04968643820817       -0.02372776830228
H           -1.21746836748952        2.98398303437208       -0.26164254125066
H           -2.83710510350497        2.51646803184494       -0.76453032982930
H           -2.37110813362014        2.55743879671389        0.95354554775476
H           -0.73284046696042       -3.13142080773964        0.92647578443546
H           -0.71290156463736       -3.24405571157445       -0.85582702780206
H           -2.26407304321899       -3.01735288656421        0.00188724207232
H            0.91273814403822       -2.87533503598015        0.06198112886245
25
 energy: 30.016638561214 xtb: 6.6.1 (8d0f1dd)
C            3.00829034728000        1.23100715739778        0.35703735579131
N            2.27245412905525        0.03209839809557       -0.09381426000321
C            2.45677260556785       -1.31181554986510        0.02085605542081
N            1.25134169871555       -1.94150777126970       -0.02117384093999
C            0.28586701197531       -1.01643476700643       -0.14289523446290
C            0.88889084104624        0.21644230474225       -0.26011044435175
C            0.05815021235977        1.32347797275422       -0.45351014177167
O            0.47968431630150        2.45454340927336       -0.64193586709939
N           -1.35219316331680        1.02558978200273       -0.21159171058292
C           -2.00405261267655        2.33929563911241       -0.04383976119581
C           -1.95462477354107       -0.23390157012332       -0.10213300656167
O           -3.12170590036396       -0.50533653385198        0.01193470575386
N           -1.01765771312642       -1.32208249790298       -0.12177038992179
C           -1.18236299128682       -2.77452261771757        0.00561515930681
H            4.00126923205501        0.91716351033473        0.77424581406544
H            3.13362598507134        1.95319215873224       -0.51810935119279
H            2.39873240506992        1.81094233397405        1.13656909312232
H            3.26112127608005       -2.01232398292152       -0.04186921694774
H           -1.20043369604401        3.02440828975183       -0.31432357294306
H           -2.85731904155094        2.54632307678193       -0.69764651072635
H           -2.25927865963850        2.59442231677797        0.99589104462611
H           -0.68334895421704       -3.11481294398365        0.93569292763236
H           -0.66508807261674       -3.25894809704126       -0.83895443614722
H           -2.22376550917504       -3.10237902568166        0.01646895271235
H            0.93784569491140       -2.88581239019353        0.07640053256410
25
 energy: 24.323620711408 xtb: 6.6.1 (8d0f1dd)
C            2.95082332623178        1.21090190745804        0.40238394917753
N            2.23730565534263        0.05397224294224       -0.12571654865406
C            2.46685495773932       -1.29754421668478        0.06210931806039
N            1.25073829238014       -1.95073862899135       -0.02683360242852
C            0.28519404981696       -1.04237644969139       -0.18221939182919
C            0.84938255463692        0.20186775240267       -0.31098046298225
C            0.03364022489163        1.31013760621631       -0.52141774234613
O            0.50011194433713        2.44462096844143       -0.78790734132527
N           -1.32441117643113        1.04661895029867       -0.22715868931693
C           -1.97645543632265        2.35336483780835       -0.02306477947861
C           -1.93214108400360       -0.20247678535379       -0.10685611056394
O           -3.11777246645007       -0.41755812838667        0.03996523242961
N           -1.03909747758476       -1.33272442419956       -0.15732715633175
C           -1.18186896202539       -2.77924431764486        0.00519590760528
H            3.95293955319412        0.88712796865485        0.71961421725595
H            2.98760040751937        1.98872718898858       -0.40569021406560
H            2.38793693095510        1.69160930477171        1.25790944440622
H            3.30369681860332       -1.95078239465128       -0.07114420293456
H           -1.18573011581270        3.05803460452895       -0.36991572885021
H           -2.87933943731188        2.54343022688089       -0.61193467154851
H           -2.15550145983684        2.59885458083452        1.04052274624801
H           -0.66596094697802       -3.08991861688770        0.93565080839162
H           -0.64581420663612       -3.26412504994486       -0.82863479585139
H           -2.19330488912260       -3.15795740468866        0.02730503717289
H            1.00338761080251       -2.91479312092989        0.09317867390666
25
 energy: 22.867565250443 xtb: 6.6.1 (8d0f1dd)
C            2.89486459549553        1.19660448870133        0.45040976310571
N            2.21582479051938        0.06407245427860       -0.16024418071148
C            2.47484942263591       -1.29569785901666        0.10839349585022
N            1.26271435382968       -1.96137016839363       -0.02350095202506
C            0.28603939266910       -1.06865238315566       -0.22354445485513
C            0.83386874825749        0.17921322025453       -0.36366816011800
C            0.03275609479212        1.30451492284586       -0.61186406144212
O            0.49854803039025        2.41734737901843       -0.93168860510680
N           -1.30676758924540        1.06470327786066       -0.25038161278314
C           -1.94395132960399        2.36919930238097       -0.00563648198464
C           -1.91671210847093       -0.17863787617890       -0.10928865201512
O           -3.10839991166535       -0.34198615684961        0.06785215534982
N           -1.05154042367275       -1.33604962584543       -0.19773060746582
C           -1.18945395047275       -2.77470523414322        0.00584780847113
H            3.92901124126816        0.86080813553709        0.66206929383518
H            2.84243263149546        2.05109754252506       -0.29573513725663
H            2.36880404343785        1.57386340418040        1.39894770570423
H            3.34312096135159       -1.89309207922426       -0.11345686341359
H           -1.19465783229058        3.06997274473831       -0.40768431197256
H           -2.89559029654488        2.54102791950762       -0.52404360632890
H           -2.04715804533865        2.59570766078150        1.07162852846998
H           -0.66821429535584       -3.05172941744507        0.94135925070553
H           -0.64475148869673       -3.26543361775809       -0.81624936807201
H           -2.17894585351521       -3.19421290293744        0.03883079624619
H            1.07552348666565       -2.93753652948995        0.11641215396018
25