72
 energy: 8.958793892188 xtb: 6.6.1 (8d0f1dd)
N           -1.59518804177074        2.91819857894739        2.26718905752279
C           -1.61089718403032        2.15492332364180        1.26564072178854
C           -2.76231729090967        2.03229555654602        0.30321049349735
C           -3.32151343907043        0.61795680368220        0.37710909144714
C           -4.28454682884296        0.18698556502143       -0.53642434368739
C           -4.82355784120498       -1.08535259535880       -0.48069834142814
O           -5.77202878964579       -1.57698961042163       -1.33598451069204
C           -6.30723909089205       -0.70202913264677       -2.29757633738876
C           -4.39387009934132       -1.98542170022149        0.51658112889879
O           -4.97849208754380       -3.22027079956320        0.48800041119077
C           -4.63642846056250       -4.12557215301441        1.50195776383457
C           -3.43450674915807       -1.56139055641142        1.41387282107167
C           -2.91277670436949       -0.27518436586201        1.34456403569814
C           -2.18885615377001        2.28917409042167       -1.12255254759993
C           -1.23796293732093        1.20762657863671       -1.69631417063698
C            0.09786148887125        1.18585702730916       -1.02342280085824
N            0.73975058458727       -0.00454225271333       -0.61112627535671
C            2.12859087397331        0.04336307221540       -0.28444294803103
C            3.02406678224502       -0.29668261988765       -1.50371270794019
C            4.44136949274224       -0.25005517942960       -1.09247979925996
C            5.25016103435792        0.85750130772557       -1.13098787191434
C            6.54730335159213        0.82731002168509       -0.62556657609302
C            7.04911327087784       -0.31664306354590        0.00329191523636
O            8.33353562610960       -0.41038061119737        0.51165346865597
C            9.19330863169491        0.70405340259082        0.35523095495291
C            6.09575680372934       -1.36513356442999        0.17373270966194
O            6.27699005932919       -2.33176134276052        1.10676767029746
C            5.61056497024613       -3.50876238270578        1.29601811641334
C            4.90800583574509       -1.36694314998572       -0.46723191887440
C            0.12050173871416       -1.30315274978499       -0.72648601932683
C           -3.91967927087599        3.03071516619916        0.59063125830463
C           -4.55017782201427        2.73570217670803        1.95379619691769
C           -3.44786184476842        4.48771509460948        0.54330860001743
H           -4.60394497426835        0.86629201445027       -1.31047659838385
H           -6.76449230998730        0.17897166003108       -1.83347431217517
H           -7.06754524117591       -1.27537316543088       -2.82565106115857
H           -5.55285620518034       -0.36815618825583       -3.01829073115341
H           -4.86636329935224       -3.71982223918963        2.49232859579338
H           -5.24806767024979       -5.00631615901321        1.30917878872770
H           -3.57475394898694       -4.39807410347026        1.46750401214889
H           -3.07338604313502       -2.22814367532423        2.18170637591501
H           -2.17559095781079        0.02801835771707        2.06893368838689
H           -3.03993660548974        2.41430663362687       -1.79915388163173
H           -1.63782053015113        3.23098440575591       -1.11870534792092
H           -1.69922791909829        0.22255502931130       -1.62076615976610
H           -1.13831982486943        1.42603007686555       -2.77377986483300
H           -0.74946049387894        1.55449190958293        0.92668503331798
H            0.78783023346896        1.98551170336773       -1.24768313572356
H            2.34124933585017       -0.64954782961438        0.55641211581467
H            2.36807436816449        1.06193809399495        0.04912279302609
H            2.82912711247510        0.42818153242294       -2.29322758861584
H            2.77782022321244       -1.30551105381455       -1.84567008070501
H            4.85988282359503        1.75154556529043       -1.58559264584933
H            7.14428941395512        1.72870852252841       -0.71323028256683
H            8.81477395962076        1.59462887700458        0.87669785029858
H            9.35045783096728        0.95674021612342       -0.70060213380760
H           10.15725341182867        0.41125633487648        0.78537079264940
H            6.26956335519932       -4.15535553003592        1.89200844007385
H            4.71632494684585       -3.22841149340803        1.86897148137836
H            5.40440302859352       -4.03161526038271        0.36139556078143
H            4.27845231653888       -2.22567548388592       -0.35734878212309
H           -0.02309002517655       -1.63064848311548       -1.76682039752951
H           -0.86104660022165       -1.30577387470413       -0.23739872597562
H            0.76299941461733       -2.04816737606370       -0.24496919499760
H           -4.68633936729105        2.88683499326179       -0.18368644312183
H           -3.78382878544484        2.87753567979571        2.70608982170239
H           -4.92027085230777        1.71191248004188        2.01537034184431
H           -5.37556331040019        3.41588752787782        2.15378122889533
H           -2.63752972442421        4.64084551644563        1.25748300606555
H           -3.08942516847291        4.76202137768073       -0.44699213089902
H           -4.28114059696614        5.14170111254716        0.79869788260691
H           -0.71888487429179        2.86940939072471        2.77512121096769
