25
 energy: -42.132057969091 gnorm: 0.003310426523 xtb: 6.6.1 (8d0f1dd)
C            3.23484777612480        1.22997392388573        0.01655621712131
N            2.26380209510609        0.17425493884443        0.00332018294885
C            2.49918985110048       -1.15965157157970        0.00084897514792
N            1.39855664814819       -1.87762387651712       -0.00012966421629
C            0.38376745358941       -0.98598190638651        0.00266942685408
C            0.91039480586091        0.31631959749481        0.00581085859777
C            0.06191015357988        1.48294297439654       -0.00194079301398
O            0.43968889526493        2.63366140674405       -0.01129806561482
N           -1.28798420573338        1.13619673246820       -0.00012319447353
C           -2.25858287231719        2.21596743092323       -0.00325804608577
C           -1.83063199092756       -0.14362700163374        0.00060604335077
O           -3.02102313605214       -0.31587150767586        0.00023887692688
N           -0.93967562309950       -1.22403586518126        0.00100539768126
C           -1.46517866576736       -2.56833620218279       -0.00392149944272
H            3.76454306624665        1.24551608836600        0.97180493307167
H            3.96349477383784        1.08102757213912       -0.78126034559418
H            2.72600011949263        2.18370863222359       -0.12210887304871
H            3.48513133768249       -1.58412239810610       -0.00097926613090
H           -1.71858731372960        3.16134941857173        0.00319234805135
H           -2.89143895356419        2.14693351689682       -0.88970720355041
H           -2.90313762020881        2.14041315911448        0.87410148352229
H           -1.10962216715648       -3.10744500445989        0.87533713986919
H           -1.12762402829633       -3.09458646138569       -0.89806327123598
H           -2.55316485072362       -2.51074652851467        0.00667271303805
H            1.13575596564336       -4.75799852684779       -0.01820275587394
