72
 energy: -103.313248534443 gnorm: 0.068804597977 xtb: 6.6.1 (8d0f1dd)
N           -1.49857641715322        2.78846202827726        2.24258398895185
C           -1.57745868318638        2.15188706900417        1.17923478923348
C           -2.75574007520475        2.04795514821444        0.28505189327336
C           -3.32937508450373        0.64322648148889        0.34583483481797
C           -4.31861187140827        0.24413725336113       -0.55744226380064
C           -4.86199417135847       -1.02748789820440       -0.51991636907909
O           -5.83030821697985       -1.49158770370542       -1.35090262317201
C           -6.42086266309191       -0.60646164201233       -2.26939127228253
C           -4.40029148258233       -1.96211143920335        0.43944362338194
O           -4.98711722145026       -3.17774769632022        0.39835871689517
C           -4.65013749913571       -4.12307557608049        1.38359680606948
C           -3.42143332793980       -1.56299670924333        1.33028783786964
C           -2.89415976436947       -0.27211767627961        1.28462771586934
C           -2.11604568206447        2.31295140464609       -1.13363470750256
C           -1.24890523389307        1.18846025290833       -1.68677554665352
C            0.04035977984656        1.15151497019566       -0.94452189141009
N            0.65578517265173       -0.04371698068361       -0.56815917275263
C            2.01769719935236       -0.02631563881015       -0.16366730718457
C            2.93789410783332       -0.53868627929004       -1.27810615167088
C            4.36628315893417       -0.43231269726397       -0.83781269467675
C            5.08223684756580        0.73225560736189       -1.03908328245650
C            6.39227995819479        0.84116804652639       -0.59820387252841
C            7.00493303384809       -0.21250910812367        0.06179772775381
O            8.27624098295390       -0.21587953022739        0.52693028223505
C            9.07734496465614        0.92081039333528        0.31822834432374
C            6.27417955664978       -1.40401232382221        0.28500275326543
O            6.95194573780724       -2.38479980909100        0.93204752695390
C            6.31200325167270       -3.61747601391650        1.15603865144279
C            4.96962283504851       -1.49314158991555       -0.16070322008624
C           -0.04386735328277       -1.29003482904465       -0.63125917520496
C           -3.88653863056675        3.06914606873456        0.58121204689111
C           -4.51152799288838        2.81002373533041        1.94798251168248
C           -3.40145434312529        4.51071539984051        0.51341862000049
H           -4.68285756877020        0.94686580250838       -1.28573539261374
H           -6.87325036139404        0.25347953032557       -1.76608486360172
H           -7.19887311112493       -1.18204595595908       -2.76806058107966
H           -5.69863296366134       -0.25493649148993       -3.01328581221378
H           -4.86237130852671       -3.74918679223041        2.38785779013663
H           -5.27670469506521       -4.98980367003474        1.18103215810097
H           -3.59627543455977       -4.41464786503671        1.31944246494834
H           -3.05924381107162       -2.24000307649082        2.08419894151245
H           -2.14645525837837       -0.00023305502040        2.01218995807408
H           -2.92593506072855        2.43544033074125       -1.81777647125432
H           -1.55244867807213        3.24169411959601       -1.17582628287324
H           -1.79637653572810        0.25619667905353       -1.63943891361003
H           -1.01285926632520        1.38908869119487       -2.73264992446861
H           -0.70389800207939        1.63081936294952        0.69047304702079
H            0.67188089017944        1.98600062104082       -1.00561614692444
H            2.12816325131581       -0.64922409715924        0.73187972143104
H            2.30155011217309        0.99368563519480        0.09751140849116
H            2.77568073852290        0.06848352226728       -2.16914710994850
H            2.68706131754142       -1.57175442902857       -1.50584967022602
H            4.62868852062643        1.56510102556982       -1.55526688654322
H            6.93055060213537        1.75619398322639       -0.78518213372578
H            8.66234769886287        1.80176966692062        0.81661214070888
H            9.20620965793810        1.13146202559791       -0.74855202502674
H           10.04471114294108        0.68055561824085        0.75715040652873
H            7.05158293109021       -4.24073374517037        1.65554374766429
H            5.43495750702342       -3.50648724178514        1.80192576004142
H            6.01484877824906       -4.09351865212667        0.21495487038620
H            4.40187298780665       -2.39742109848271       -0.00170450208193
H           -0.19953712947664       -1.62040554606038       -1.66238743001352
H           -1.02107623202168       -1.22279522777189       -0.13081007230916
H            0.54346691489522       -2.04123763205319       -0.10530902494028
H           -4.66735409962830        2.93730028978959       -0.17646266543574
H           -3.77023979574208        2.95522500311774        2.72693343912278
H           -4.89944858613017        1.80017657930425        2.01220442163823
H           -5.33383070371510        3.49884559445495        2.11252388740992
H           -2.60555206938926        4.67674909645953        1.23479416263555
H           -3.04215862394675        4.76638330621723       -0.47680030721138
H           -4.22840460356441        5.17545583333622        0.75084827566173
H           -0.62245847601045        2.81054634933453        2.74704589268956
72
 energy: -103.315452993920 gnorm: 0.031355315651 xtb: 6.6.1 (8d0f1dd)
N           -1.51025556941906        2.80834514024679        2.25565478697235
C           -1.57217716605500        2.14906082796245        1.19199231496758
C           -2.74610903672890        2.05137627179267        0.27321148751114
C           -3.32142616818931        0.64461529192203        0.33774351762460
C           -4.31674662453307        0.24641476218081       -0.55865772422844
C           -4.85969346291316       -1.02444637255346       -0.52014024166686
O           -5.83182139948802       -1.49055878123243       -1.35104148718542
C           -6.41978228014610       -0.60497788533709       -2.26977514866302
C           -4.40106255711492       -1.95595761537543        0.44100227216640
O           -4.98907956226129       -3.17861039768550        0.39827922302868
C           -4.64923659974371       -4.12256842652831        1.38310876632023
C           -3.42365795174426       -1.55696322562492        1.33214580141466
C           -2.89292102670595       -0.27027810836248        1.28149334525103
C           -2.15761627809610        2.31228937819176       -1.15575493274760
C           -1.25083699634017        1.19308129460766       -1.68171073939832
C            0.03795026712656        1.14194652683153       -0.93588268339583
N            0.64943277239292       -0.04679615318885       -0.55997794124329
C            2.01779195712149       -0.03401949904401       -0.16229305531454
C            2.94622696965867       -0.54153852663190       -1.28022489810089
C            4.37322532575319       -0.43577347008348       -0.84421391432633
C            5.08794007320101        0.72966333360111       -1.04228132298195
C            6.39671233775986        0.84012819092248       -0.59720299937011
C            7.00768665558892       -0.21275222662278        0.06243992724765
O            8.28371640355846       -0.21734310690791        0.53021112721240
C            9.07927834728182        0.92144241176296        0.31891743844010
C            6.27795621487908       -1.40385951395900        0.28406639776770
O            6.95620783005004       -2.38680491593885        0.93533413148661
C            6.31284452811787       -3.61686619446843        1.15626979664040
C            4.97505010740868       -1.49457014806783       -0.16522245727451
C           -0.04424224001385       -1.29701887693035       -0.62686994219811
C           -3.88026797787665        3.06847044515792        0.57895764810553
C           -4.51022601415171        2.80660622722203        1.94587391539775
C           -3.40248245859383        4.51518153709342        0.51226656488073
H           -4.67692833163627        0.94859124253506       -1.29163590866257
H           -6.87220716551446        0.25574880401088       -1.76659841828724
H           -7.19810170774357       -1.17948547881259       -2.76968550285751
H           -5.69687160479066       -0.25349730390997       -3.01368026477900
H           -4.86126556005229       -3.74816351340882        2.38920107296723
H           -5.27424051560707       -4.99115450255986        1.18208985262150
H           -3.59499122194085       -4.41302852779954        1.31876576885408
H           -3.05870099969787       -2.23760592620439        2.08439923653460
H           -2.14612854043179        0.00437879163959        2.00962667554317
H           -2.97901835544593        2.45050242812750       -1.84968601999936
H           -1.57583597172597        3.23638793890508       -1.14427824246571
H           -1.78701132129466        0.24979359966009       -1.63316925691533
H           -1.04141923923230        1.40222949518779       -2.73960477477937
H           -0.69983866250910        1.62153442696036        0.72438808118747
H            0.68995112244480        1.98548514237840       -1.01799475373005
H            2.14428470963481       -0.65806375115828        0.73118168525950
H            2.30383684885585        0.98700850159239        0.09888826846157
H            2.77523909258691        0.06734838720075       -2.16927188331307
H            2.69070844318050       -1.57529978224169       -1.51095969143785
H            4.63197132951550        1.56270014325426       -1.55644024319908
H            6.93424372027473        1.75661911171200       -0.78058114782210
H            8.66223547264856        1.80310064912214        0.81640157488980
H            9.20619768902788        1.13233983610327       -0.74831610257558
H           10.04746133778497        0.68434846989166        0.75698934739356
H            7.04923074783000       -4.24308422454972        1.65713730008013
H            5.43456029394743       -3.50481366372575        1.80081825451680
H            6.01469213373909       -4.09177738417565        0.21514363511153
H            4.40536853932062       -2.39707803456010       -0.00433914210653
H           -0.20071803683703       -1.62602293513056       -1.66018451039840
H           -1.02018164280252       -1.22497808145085       -0.13361765540453
H            0.54354871191448       -2.05138758610777       -0.10586527086202
H           -4.65881723202904        2.93364835064798       -0.18159999274880
H           -3.76730569620162        2.95159523814483        2.72343295507013
H           -4.89655618124175        1.79314906505880        2.01076397708146
H           -5.33331421069933        3.49829631223062        2.11209277600025
H           -2.60724591073360        4.67687214931863        1.23399955264826
H           -3.04169412401312        4.77234175135258       -0.47918370689572
H           -4.22851965606505        5.18090352114037        0.75285456836394
H           -0.62726517522297        2.81692595319647        2.75607433086519
72
 energy: -103.316563421368 gnorm: 0.013590310163 xtb: 6.6.1 (8d0f1dd)
N           -1.50324025049772        2.80277843138139        2.25089442876482
C           -1.56692198208025        2.14206360733880        1.18451772975201
C           -2.74621672811729        2.05222141778768        0.26823782248703
C           -3.32486538143777        0.64398205195931        0.34110198041092
C           -4.32026360968645        0.24469215951388       -0.55446961621709
C           -4.85956786843828       -1.02719285562426       -0.51914192134985
O           -5.83296105797479       -1.49408531994696       -1.35097059007941
C           -6.42106279085110       -0.60809801001619       -2.26850023390622
C           -4.39933231611535       -1.95832413423408        0.43954420902266
O           -4.98940766531497       -3.18363717312747        0.39631908165122
C           -4.65066961352048       -4.12511355721928        1.38266763208780
C           -3.42288989095866       -1.56045010338681        1.33150787421776
C           -2.89623313905285       -0.27319686543946        1.28421714705711
C           -2.13529462894423        2.31260639944199       -1.14721235061875
C           -1.23924422810183        1.18948628151648       -1.68540989378853
C            0.04111433917503        1.14113720537955       -0.93687281834954
N            0.64808313494950       -0.04093185520739       -0.55888183990175
C            2.01506938617063       -0.02675818899629       -0.15875394891028
C            2.94339952121594       -0.53841527476045       -1.27770245167436
C            4.36673977247932       -0.43259449607251       -0.83871359754967
C            5.08141949440176        0.73246649500492       -1.03891993630912
C            6.39134766413064        0.84171543846125       -0.59768136072217
C            7.00114434611527       -0.21133087596125        0.06105474233329
O            8.28015653161926       -0.21826999291554        0.52844366505486
C            9.07619279710017        0.91932211078872        0.31770869812217
C            6.27177021719285       -1.40147194971484        0.28492740689323
O            6.95315673386331       -2.38606934682312        0.93436321074213
C            6.31237293215130       -3.61654517413546        1.15516074874324
C            4.96784050568770       -1.49174006698733       -0.16030569113062
C           -0.04360118335000       -1.29229721345932       -0.62786573886314
C           -3.88245772766543        3.06753267239455        0.58162546784132
C           -4.51327242651181        2.81032327214128        1.94973440600500
C           -3.40193474754830        4.51335750629929        0.51372342827503
H           -4.68334512538859        0.94824140739065       -1.28525281849591
H           -6.87411258932540        0.25234210299041       -1.76491157760552
H           -7.19941550544179       -1.18275969468302       -2.76839547242346
H           -5.69900238907623       -0.25552476134573       -3.01297918104596
H           -4.86344755866974       -3.74910265426167        2.38875875047184
H           -5.27701128583487       -4.99284097678738        1.18222118992186
H           -3.59664280218596       -4.41678959889253        1.31996699276754
H           -3.05844759004105       -2.24279706497368        2.08367271995891
H           -2.14829457880552        0.00084324457891        2.01197586679110
H           -2.95361647175743        2.44919061565210       -1.84419257626131
H           -1.54360765035929        3.23313074441473       -1.14771161361175
H           -1.78354271523053        0.24856232090204       -1.63854269937606
H           -1.02480853574096        1.39718917092273       -2.74505563856288
H           -0.70106771491247        1.63345100313062        0.69974122527639
H            0.69212599704646        1.99474973821804       -1.01451879065544
H            2.13656347759737       -0.64809809093242        0.73647870850850
H            2.30108075561977        0.99609134932281        0.09877783000711
H            2.77261522666347        0.06887156247597       -2.16832356764021
H            2.68425995736495       -1.57276107820590       -1.50597583872021
H            4.62517343726237        1.56474779004021       -1.55434899049278
H            6.92983548018800        1.75684554307638       -0.78509044874228
H            8.66113650854773        1.80184780157778        0.81613010484316
H            9.20451314548006        1.13128542731887       -0.74926240192257
H           10.04352642842596        0.67993687376252        0.75618051388616
H            7.05118352525548       -4.24112718531362        1.65471969359422
H            5.43502556823320       -3.50727507552487        1.80189367914205
H            6.01368020876429       -4.09274983979675        0.21487146890325
H            4.39845800315314       -2.39464886578520       -0.00013283092480
H           -0.19807006624634       -1.62114628622061       -1.66269282967436
H           -1.01888644743797       -1.21957264810889       -0.13661800272791
H            0.54494194153850       -2.04464709082855       -0.10629613560626
H           -4.66410588812459        2.93504617509766       -0.17701850175002
H           -3.77129728961757        2.95601197521340        2.72799169831419
H           -4.90180157467150        1.79724123377159        2.01550278896719
H           -5.33603090771195        3.50384029468071        2.11355230859381
H           -2.60656964856378        4.67481095532897        1.23507442542098
H           -3.04112891899035        4.76655476730323       -0.47919492016962
H           -4.22824594207135        5.17896567429171        0.75236334893467
H           -0.61025905599968        2.79820735334628        2.73756923056593
72
 energy: -103.316562201242 gnorm: 0.012990576036 xtb: 6.6.1 (8d0f1dd)
N           -1.51904572385954        2.81064493370573        2.25496730017801
C           -1.57074925895739        2.14937995114992        1.18831628451161
C           -2.75023382136244        2.05403921714466        0.27355185682601
C           -3.32630371660841        0.64471775210815        0.34389154305099
C           -4.31735921418451        0.24486313047653       -0.55606137039136
C           -4.85862850072755       -1.02574999261264       -0.51961454795764
O           -5.83239636196245       -1.49138663732192       -1.35225003907764
C           -6.41881754881435       -0.60476868724094       -2.26991035240990
C           -4.39906653369507       -1.95555437959149        0.43982858816877
O           -4.99016394737113       -3.18098631175495        0.39750762177178
C           -4.64890746112256       -4.12149233067702        1.38284228980895
C           -3.42136368760661       -1.55962756880169        1.33140808818812
C           -2.89501105735560       -0.27290527318166        1.28506474024556
C           -2.13109248703597        2.31441732131618       -1.13571657445068
C           -1.24559399669703        1.18703699031740       -1.67957333696110
C            0.03446630838328        1.13666648397029       -0.93598466361695
N            0.64714770511361       -0.04332135537644       -0.56416356006468
C            2.01471462881797       -0.03052529380250       -0.16508409953399
C            2.94708777407550       -0.54061736067541       -1.28214214520167
C            4.36995846737853       -0.43459666398366       -0.84071236385693
C            5.08578645701627        0.73057773588564       -1.04059744258419
C            6.39546613405255        0.84028727420068       -0.59844881811506
C            7.00476967233970       -0.21245135850196        0.06044395976110
O            8.28386826049959       -0.21737457550433        0.52976944960766
C            9.07889600743400        0.92074997464447        0.31945178002673
C            6.27623150416729       -1.40316844084359        0.28255436537348
O            6.95632795845075       -2.38770959883639        0.93405848751216
C            6.31352024970174       -3.61652605224324        1.15588708798918
C            4.97273276462642       -1.49465033668331       -0.16391827091130
C           -0.04516475579114       -1.29515376513663       -0.62868089875878
C           -3.88603898776262        3.07006122555723        0.57973529562502
C           -4.51074982632176        2.80742380659871        1.94790630366084
C           -3.40289773010872        4.51483889941266        0.51339613712342
H           -4.67848150752005        0.94790305996774       -1.28834510042404
H           -6.87134261271591        0.25652266777339       -1.76728203588185
H           -7.19771568207407       -1.17877733414073       -2.76974495612646
H           -5.69636161663165       -0.25307471411132       -3.01439749985577
H           -4.86071998864544       -3.74700812892683        2.38956401621608
H           -5.27497247918342       -4.98918793060940        1.18217081194052
H           -3.59468783772759       -4.41208289003789        1.31863338146567
H           -3.05974097958695       -2.24063703973295        2.08563888650950
H           -2.14569423769812        0.00135424498642        2.01170210769700
H           -2.94980096773001        2.43384998117620       -1.82766083677976
H           -1.55596648415080        3.24277431006532       -1.16869067765050
H           -1.79909574667643        0.25151935232586       -1.63384592529962
H           -1.02602875666202        1.39141415367545       -2.73759312472251
H           -0.70752728289412        1.63287393386236        0.71034896386132
H            0.67799863838962        1.99372448882927       -1.00822787191466
H            2.13199091429231       -0.65503780779412        0.72772466683645
H            2.30193664028741        0.99071035761144        0.09595026821475
H            2.77785048317568        0.06745971603039       -2.17231416699339
H            2.68944849129059       -1.57486086196245       -1.51145133957353
H            4.63132579946731        1.56284204381044       -1.55742639239398
H            6.93331681578775        1.75613105345646       -0.78397432904388
H            8.66305718950002        1.80328758329692        0.81720590243298
H            9.20834093392351        1.13270222698262       -0.74742418629633
H           10.04650922601572        0.68314882671663        0.75865256213990
H            7.05061065570716       -4.24155410138734        1.65763286092047
H            5.43514547207493       -3.50514274212605        1.80120032323977
H            6.01581576927932       -4.09399959034372        0.21584428069642
H            4.40560187007960       -2.39940564713030       -0.00619208222862
H           -0.20261088963189       -1.62509627277854       -1.66276253389878
H           -1.01820092395577       -1.22476453193566       -0.13170265497442
H            0.54552359073936       -2.04536951335004       -0.10756094267375
H           -4.66766872026767        2.93721573794700       -0.17895238396786
H           -3.76737965290906        2.95234555992620        2.72489384744536
H           -4.89705337965809        1.79400106728360        2.00993826548721
H           -5.33482856177490        3.49747829606283        2.11338505199607
H           -2.60750025522309        4.67724729316371        1.23464336087269
H           -3.04235144660848        4.76895878555301       -0.47891690813703
H           -4.23012360098402        5.17871258537513        0.75122021312589
H           -0.62827660479233        2.80800987529905        2.74566888075181
72
 energy: -103.316912853144 gnorm: 0.005218859915 xtb: 6.6.1 (8d0f1dd)
N           -1.50941334107309        2.80447154649608        2.25280662609723
C           -1.56439648860271        2.14427291252384        1.18628782898840
C           -2.74690364393277        2.05130403158411        0.27330792388653
C           -3.32451643255036        0.64309575580584        0.34065189879047
C           -4.31787426566201        0.24426258111373       -0.55732868704324
C           -4.85974271385302       -1.02647016674431       -0.51935992564692
O           -5.83346932032612       -1.49281951380825       -1.35127392442126
C           -6.42112800447154       -0.60710768853043       -2.26874416072118
C           -4.39968460782047       -1.95618169434397        0.44003339227880
O           -4.99014845271824       -3.18186800637055        0.39775188999591
C           -4.65004394397060       -4.12337090496301        1.38256888204374
C           -3.42166736998795       -1.55969301915535        1.33112707804727
C           -2.89366273598449       -0.27357802355506        1.28250088931085
C           -2.13906342030000        2.31381836550803       -1.14095663958141
C           -1.24422509153753        1.19180452293170       -1.68326577701055
C            0.03802453885034        1.13906815137846       -0.94014155343738
N            0.64913952050109       -0.04124990121553       -0.56214208056465
C            2.01596063461425       -0.02898364955926       -0.16019419430107
C            2.94507494980233       -0.53978365358552       -1.27868440198048
C            4.36856697125366       -0.43378451511241       -0.83974927035238
C            5.08431328987473        0.73141583011082       -1.03978709568176
C            6.39380611014299        0.84120066216356       -0.59710763795655
C            7.00293249381479       -0.21188023355779        0.06169969245240
O            8.28221734460437       -0.21732022183148        0.52971267781662
C            9.07722973174722        0.92026480015802        0.31778108551550
C            6.27425001066679       -1.40220686957178        0.28456848773533
O            6.95433322662490       -2.38706069053493        0.93520400090343
C            6.31201324663299       -3.61634030726239        1.15549441178788
C            4.97072189115576       -1.49333613055155       -0.16163189446968
C           -0.04418728831793       -1.29291199781939       -0.62714078593825
C           -3.88145298267851        3.06821372524538        0.58068221868034
C           -4.51034840576410        2.80875116762161        1.94767848505964
C           -3.40043804106090        4.51367701621591        0.51354271648992
H           -4.68011245241140        0.94753946594165       -1.28881861610265
H           -6.87438723050582        0.25353797885152       -1.76577401939606
H           -7.19945153009515       -1.18210007738388       -2.76837737977961
H           -5.69910830795633       -0.25476302102940       -3.01327959149662
H           -4.86272799866869       -3.74964967507664        2.38921785491795
H           -5.27594088380883       -4.99115538924122        1.18119889539984
H           -3.59598581498778       -4.41474972143902        1.31941249389462
H           -3.05877820975085       -2.24031264394759        2.08466584618573
H           -2.14581390028421        0.00226894628310        2.00994854995919
H           -2.95572162009638        2.44227959320961       -1.83581394590505
H           -1.56361630406547        3.24155509625132       -1.15855058097935
H           -1.79179019537241        0.25328150085555       -1.64019608522053
H           -1.02735217731940        1.40021284319423       -2.74063670947639
H           -0.70259385343092        1.62396269608094        0.70938812509343
H            0.68390059495159        1.99244378228339       -1.01483907331060
H            2.13570337787269       -0.65258928209566        0.73315451887231
H            2.30357068841460        0.99223940638419        0.09950012110164
H            2.77373322749753        0.06828519871036       -2.16828812816101
H            2.68699876623975       -1.57393204535316       -1.50684224237133
H            4.62906960860722        1.56432193009019       -1.55489516246907
H            6.93161350490612        1.75709436310790       -0.78228913825001
H            8.66198089213791        1.80283912520431        0.81583028678569
H            9.20475763249008        1.13169128325474       -0.74943790636194
H           10.04550978727492        0.68248770590271        0.75556364758270
H            7.04962098366332       -4.24224683327697        1.65545406116210
H            5.43406037256457       -3.50628992925375        1.80156313771694
H            6.01364540572228       -4.09204429863011        0.21472464253141
H            4.40203895438114       -2.39649671876874       -0.00087846750698
H           -0.19821866764224       -1.62289002104020       -1.66138571147834
H           -1.01971180217523       -1.22145213419913       -0.13444991710544
H            0.54331100603094       -2.04455707551954       -0.10409778509345
H           -4.66141270495340        2.93462877088654       -0.17920953374911
H           -3.76908963638672        2.95434219899997        2.72620346702721
H           -4.89872346868593        1.79645106991327        2.01196179841073
H           -5.33351401178909        3.50043369479998        2.11058762038163
H           -2.60513500891228        4.67630177104533        1.23465420621883
H           -3.04039758061194        4.76875745723260       -0.47857177009193
H           -4.22749105154380        5.17767567850939        0.75201785915751
H           -0.61692625195331        2.80425023700667        2.74096787368318
72
 energy: -103.316835660989 gnorm: 0.007225330592 xtb: 6.6.1 (8d0f1dd)
N           -1.51379188262226        2.80736815423732        2.25383105956046
C           -1.56718254757571        2.14650823271292        1.18731687533324
C           -2.74827052419657        2.05312223192676        0.27122526512165
C           -3.32596607924741        0.64483399726144        0.34149992588889
C           -4.31962582778094        0.24578629737036       -0.55567979204304
C           -4.85964144751019       -1.02597507937256       -0.51916730628172
O           -5.83223069486133       -1.49240139570652       -1.35226057025097
C           -6.41879365056898       -0.60599722251790       -2.26963211326376
C           -4.39940998965971       -1.95603509790073        0.43961341418040
O           -4.98895113741025       -3.18245951051057        0.39685339416154
C           -4.64952694540656       -4.12314700236117        1.38261267471117
C           -3.42316870614510       -1.55872470316100        1.33219172159304
C           -2.89646563497007       -0.27176876411433        1.28460784663055
C           -2.13883557839934        2.31134999409024       -1.14388818150863
C           -1.24237662751430        1.18761261391590       -1.68161779774080
C            0.04029560123460        1.13748957828795       -0.93826919531446
N            0.65001109541551       -0.04327353465089       -0.56038912143363
C            2.01704467487495       -0.02998684047562       -0.16058291154355
C            2.94516115421938       -0.53992038287494       -1.28055882635228