25
 energy: -52.633425969166 gnorm: 6.440718750780 xtb: 6.6.1 (8d0f1dd)
C            3.21786164340000        1.13591514650000        0.01837059260000
N            2.27034809790000        0.05199982890000        0.00038279530000
C            2.54167221030000       -1.23971668410000       -0.00834188300000
N            1.39367826450000       -1.95088267900000       -0.00850347120000
C            0.35269634020000       -1.06748964300000        0.00059917290000
C            0.90759959010000        0.20069750900000        0.00663590170000
C            0.07590235260000        1.39864294500000       -0.00284827040000
O            0.48715076820000        2.53168346660000       -0.01725767220000
N           -1.27221500230000        1.06666939660000        0.00165480230000
C           -2.23229981500000        2.16656245330000       -0.00245172030000
C           -1.84872931540000       -0.19179276200000        0.00496135950000
O           -3.03273030250000       -0.36103538130000        0.00858583760000
N           -0.96599111670000       -1.30060631840000        0.00174701630000
C           -1.52030655580000       -2.64076660390000       -0.00239033190000
H            3.71480285180000        1.18589984860000        0.98803183970000
H            3.97079415090000        0.99383197990000       -0.75543416370000
H            2.68321036910000        2.07051068580000       -0.15067179540000
H            3.52469367910000       -1.66989040330000       -0.01523639120000
H           -1.67672429040000        3.10039111610000        0.00486339690000
H           -2.85755792270000        2.10547813320000       -0.89185337000000
H           -2.87119733260000        2.09858159720000        0.87661144540000
H           -1.20589108080000       -3.18768007210000        0.88663215920000
H           -1.21982032550000       -3.17678505510000       -0.90288069810000
H           -2.60531402170000       -2.54255916880000        0.00649952960000
H            1.32879827740000       -2.95942079410000       -0.01653446370000
25
 energy: -60.009597992310 gnorm: 8.330653586650 xtb: 6.6.1 (8d0f1dd)
C            3.21783987326822        1.13593467422374        0.01838393217651
N            2.27044529628770        0.05284501134144        0.00036697547633
C            2.54219830496767       -1.24025179469364       -0.00834305767699
N            1.39339001515632       -1.95124117487614       -0.00850312782131
C            0.35322113422895       -1.06749054839964        0.00059992751974
C            0.90727226867685        0.20116154231232        0.00663371364963
C            0.07602226124889        1.39796390568107       -0.00284180643863
O            0.48723132776997        2.53221452249413       -0.01726265939286
N           -1.27569578843527        1.06717384469538        0.00166515164772
C           -2.23239964909891        2.16646183475912       -0.00244930054672
C           -1.84480999605018       -0.20178093945430        0.00495309379646
O           -2.96260493685473       -0.72544748036831        0.00823269336248
N           -0.96239530306584       -1.29995798709888        0.00172554895210
C           -1.52452348261385       -2.63726987942292       -0.00235689350209
H            3.71481783349767        1.18592851664037        0.98805087890065
H            3.97079487731170        0.99385658643743       -0.75544844275845
H            2.68321306972017        2.07052309352732       -0.15067437815360
H            3.52468808695222       -1.66987391583236       -0.01523644010819
H           -1.67671585886780        3.10041200251805        0.00486335161642
H           -2.85762190126959        2.10544033328438       -0.89186892052052
H           -2.87126263001900        2.09854251924750        0.87662644326134
H           -1.20659901229473       -3.18767880629612        0.88679465443230
H           -1.22051350832608       -3.17678103186946       -0.90302821242503
H           -2.67437374061890       -2.17306252921819        0.00682265571198
H            1.32881297252855       -2.95938375803228       -0.01653416325928
25
 energy: -69.208233740306 gnorm: 9.515884548727 xtb: 6.6.1 (8d0f1dd)
C            3.21782601221365        1.13597554933438        0.01839520687815
N            2.27053235040391        0.05352917065356        0.00035311596928
C            2.54259887313006       -1.24066287317516       -0.00834363096546
N            1.39327883145051       -1.95148093821830       -0.00850299154884
C            0.35391132503829       -1.06755087644696        0.00059941996876
C            0.90702882598461        0.20163406081338        0.00663204211041
C            0.07638601692847        1.39725730667762       -0.00283738497193
O            0.48706319485478        2.53251126458445       -0.01726408147022
N           -1.28006200816563        1.06656292512036        0.00168060440065
C           -2.23268854978764        2.16636733205070       -0.00244770184215
C           -1.84152660794774       -0.21192401514442        0.00494474517877
O           -2.89191582988505       -1.08930755891855        0.00787702090399
N           -0.95704771592338       -1.29962136809611        0.00169570717654
C           -1.52902894380431       -2.63359683778576       -0.00231896114215
H            3.71482593388042        1.18597088287191        0.98806653281434
H            3.97079072807407        0.99389761591468       -0.75545948741579
H            2.68321271508356        2.07054401364719       -0.15067681572466
H            3.52470583293364       -1.66984330409521       -0.01523663025199
H           -1.67674214560049        3.10042861837160        0.00486384615826
H           -2.85768950466213        2.10544156417094       -0.89190357309339
H           -2.87133229569921        2.09854232441092        0.87666054019945
H           -1.20752750338865       -3.18753120042827        0.88683654449431
H           -1.22142359495669       -3.17663339452294       -0.90305143581717
H           -2.74356769844108       -1.80290611038297        0.00714322012944
H            1.32882327238602       -2.95936560980703       -0.01653423423861
25
 energy: 81.310911734907 gnorm: 5993.573099933141 xtb: 6.6.1 (8d0f1dd)
C            3.21780282723199        1.13607167384524        0.01840897878964
N            2.27055790242843        0.05429905367151        0.00033686595393
C            2.54312519062879       -1.24107020119953       -0.00834435837938
N            1.39320945822621       -1.95178191719839       -0.00850405969628
C            0.35498826171888       -1.06772603074781        0.00059883521470
C            0.90679034366003        0.20215628811542        0.00663175940151
C            0.07695886325469        1.39645608335876       -0.00283301398890
O            0.48672083944004        2.53281543005339       -0.01726480110936
N           -1.28481363909241        1.06573291751717        0.00169601420668
C           -2.23305784025307        2.16627641286351       -0.00244556719153
C           -1.83735650102266       -0.22229588197319        0.00493484643643
O           -2.82250286994115       -1.45124376269893        0.00752089659392
N           -0.95165930387335       -1.29925308553688        0.00166751915636
C           -1.52933630170830       -2.63278599753253       -0.00231217511323
H            3.71481610299129        1.18605934352804        0.98808091831581
H            3.97076815200778        0.99398845893822       -0.75546950482922
H            2.68318508284147        2.07058929351508       -0.15067781088992
H            3.52474180136117       -1.66976715470368       -0.01523744186343
H           -1.67680976901276        3.10040744957975        0.00486526263936
H           -2.85777874586308        2.10543770678682       -0.89194247520632
H           -2.87142353360690        2.09853723141453        0.87670068462630
H           -1.20823840393093       -3.18743166382100        0.88694145499137
H           -1.22213047938787       -3.17652969125569       -0.90314214000780
H           -2.81699624875123       -1.43137699019527        0.00749624106701
H            1.32887032475293       -2.95932642472457       -0.01653531121763
