      -----------------------------------------------------------      
     |                   =====================                   |     
     |                           x T B                           |     
     |                   =====================                   |     
     |                         S. Grimme                         |     
     |          Mulliken Center for Theoretical Chemistry        |     
     |                    University of Bonn                     |     
      -----------------------------------------------------------      

   * xtb version 6.6.1 (8d0f1dd) compiled by 'conda@1efc2f54142f' on 2023-08-01

   xtb is free software: you can redistribute it and/or modify it under
   the terms of the GNU Lesser General Public License as published by
   the Free Software Foundation, either version 3 of the License, or
   (at your option) any later version.
   
   xtb is distributed in the hope that it will be useful,
   but WITHOUT ANY WARRANTY; without even the implied warranty of
   MERCHANTABILITY or FITNESS FOR A PARTICULAR PURPOSE.  See the
   GNU Lesser General Public License for more details.
   
   Cite this work as:
   * C. Bannwarth, E. Caldeweyher, S. Ehlert, A. Hansen, P. Pracht,
     J. Seibert, S. Spicher, S. Grimme, WIREs Comput. Mol. Sci., 2020, 11,
     e01493. DOI: 10.1002/wcms.1493
   
   for GFN2-xTB:
   * C. Bannwarth, S. Ehlert and S. Grimme., J. Chem. Theory Comput., 2019,
     15, 1652-1671. DOI: 10.1021/acs.jctc.8b01176
   for GFN1-xTB:
   * S. Grimme, C. Bannwarth, P. Shushkov, J. Chem. Theory Comput., 2017,
     13, 1989-2009. DOI: 10.1021/acs.jctc.7b00118
   for GFN0-xTB:
   * P. Pracht, E. Caldeweyher, S. Ehlert, S. Grimme, ChemRxiv, 2019, preprint.
     DOI: 10.26434/chemrxiv.8326202.v1
   for GFN-FF:
   * S. Spicher and S. Grimme, Angew. Chem. Int. Ed., 2020, 59, 15665-15673.
     DOI: 10.1002/anie.202004239
   
   for ALPB and GBSA implicit solvation:
   * S. Ehlert, M. Stahn, S. Spicher, S. Grimme, J. Chem. Theory Comput.,
     2021, 17, 4250-4261. DOI: 10.1021/acs.jctc.1c00471
   
   for DFT-D4:
   * E. Caldeweyher, C. Bannwarth and S. Grimme, J. Chem. Phys., 2017,
     147, 034112. DOI: 10.1063/1.4993215
   * E. Caldeweyher, S. Ehlert, A. Hansen, H. Neugebauer, S. Spicher,
     C. Bannwarth and S. Grimme, J. Chem. Phys., 2019, 150, 154122.
     DOI: 10.1063/1.5090222
   * E. Caldeweyher, J.-M. Mewes, S. Ehlert and S. Grimme, Phys. Chem. Chem. Phys.
     2020, 22, 8499-8512. DOI: 10.1039/D0CP00502A
   
   for sTDA-xTB:
   * S. Grimme and C. Bannwarth, J. Chem. Phys., 2016, 145, 054103.
     DOI: 10.1063/1.4959605
   
   in the mass-spec context:
   * V. Asgeirsson, C. Bauer and S. Grimme, Chem. Sci., 2017, 8, 4879.
     DOI: 10.1039/c7sc00601b
   * J. Koopman and S. Grimme, ACS Omega 2019, 4, 12, 15120-15133.
     DOI: 10.1021/acsomega.9b02011
   
   for metadynamics refer to:
   * S. Grimme, J. Chem. Theory Comput., 2019, 155, 2847-2862
     DOI: 10.1021/acs.jctc.9b00143
   
   for SPH calculations refer to:
   * S. Spicher and S. Grimme, J. Chem. Theory Comput., 2021, 17, 1701-1714
     DOI: 10.1021/acs.jctc.0c01306
   
   with help from (in alphabetical order)
   P. Atkinson, C. Bannwarth, F. Bohle, G. Brandenburg, E. Caldeweyher
   M. Checinski, S. Dohm, S. Ehlert, S. Ehrlich, I. Gerasimov, C. Hölzer
   A. Katbashev, J. Koopman, C. Lavigne, S. Lehtola, F. März, M. Müller,
   F. Musil, H. Neugebauer, J. Pisarek, C. Plett, P. Pracht, F. Pultar,
   J. Seibert, P. Shushkov, S. Spicher, M. Stahn, M. Steiner, T. Strunk,
   J. Stückrath, T. Rose, and J. Unsleber
   
 * started run on 2024/06/05 at 19:58:31.164     

           -------------------------------------------------
          |                Calculation Setup                |
           -------------------------------------------------

          program call               : xtb struc.xyz --opt loose --input .xc1 --gfn2
          hostname                   : n-62-11-68
          coordinate file            : struc.xyz
          omp threads                :                     1

   ID    Z sym.   atoms
    1    6 C      1, 3, 5-7, 10, 11, 14
    2    7 N      2, 4, 9, 13
    3    8 O      8, 12
    4    1 H      15-25
constraining bond 6 17 to    3.7133300 Å, actual value:    2.5833586 Å

           -------------------------------------------------
          |                 G F N 2 - x T B                 |
           -------------------------------------------------

        Reference                      10.1021/acs.jctc.8b01176
      * Hamiltonian:
        H0-scaling (s, p, d)           1.850000    2.230000    2.230000
        zeta-weighting                 0.500000
      * Dispersion:
        s8                             2.700000
        a1                             0.520000
        a2                             5.000000
        s9                             5.000000
      * Repulsion:
        kExp                           1.500000    1.000000
        rExp                           1.000000
      * Coulomb:
        alpha                          2.000000
        third order                    shell-resolved
        anisotropic                    true
        a3                             3.000000
        a5                             4.000000
        cn-shift                       1.200000
        cn-exp                         4.000000
        max-rad                        5.000000


          ...................................................
          :                      SETUP                      :
          :.................................................:
          :  # basis functions                  67          :
          :  # atomic orbitals                  67          :
          :  # shells                           39          :
          :  # electrons                        74          :
          :  max. iterations                   250          :
          :  Hamiltonian                  GFN2-xTB          :
          :  restarted?                      false          :
          :  GBSA solvation                  false          :
          :  PC potential                    false          :
          :  electronic temp.         5000.0000000     K    :
          :  accuracy                    1.0000000          :
          :  -> integral cutoff          0.2500000E+02      :
          :  -> integral neglect         0.1000000E-07      :
          :  -> SCF convergence          0.1000000E-05 Eh   :
          :  -> wf. convergence          0.1000000E-03 e    :
          :  Broyden damping             0.4000000          :
          ...................................................

 iter      E             dE          RMSdq      gap      omega  full diag
   1    -42.5894031 -0.425894E+02  0.445E+00    3.52       0.0  T
   2    -42.7683054 -0.178902E+00  0.251E+00    3.36       1.0  T
   3    -42.7759211 -0.761567E-02  0.147E+00    3.35       1.0  T
   4    -42.7728404  0.308066E-02  0.553E-01    3.33       1.0  T
   5    -42.7789548 -0.611444E-02  0.112E-01    3.35       1.0  T
   6    -42.7790473 -0.924914E-04  0.614E-02    3.33       1.0  T
   7    -42.7790721 -0.247928E-04  0.258E-02    3.34       1.0  T
   8    -42.7790772 -0.508996E-05  0.938E-03    3.34       2.1  T
   9    -42.7790779 -0.669422E-06  0.448E-03    3.34       4.5  T
  10    -42.7790780 -0.821510E-07  0.115E-03    3.34      17.4  T
  11    -42.7790780 -0.322663E-08  0.553E-04    3.34      36.2  T
  12    -42.7790780 -0.287051E-08  0.180E-04    3.34     111.1  T

   *** convergence criteria satisfied after 12 iterations ***

         #    Occupation            Energy/Eh            Energy/eV
      -------------------------------------------------------------
         1        2.0000           -0.9185990             -24.9964
       ...           ...                  ...                  ...
        31        1.9996           -0.6230278             -16.9534
        32        1.9995           -0.6194601             -16.8564
        33        1.9979           -0.5974976             -16.2587
        34        1.9932           -0.5789629             -15.7544
        35        1.9817           -0.5631863             -15.3251
        36        1.9779           -0.5602245             -15.2445
        37        1.9748           -0.5581234             -15.1873 (HOMO)
        38        0.0652           -0.4353579             -11.8467 (LUMO)
        39        0.0099           -0.4050467             -11.0219
        40        0.0013           -0.3732218             -10.1559
        41        0.0000           -0.2886859              -7.8555
        42                         -0.2065804              -5.6213
       ...                                ...                  ...
        67                          0.5625656              15.3082
      -------------------------------------------------------------
                  HL-Gap            0.1227656 Eh            3.3406 eV
             Fermi-level           -0.4890455 Eh          -13.3076 eV

 SCC (total)                   0 d,  0 h,  0 min,  0.034 sec
 SCC setup                      ...        0 min,  0.000 sec (  0.968%)
 Dispersion                     ...        0 min,  0.000 sec (  1.100%)
 classical contributions        ...        0 min,  0.000 sec (  0.330%)
 integral evaluation            ...        0 min,  0.006 sec ( 17.806%)
 iterations                     ...        0 min,  0.015 sec ( 45.301%)
 molecular gradient             ...        0 min,  0.011 sec ( 34.046%)
 printout                       ...        0 min,  0.000 sec (  0.424%)

         :::::::::::::::::::::::::::::::::::::::::::::::::::::
         ::                     SUMMARY                     ::
         :::::::::::::::::::::::::::::::::::::::::::::::::::::
         :: total energy             -44.527688853473 Eh    ::
         :: gradient norm              3.019572830777 Eh/a0 ::
         :: HOMO-LUMO gap              3.340621582928 eV    ::
         ::.................................................::
         :: SCC energy               -42.779077977399 Eh    ::
         :: -> isotropic ES            0.141123876439 Eh    ::
         :: -> anisotropic ES         -0.005230418907 Eh    ::
         :: -> anisotropic XC          0.011966818540 Eh    ::
         :: -> dispersion             -0.022657731803 Eh    ::
         :: repulsion energy           0.531105277918 Eh    ::
         :: add. restraining          -2.279830313001 Eh    ::
         :: total charge               1.000000000002 e     ::
         :::::::::::::::::::::::::::::::::::::::::::::::::::::

      ----------------------------------------------------------- 
     |                   =====================                   |
     |                        A N C O P T                        |
     |                   =====================                   |
     |               Approximate Normal Coordinate               |
     |                Rational Function Optimizer                |
      ----------------------------------------------------------- 

          ...................................................
          :                      SETUP                      :
          :.................................................:
          :   optimization level             loose          :
          :   max. optcycles                   200          :
          :   ANC micro-cycles                  20          :
          :   degrees of freedom                69          :
          :.................................................:
          :   RF solver                   davidson          :
          :   write xtbopt.log                true          :
          :   linear?                        false          :
          :   energy convergence         0.5000000E-04 Eh   :
          :   grad. convergence          0.4000000E-02 Eh/α :
          :   maxmium RF displ.          1.0000000          :
          :   Hlow (freq-cutoff)         0.1000000E-01      :
          :   Hmax (freq-cutoff)         5.0000000          :
          :   S6 in model hess.         20.0000000          :
          ...................................................

generating ANC from model Hessian ...
Using Lindh-Hessian (1995)
 Shifting diagonal of input Hessian by    1.5867999084096565     
 Lowest  eigenvalues of input Hessian
    0.010000    0.000000    0.000000    0.000000    0.000000    0.000000
    0.000000    1.590520    1.592370    1.592739    1.597113    1.598154
    1.600756    1.605266    1.605480    1.607796    1.625363    1.627278
 Highest eigenvalues
    3.646342    3.811601    3.835134    3.871437    4.106337    4.117932


........................................................................
.............................. CYCLE    1 ..............................
........................................................................

 iter      E             dE          RMSdq      gap      omega  full diag
   1    -42.7790780 -0.427791E+02  0.626E-05    3.34       0.0  T
   2    -42.7790780 -0.124416E-10  0.329E-05    3.34     607.4  T
   3    -42.7790780  0.127898E-12  0.193E-05    3.34    1034.2  T
     SCC iter.                  ...        0 min,  0.004 sec
     gradient                   ...        0 min,  0.011 sec
 * total energy  :   -44.5276889 Eh     change       -0.6650680E-10 Eh
   gradient norm :     3.0195730 Eh/α   predicted     0.0000000E+00 (-100.00%)
   displ. norm   :     0.9898993 α      lambda       -0.2942639E+01
   maximum displ.:     0.9811497 α      in ANC's #1, #64, #58, ...

........................................................................
.............................. CYCLE    2 ..............................
........................................................................

 iter      E             dE          RMSdq      gap      omega  full diag
   1    -42.6775845 -0.426776E+02  0.139E+00    3.16       0.0  T
   2    -42.6786390 -0.105451E-02  0.948E-01    3.14       1.0  T
   3    -42.6869661 -0.832706E-02  0.584E-01    3.16       1.0  T
   4    -42.6906042 -0.363810E-02  0.122E-01    3.14       1.0  T
   5    -42.6908044 -0.200183E-03  0.410E-02    3.14       1.0  T
   6    -42.6908330 -0.286100E-04  0.218E-02    3.15       1.0  T
   7    -42.6908363 -0.330965E-05  0.789E-03    3.14       2.5  T
   8    -42.6908369 -0.638668E-06  0.163E-03    3.14      12.2  T
   9    -42.6908369 -0.107071E-07  0.784E-04    3.14      25.5  T
  10    -42.6908369 -0.150354E-08  0.233E-04    3.14      85.7  T
     SCC iter.                  ...        0 min,  0.012 sec
     gradient                   ...        0 min,  0.011 sec
 * total energy  :   -48.3493096 Eh     change       -0.3821621E+01 Eh
   gradient norm :     4.7649382 Eh/α   predicted    -0.2934937E+01 ( -23.20%)
   displ. norm   :     0.9930972 α      lambda       -0.4714468E+01
   maximum displ.:     0.9837266 α      in ANC's #1, #64, #58, ...

........................................................................
.............................. CYCLE    3 ..............................
........................................................................

 iter      E             dE          RMSdq      gap      omega  full diag
   1    -42.4166734 -0.424167E+02  0.142E+00    2.62       0.0  T
   2    -42.3119346  0.104739E+00  0.228E+00    2.84       1.0  T
   3    -42.4810582 -0.169124E+00  0.578E-01    2.77       1.0  T
   4    -42.4808073  0.250933E-03  0.251E-01    2.75       1.0  T
   5    -42.4816522 -0.844904E-03  0.744E-02    2.75       1.0  T
   6    -42.4817815 -0.129283E-03  0.370E-02    2.74       1.0  T
   7    -42.4817984 -0.169664E-04  0.172E-02    2.75       1.2  T
   8    -42.4818006 -0.219665E-05  0.627E-03    2.75       3.2  T
   9    -42.4818011 -0.457094E-06  0.191E-03    2.75      10.5  T
  10    -42.4818011 -0.385139E-07  0.787E-04    2.75      25.4  T
  11    -42.4818011 -0.586041E-08  0.180E-04    2.75     110.9  T
     SCC iter.                  ...        0 min,  0.013 sec
     gradient                   ...        0 min,  0.011 sec
 * total energy  :   -53.9883904 Eh     change       -0.5639081E+01 Eh
   gradient norm :     6.6757277 Eh/α   predicted    -0.4682075E+01 ( -16.97%)
   displ. norm   :     0.9927307 α      lambda       -0.6607312E+01
   maximum displ.:     0.9784292 α      in ANC's #1, #64, #58, ...

........................................................................
.............................. CYCLE    4 ..............................
........................................................................

 iter      E             dE          RMSdq      gap      omega  full diag
   1    -42.3403074 -0.423403E+02  0.198E+00    1.82       0.0  T
   2    -42.2282487  0.112059E+00  0.221E+00    1.08       1.0  T
   3    -42.3598854 -0.131637E+00  0.963E-01    1.60       1.0  T
   4    -42.3848322 -0.249468E-01  0.774E-01    1.31       1.0  T
   5    -42.3959829 -0.111507E-01  0.186E-01    1.44       1.0  T
   6    -42.3963226 -0.339704E-03  0.912E-02    1.39       1.0  T
   7    -42.3963961 -0.734911E-04  0.386E-02    1.41       1.0  T
   8    -42.3964078 -0.117349E-04  0.979E-03    1.40       2.0  T
   9    -42.3964093 -0.145775E-05  0.322E-03    1.40       6.2  T
  10    -42.3964094 -0.138912E-06  0.146E-03    1.40      13.7  T
  11    -42.3964094 -0.162224E-07  0.633E-04    1.40      31.6  T
  12    -42.3964094 -0.264835E-08  0.217E-04    1.40      92.1  T
     SCC iter.                  ...        0 min,  0.015 sec
     gradient                   ...        0 min,  0.011 sec
 * total energy  :   -59.2935197 Eh     change       -0.5305129E+01 Eh
   gradient norm :     3.5168204 Eh/α   predicted    -0.6559489E+01 (  23.64%)
   displ. norm   :     0.3207027 α      lambda       -0.1106094E+01
   maximum displ.:     0.2925690 α      in ANC's #1, #52, #47, ...

........................................................................
.............................. CYCLE    5 ..............................
........................................................................

 iter      E             dE          RMSdq      gap      omega  full diag
   1    -42.4161847 -0.424162E+02  0.616E-01    1.28       0.0  T
   2    -42.3768396  0.393451E-01  0.116E+00    1.82       1.0  T
   3    -42.4272932 -0.504536E-01  0.244E-01    1.47       1.0  T
   4    -42.4273503 -0.570756E-04  0.158E-01    1.46       1.0  T
   5    -42.4276980 -0.347691E-03  0.560E-02    1.43       1.0  T
   6    -42.4277706 -0.726200E-04  0.122E-02    1.44       1.6  T
   7    -42.4277705  0.126840E-06  0.104E-02    1.44       1.9  T
   8    -42.4277722 -0.167467E-05  0.295E-03    1.44       6.8  T
   9    -42.4277722 -0.392276E-07  0.119E-03    1.44      16.8  T
  10    -42.4277722 -0.340845E-07  0.550E-04    1.44      36.4  T
  11    -42.4277722 -0.295624E-08  0.113E-04    1.44     177.8  T
     SCC iter.                  ...        0 min,  0.014 sec
     gradient                   ...        0 min,  0.011 sec
 * total energy  :   -58.6506757 Eh     change        0.6428439E+00 Eh
   gradient norm :     5.5231281 Eh/α   predicted    -0.6099864E+00 (-194.89%)
   displ. norm   :     0.1908491 α      lambda       -0.1006773E+01
   maximum displ.:     0.1739185 α      in ANC's #1, #64, #47, ...

........................................................................
.............................. CYCLE    6 ..............................
........................................................................

 iter      E             dE          RMSdq      gap      omega  full diag
   1    -42.4232291 -0.424232E+02  0.410E-01    1.38       0.0  T
   2    -42.4226820  0.547142E-03  0.341E-01    1.30       1.0  T
   3    -42.4254171 -0.273512E-02  0.147E-01    1.41       1.0  T
   4    -42.4252657  0.151443E-03  0.154E-01    1.31       1.0  T
   5    -42.4260226 -0.756900E-03  0.322E-02    1.37       1.0  T
   6    -42.4260534 -0.307745E-04  0.681E-03    1.36       2.9  T
   7    -42.4260539 -0.536529E-06  0.423E-03    1.36       4.7  T
   8    -42.4260541 -0.233905E-06  0.223E-03    1.36       8.9  T
   9    -42.4260542 -0.111364E-06  0.426E-04    1.36      46.9  T
  10    -42.4260542 -0.385310E-08  0.166E-04    1.36     120.7  T
     SCC iter.                  ...        0 min,  0.012 sec
     gradient                   ...        0 min,  0.011 sec
 * total energy  :   -59.3940823 Eh     change       -0.7434066E+00 Eh
   gradient norm :     2.0561082 Eh/α   predicted    -0.5217214E+00 ( -29.82%)
   displ. norm   :     0.1602894 α      lambda       -0.2431990E+00
   maximum displ.:     0.1151658 α      in ANC's #1, #47, #52, ...

........................................................................
.............................. CYCLE    7 ..............................
........................................................................

 iter      E             dE          RMSdq      gap      omega  full diag
   1    -42.4323013 -0.424323E+02  0.345E-01    1.28       0.0  T
   2    -42.4298390  0.246230E-02  0.386E-01    1.40       1.0  T
   3    -42.4339215 -0.408251E-02  0.165E-01    1.27       1.0  T
   4    -42.4346088 -0.687257E-03  0.101E-01    1.36       1.0  T
   5    -42.4348354 -0.226638E-03  0.286E-02    1.33       1.0  T
   6    -42.4348541 -0.186321E-04  0.943E-03    1.34       2.1  T
   7    -42.4348551 -0.102487E-05  0.615E-03    1.34       3.3  T
   8    -42.4348557 -0.625854E-06  0.309E-03    1.33       6.5  T
   9    -42.4348559 -0.218026E-06  0.449E-04    1.33      44.5  T
  10    -42.4348559 -0.148464E-08  0.240E-04    1.33      83.5  T
     SCC iter.                  ...        0 min,  0.012 sec
     gradient                   ...        0 min,  0.011 sec
 * total energy  :   -59.4248735 Eh     change       -0.3079121E-01 Eh
   gradient norm :     2.3388056 Eh/α   predicted    -0.1247239E+00 ( 305.06%)
   displ. norm   :     0.0927706 α      lambda       -0.1318591E+00
   maximum displ.:     0.0335672 α      in ANC's #1, #52, #60, ...

........................................................................
.............................. CYCLE    8 ..............................
........................................................................

 iter      E             dE          RMSdq      gap      omega  full diag
   1    -42.4453995 -0.424454E+02  0.177E-01    1.26       0.0  T
   2    -42.4416974  0.370210E-02  0.331E-01    1.45       1.0  T
   3    -42.4461852 -0.448782E-02  0.603E-02    1.31       1.0  T
   4    -42.4461866 -0.140636E-05  0.249E-02    1.32       1.0  T
   5    -42.4461970 -0.104130E-04  0.776E-03    1.32       2.6  T
   6    -42.4461984 -0.139060E-05  0.313E-03    1.32       6.4  T
   7    -42.4461985 -0.104493E-06  0.173E-03    1.32      11.5  T
   8    -42.4461986 -0.443081E-07  0.611E-04    1.32      32.8  T
   9    -42.4461986 -0.649653E-08  0.238E-04    1.32      84.1  T
     SCC iter.                  ...        0 min,  0.011 sec
     gradient                   ...        0 min,  0.011 sec
 * total energy  :   -59.4866330 Eh     change       -0.6175948E-01 Eh
   gradient norm :     0.2653322 Eh/α   predicted    -0.6649692E-01 (   7.67%)
   displ. norm   :     0.0976063 α      lambda       -0.1449501E-01
   maximum displ.:     0.0338880 α      in ANC's #41, #52, #23, ...

........................................................................
.............................. CYCLE    9 ..............................
........................................................................

 iter      E             dE          RMSdq      gap      omega  full diag
   1    -42.4544524 -0.424545E+02  0.194E-01    1.20       0.0  T
   2    -42.4499478  0.450457E-02  0.382E-01    1.42       1.0  T
   3    -42.4556417 -0.569384E-02  0.838E-02    1.27       1.0  T
   4    -42.4555927  0.490350E-04  0.711E-02    1.29       1.0  T
   5    -42.4557043 -0.111654E-03  0.147E-02    1.27       1.4  T
   6    -42.4557086 -0.432068E-05  0.558E-03    1.27       3.6  T
   7    -42.4557087 -0.743117E-07  0.430E-03    1.27       4.7  T
   8    -42.4557091 -0.431226E-06  0.139E-03    1.27      14.4  T
   9    -42.4557092 -0.362619E-07  0.323E-04    1.27      61.8  T
  10    -42.4557092  0.674305E-11  0.187E-04    1.27     107.1  T
     SCC iter.                  ...        0 min,  0.012 sec
     gradient                   ...        0 min,  0.012 sec
 * total energy  :   -59.4997176 Eh     change       -0.1308454E-01 Eh
   gradient norm :     0.2278360 Eh/α   predicted    -0.7316901E-02 ( -44.08%)
   displ. norm   :     0.3684025 α      lambda       -0.4660319E-01
   maximum displ.:     0.1342603 α      in ANC's #41, #23, #52, ...

........................................................................
.............................. CYCLE   10 ..............................
........................................................................

 iter      E             dE          RMSdq      gap      omega  full diag
   1    -42.4623508 -0.424624E+02  0.674E-01    0.85       0.0  T
   2    -42.4095608  0.527900E-01  0.136E+00    1.48       1.0  T
   3    -42.4769150 -0.673542E-01  0.343E-01    1.08       1.0  T
   4    -42.4757853  0.112976E-02  0.312E-01    1.12       1.0  T
   5    -42.4780117 -0.222646E-02  0.827E-02    1.03       1.0  T
   6    -42.4781956 -0.183895E-03  0.222E-02    1.05       1.0  T
   7    -42.4781995 -0.390086E-05  0.137E-02    1.05       1.5  T
   8    -42.4782017 -0.211259E-05  0.468E-03    1.05       4.3  T
   9    -42.4782018 -0.137265E-06  0.206E-03    1.05       9.7  T
  10    -42.4782019 -0.109095E-06  0.844E-04    1.05      23.7  T
  11    -42.4782019 -0.247975E-08  0.454E-04    1.05      44.0  T
     SCC iter.                  ...        0 min,  0.014 sec
     gradient                   ...        0 min,  0.011 sec
 * total energy  :   -59.5299205 Eh     change       -0.3020298E-01 Eh
   gradient norm :     0.1806678 Eh/α   predicted    -0.2646408E-01 ( -12.38%)
   displ. norm   :     0.1933496 α      lambda       -0.1102457E-01
   maximum displ.:     0.0724605 α      in ANC's #41, #16, #23, ...

........................................................................
.............................. CYCLE   11 ..............................
........................................................................

 iter      E             dE          RMSdq      gap      omega  full diag
   1    -42.4803824 -0.424804E+02  0.288E-01    0.84       0.0  T
   2    -42.4695313  0.108511E-01  0.612E-01    1.13       1.0  T
   3    -42.4827949 -0.132635E-01  0.170E-01    0.93       1.0  T
   4    -42.4823410  0.453819E-03  0.171E-01    0.96       1.0  T
   5    -42.4830482 -0.707145E-03  0.387E-02    0.92       1.0  T
   6    -42.4830818 -0.336541E-04  0.104E-02    0.92       1.9  T
   7    -42.4830836 -0.174405E-05  0.663E-03    0.92       3.0  T
   8    -42.4830844 -0.829154E-06  0.267E-03    0.92       7.5  T
   9    -42.4830845 -0.115028E-06  0.644E-04    0.92      31.0  T
  10    -42.4830845 -0.284021E-08  0.379E-04    0.92      52.8  T
     SCC iter.                  ...        0 min,  0.012 sec
     gradient                   ...        0 min,  0.011 sec
 * total energy  :   -59.5376459 Eh     change       -0.7725318E-02 Eh
   gradient norm :     0.0882655 Eh/α   predicted    -0.5718393E-02 ( -25.98%)
   displ. norm   :     0.1951132 α      lambda       -0.7595752E-02
   maximum displ.:     0.0757816 α      in ANC's #41, #16, #23, ...

........................................................................
.............................. CYCLE   12 ..............................
........................................................................

 iter      E             dE          RMSdq      gap      omega  full diag
   1    -42.4832012 -0.424832E+02  0.247E-01    0.75       0.0  T
   2    -42.4766297  0.657151E-02  0.479E-01    0.95       1.0  T
   3    -42.4844500 -0.782027E-02  0.140E-01    0.80       1.0  T
   4    -42.4840809  0.369031E-03  0.144E-01    0.83       1.0  T
   5    -42.4845338 -0.452901E-03  0.434E-02    0.81       1.0  T
   6    -42.4845831 -0.492974E-04  0.823E-03    0.80       2.4  T
   7    -42.4845846 -0.146758E-05  0.457E-03    0.81       4.4  T
   8    -42.4845849 -0.270898E-06  0.248E-03    0.80       8.1  T
   9    -42.4845850 -0.116736E-06  0.710E-04    0.80      28.2  T
  10    -42.4845850 -0.951167E-08  0.349E-04    0.80      57.3  T
     SCC iter.                  ...        0 min,  0.012 sec
     gradient                   ...        0 min,  0.011 sec
 * total energy  :   -59.5427943 Eh     change       -0.5148467E-02 Eh
   gradient norm :     0.1522005 Eh/α   predicted    -0.3943366E-02 ( -23.41%)
   displ. norm   :     0.2152831 α      lambda       -0.9249692E-02
   maximum displ.:     0.0831777 α      in ANC's #16, #58, #23, ...

........................................................................
.............................. CYCLE   13 ..............................
........................................................................

 iter      E             dE          RMSdq      gap      omega  full diag
   1    -42.4849937 -0.424850E+02  0.214E-01    0.67       0.0  T
   2    -42.4829477  0.204603E-02  0.325E-01    0.76       1.0  T
   3    -42.4855984 -0.265073E-02  0.133E-01    0.68       1.0  T
   4    -42.4849313  0.667052E-03  0.170E-01    0.73       1.0  T
   5    -42.4856577 -0.726314E-03  0.525E-02    0.70       1.0  T
   6    -42.4857257 -0.680760E-04  0.136E-02    0.69       1.5  T
   7    -42.4857309 -0.521074E-05  0.561E-03    0.69       3.6  T
   8    -42.4857314 -0.502455E-06  0.296E-03    0.69       6.7  T
   9    -42.4857316 -0.136221E-06  0.104E-03    0.69      19.3  T
  10    -42.4857316 -0.296257E-07  0.231E-04    0.69      86.4  T
  11    -42.4857316 -0.151232E-09  0.860E-05    0.69     232.5  T
     SCC iter.                  ...        0 min,  0.014 sec
     gradient                   ...        0 min,  0.011 sec
 * total energy  :   -59.5481163 Eh     change       -0.5321974E-02 Eh
   gradient norm :     0.2385955 Eh/α   predicted    -0.4839334E-02 (  -9.07%)
   displ. norm   :     0.1537026 α      lambda       -0.6973438E-02
   maximum displ.:     0.0654236 α      in ANC's #58, #16, #23, ...

........................................................................
.............................. CYCLE   14 ..............................
........................................................................

 iter      E             dE          RMSdq      gap      omega  full diag
   1    -42.4863148 -0.424863E+02  0.175E-01    0.65       0.0  T
   2    -42.4861117  0.203137E-03  0.156E-01    0.64       1.0  T
   3    -42.4863135 -0.201859E-03  0.117E-01    0.63       1.0  T
   4    -42.4861360  0.177533E-03  0.117E-01    0.68       1.0  T
   5    -42.4865555 -0.419456E-03  0.421E-02    0.64       1.0  T
   6    -42.4866199 -0.644136E-04  0.921E-03    0.65       2.2  T
   7    -42.4866218 -0.196207E-05  0.284E-03    0.65       7.0  T
   8    -42.4866219 -0.468886E-07  0.143E-03    0.65      14.0  T
   9    -42.4866219 -0.294307E-07  0.548E-04    0.65      36.5  T
  10    -42.4866219 -0.505999E-08  0.182E-04    0.65     110.2  T
     SCC iter.                  ...        0 min,  0.012 sec
     gradient                   ...        0 min,  0.011 sec
 * total energy  :   -59.5529041 Eh     change       -0.4787843E-02 Eh
   gradient norm :     0.0941700 Eh/α   predicted    -0.3570031E-02 ( -25.44%)
   displ. norm   :     0.1430082 α      lambda       -0.6806596E-02
   maximum displ.:     0.0620518 α      in ANC's #58, #47, #48, ...

........................................................................
.............................. CYCLE   15 ..............................
........................................................................

 iter      E             dE          RMSdq      gap      omega  full diag
   1    -42.4889445 -0.424889E+02  0.228E-01    0.70       0.0  T
   2    -42.4862686  0.267585E-02  0.319E-01    0.58       1.0  T
   3    -42.4890845 -0.281589E-02  0.162E-01    0.70       1.0  T
   4    -42.4893830 -0.298505E-03  0.134E-01    0.65       1.0  T
   5    -42.4898245 -0.441463E-03  0.214E-02    0.67       1.0  T
   6    -42.4898362 -0.117536E-04  0.760E-03    0.66       2.6  T
   7    -42.4898374 -0.120255E-05  0.375E-03    0.66       5.3  T
   8    -42.4898376 -0.198161E-06  0.131E-03    0.66      15.2  T
   9    -42.4898377 -0.245059E-07  0.296E-04    0.66      67.6  T
  10    -42.4898377 -0.710600E-09  0.190E-04    0.66     105.4  T
     SCC iter.                  ...        0 min,  0.012 sec
     gradient                   ...        0 min,  0.011 sec
 * total energy  :   -59.5575321 Eh     change       -0.4628002E-02 Eh
   gradient norm :     0.1587066 Eh/α   predicted    -0.3472964E-02 ( -24.96%)
   displ. norm   :     0.1153405 α      lambda       -0.4313388E-02
   maximum displ.:     0.0476192 α      in ANC's #41, #47, #48, ...

........................................................................
.............................. CYCLE   16 ..............................
........................................................................

 iter      E             dE          RMSdq      gap      omega  full diag
   1    -42.4911362 -0.424911E+02  0.181E-01    0.72       0.0  T
   2    -42.4891740  0.196216E-02  0.270E-01    0.63       1.0  T
   3    -42.4912389 -0.206491E-02  0.125E-01    0.73       1.0  T
   4    -42.4913413 -0.102312E-03  0.116E-01    0.68       1.0  T
   5    -42.4916582 -0.316995E-03  0.232E-02    0.70       1.0  T
   6    -42.4916710 -0.127722E-04  0.713E-03    0.70       2.8  T
   7    -42.4916722 -0.120315E-05  0.368E-03    0.70       5.4  T
   8    -42.4916725 -0.269816E-06  0.923E-04    0.70      21.7  T
   9    -42.4916725 -0.218089E-07  0.298E-04    0.70      67.1  T
     SCC iter.                  ...        0 min,  0.011 sec
     gradient                   ...        0 min,  0.011 sec
 * total energy  :   -59.5604166 Eh     change       -0.2884441E-02 Eh
   gradient norm :     0.0626283 Eh/α   predicted    -0.2186621E-02 ( -24.19%)
   displ. norm   :     0.1115725 α      lambda       -0.2989915E-02
   maximum displ.:     0.0408916 α      in ANC's #58, #47, #41, ...

........................................................................
.............................. CYCLE   17 ..............................
........................................................................

 iter      E             dE          RMSdq      gap      omega  full diag
   1    -42.4911572 -0.424912E+02  0.139E-01    0.70       0.0  T
   2    -42.4911394  0.178169E-04  0.976E-02    0.70       1.0  T
   3    -42.4911117  0.277468E-04  0.917E-02    0.69       1.0  T
   4    -42.4910325  0.792251E-04  0.809E-02    0.72       1.0  T
   5    -42.4912319 -0.199469E-03  0.341E-02    0.69       1.0  T
   6    -42.4912769 -0.449655E-04  0.567E-03    0.70       3.5  T
   7    -42.4912779 -0.964552E-06  0.190E-03    0.70      10.5  T
   8    -42.4912779 -0.120797E-07  0.102E-03    0.70      19.7  T
   9    -42.4912779 -0.179463E-07  0.312E-04    0.70      64.1  T
  10    -42.4912779 -0.209671E-08  0.124E-04    0.70     160.9  T
     SCC iter.                  ...        0 min,  0.012 sec
     gradient                   ...        0 min,  0.011 sec
 * total energy  :   -59.5627385 Eh     change       -0.2321891E-02 Eh
   gradient norm :     0.0686355 Eh/α   predicted    -0.1513626E-02 ( -34.81%)
   displ. norm   :     0.1676160 α      lambda       -0.4758621E-02
   maximum displ.:     0.0471884 α      in ANC's #58, #16, #41, ...

........................................................................
.............................. CYCLE   18 ..............................
........................................................................

 iter      E             dE          RMSdq      gap      omega  full diag
   1    -42.4893589 -0.424894E+02  0.195E-01    0.64       0.0  T
   2    -42.4879135  0.144541E-02  0.236E-01    0.73       1.0  T
   3    -42.4886493 -0.735808E-03  0.186E-01    0.62       1.0  T
   4    -42.4896626 -0.101327E-02  0.587E-02    0.67       1.0  T
   5    -42.4897093 -0.466597E-04  0.322E-02    0.67       1.0  T
   6    -42.4897360 -0.267351E-04  0.848E-03    0.66       2.4  T
   7    -42.4897381 -0.209518E-05  0.346E-03    0.67       5.8  T
   8    -42.4897382 -0.134383E-06  0.145E-03    0.66      13.8  T
   9    -42.4897382 -0.176974E-07  0.559E-04    0.66      35.8  T
  10    -42.4897382 -0.656848E-08  0.200E-04    0.66     100.0  T
     SCC iter.                  ...        0 min,  0.012 sec
     gradient                   ...        0 min,  0.011 sec
 * total energy  :   -59.5659253 Eh     change       -0.3186787E-02 Eh
   gradient norm :     0.0729825 Eh/α   predicted    -0.2446180E-02 ( -23.24%)
   displ. norm   :     0.1401205 α      lambda       -0.2679311E-02
   maximum displ.:     0.0429324 α      in ANC's #16, #57, #15, ...

........................................................................
.............................. CYCLE   19 ..............................
........................................................................

 iter      E             dE          RMSdq      gap      omega  full diag
   1    -42.4875745 -0.424876E+02  0.145E-01    0.59       0.0  T
   2    -42.4848701  0.270434E-02  0.291E-01    0.70       1.0  T
   3    -42.4878219 -0.295177E-02  0.825E-02    0.60       1.0  T
   4    -42.4878527 -0.307802E-04  0.595E-02    0.62       1.0  T
   5    -42.4879213 -0.685859E-04  0.272E-02    0.62       1.0  T
   6    -42.4879391 -0.178421E-04  0.615E-03    0.62       3.3  T
   7    -42.4879401 -0.102284E-05  0.250E-03    0.62       8.0  T
   8    -42.4879402 -0.931667E-07  0.122E-03    0.62      16.4  T
   9    -42.4879402 -0.206436E-07  0.289E-04    0.62      69.2  T
  10    -42.4879402 -0.147909E-08  0.128E-04    0.62     156.4  T
     SCC iter.                  ...        0 min,  0.012 sec
     gradient                   ...        0 min,  0.011 sec
 * total energy  :   -59.5677856 Eh     change       -0.1860345E-02 Eh
   gradient norm :     0.0584380 Eh/α   predicted    -0.1366013E-02 ( -26.57%)
   displ. norm   :     0.1152079 α      lambda       -0.2514970E-02
   maximum displ.:     0.0375252 α      in ANC's #57, #52, #10, ...

........................................................................
.............................. CYCLE   20 ..............................
........................................................................

 iter      E             dE          RMSdq      gap      omega  full diag
   1    -42.4882782 -0.424883E+02  0.134E-01    0.55       0.0  T
   2    -42.4868123  0.146587E-02  0.221E-01    0.63       1.0  T
   3    -42.4883149 -0.150260E-02  0.102E-01    0.55       1.0  T
   4    -42.4885035 -0.188559E-03  0.598E-02    0.57       1.0  T
   5    -42.4885627 -0.592632E-04  0.267E-02    0.57       1.0  T
   6    -42.4885768 -0.140173E-04  0.797E-03    0.56       2.5  T
   7    -42.4885787 -0.194436E-05  0.185E-03    0.57      10.8  T
   8    -42.4885787 -0.148613E-07  0.982E-04    0.57      20.4  T
   9    -42.4885787 -0.945194E-08  0.213E-04    0.57      94.0  T
     SCC iter.                  ...        0 min,  0.011 sec
     gradient                   ...        0 min,  0.011 sec
 * total energy  :   -59.5693991 Eh     change       -0.1613506E-02 Eh
   gradient norm :     0.0716204 Eh/α   predicted    -0.1274246E-02 ( -21.03%)
   displ. norm   :     0.0928705 α      lambda       -0.1778399E-02
   maximum displ.:     0.0287820 α      in ANC's #10, #57, #17, ...
 * RMSD in coord.:     0.6963029 α      energy gain  -0.1504171E+02 Eh

generating ANC from model Hessian ...
Using Lindh-Hessian (1995)
 Shifting diagonal of input Hessian by    7.0277794749018865E-003
 Lowest  eigenvalues of input Hessian
    0.000000    0.000000    0.000000    0.000000    0.000000    0.000000
    0.010000    0.010688    0.012094    0.016430    0.017330    0.018063
    0.020244    0.021647    0.024489    0.027329    0.030086    0.035460
 Highest eigenvalues
    2.165430    2.261992    2.283786    2.487149   16.585861   20.769953


........................................................................
.............................. CYCLE   21 ..............................
........................................................................

 iter      E             dE          RMSdq      gap      omega  full diag
   1    -42.4896501 -0.424897E+02  0.102E-01    0.52       0.0  T
   2    -42.4889593  0.690819E-03  0.162E-01    0.57       1.0  T
   3    -42.4896427 -0.683418E-03  0.808E-02    0.51       1.0  T
   4    -42.4898070 -0.164292E-03  0.358E-02    0.54       1.0  T
   5    -42.4898135 -0.646639E-05  0.220E-02    0.53       1.0  T
   6    -42.4898231 -0.958072E-05  0.963E-03    0.53       2.1  T
   7    -42.4898262 -0.312695E-05  0.162E-03    0.53      12.3  T
   8    -42.4898262 -0.154341E-07  0.999E-04    0.53      20.0  T
   9    -42.4898262 -0.167097E-07  0.120E-04    0.53     167.4  T
     SCC iter.                  ...        0 min,  0.011 sec
     gradient                   ...        0 min,  0.011 sec
 * total energy  :   -59.5706348 Eh     change       -0.1235724E-02 Eh
   gradient norm :     0.0582668 Eh/α   predicted     0.0000000E+00 (-100.00%)
   displ. norm   :     0.3909425 α      lambda       -0.7804751E-02
   maximum displ.:     0.1846144 α      in ANC's #2, #10, #13, ...

........................................................................
.............................. CYCLE   22 ..............................
........................................................................

 iter      E             dE          RMSdq      gap      omega  full diag
   1    -42.4990968 -0.424991E+02  0.259E-01    0.55       0.0  T
   2    -42.4989245  0.172308E-03  0.168E-01    0.52       1.0  T
   3    -42.4959700  0.295449E-02  0.289E-01    0.62       1.0  T
   4    -42.4985924 -0.262241E-02  0.141E-01    0.53       1.0  T
   5    -42.4991748 -0.582413E-03  0.266E-02    0.55       1.0  T
   6    -42.4991917 -0.168828E-04  0.688E-03    0.54       2.9  T
   7    -42.4991923 -0.604676E-06  0.381E-03    0.54       5.2  T
   8    -42.4991925 -0.181830E-06  0.949E-04    0.54      21.1  T
   9    -42.4991925 -0.113920E-07  0.357E-04    0.54      56.0  T
     SCC iter.                  ...        0 min,  0.011 sec
     gradient                   ...        0 min,  0.011 sec
 * total energy  :   -59.5625821 Eh     change        0.8052774E-02 Eh
   gradient norm :     1.1040330 Eh/α   predicted    -0.4508092E-02 (-155.98%)
   displ. norm   :     0.3403613 α      lambda       -0.3482210E-01
   maximum displ.:     0.1345112 α      in ANC's #13, #10, #12, ...

........................................................................
.............................. CYCLE   23 ..............................
........................................................................

 iter      E             dE          RMSdq      gap      omega  full diag
   1    -42.5106177 -0.425106E+02  0.247E-01    0.55       0.0  T
   2    -42.5104575  0.160179E-03  0.168E-01    0.54       1.0  T
   3    -42.5100440  0.413518E-03  0.174E-01    0.57       1.0  T
   4    -42.5104935 -0.449496E-03  0.897E-02    0.53       1.0  T
   5    -42.5106610 -0.167482E-03  0.607E-02    0.56       1.0  T
   6    -42.5107880 -0.127029E-03  0.791E-03    0.55       2.5  T
   7    -42.5107889 -0.943917E-06  0.366E-03    0.55       5.5  T
   8    -42.5107891 -0.123521E-06  0.151E-03    0.55      13.3  T
   9    -42.5107891 -0.354580E-07  0.448E-04    0.55      44.6  T
  10    -42.5107891 -0.194208E-08  0.269E-04    0.55      74.3  T
     SCC iter.                  ...        0 min,  0.012 sec
     gradient                   ...        0 min,  0.011 sec
 * total energy  :   -59.5775739 Eh     change       -0.1499187E-01 Eh
   gradient norm :     0.1439490 Eh/α   predicted    -0.1942805E-01 (  29.59%)
   displ. norm   :     0.3784007 α      lambda       -0.3406395E-02
   maximum displ.:     0.2210100 α      in ANC's #2, #1, #10, ...

........................................................................
.............................. CYCLE   24 ..............................
........................................................................

 iter      E             dE          RMSdq      gap      omega  full diag
   1    -42.5061286 -0.425061E+02  0.252E-01    0.57       0.0  T
   2    -42.5061264  0.218879E-05  0.149E-01    0.56       1.0  T
   3    -42.5049869  0.113951E-02  0.172E-01    0.61       1.0  T
   4    -42.5059165 -0.929543E-03  0.854E-02    0.55       1.0  T
   5    -42.5061485 -0.232010E-03  0.185E-02    0.56       1.1  T
   6    -42.5061587 -0.101907E-04  0.572E-03    0.57       3.5  T
   7    -42.5061592 -0.568444E-06  0.253E-03    0.57       7.9  T
   8    -42.5061593 -0.477937E-07  0.106E-03    0.57      18.9  T
   9    -42.5061593 -0.168041E-07  0.295E-04    0.57      67.8  T
  10    -42.5061593 -0.384759E-09  0.132E-04    0.57     151.0  T
     SCC iter.                  ...        0 min,  0.012 sec
     gradient                   ...        0 min,  0.011 sec
 * total energy  :   -59.5800486 Eh     change       -0.2474675E-02 Eh
   gradient norm :     0.0316452 Eh/α   predicted    -0.1947111E-02 ( -21.32%)
   displ. norm   :     0.3993410 α      lambda       -0.3313502E-02
   maximum displ.:     0.1930302 α      in ANC's #1, #2, #4, ...

........................................................................
.............................. CYCLE   25 ..............................
........................................................................

 iter      E             dE          RMSdq      gap      omega  full diag
   1    -42.5036894 -0.425037E+02  0.258E-01    0.59       0.0  T
   2    -42.5035931  0.963036E-04  0.159E-01    0.61       1.0  T
   3    -42.5005650  0.302811E-02  0.322E-01    0.56       1.0  T
   4    -42.5035782 -0.301320E-02  0.746E-02    0.61       1.0  T
   5    -42.5037275 -0.149338E-03  0.395E-02    0.59       1.0  T
   6    -42.5037861 -0.585607E-04  0.844E-03    0.59       2.4  T
   7    -42.5037868 -0.755659E-06  0.472E-03    0.59       4.2  T
   8    -42.5037872 -0.402100E-06  0.101E-03    0.59      19.7  T
   9    -42.5037873 -0.220085E-07  0.373E-04    0.59      53.6  T
  10    -42.5037873 -0.124956E-09  0.194E-04    0.59     103.2  T
     SCC iter.                  ...        0 min,  0.012 sec
     gradient                   ...        0 min,  0.011 sec
 * total energy  :   -59.5817523 Eh     change       -0.1703645E-02 Eh
   gradient norm :     0.0796038 Eh/α   predicted    -0.1921010E-02 (  12.76%)
   displ. norm   :     0.4650156 α      lambda       -0.2359602E-02
   maximum displ.:     0.2492854 α      in ANC's #2, #1, #8, ...

........................................................................
.............................. CYCLE   26 ..............................
........................................................................

 iter      E             dE          RMSdq      gap      omega  full diag
   1    -42.4994485 -0.424994E+02  0.325E-01    0.60       0.0  T
   2    -42.4994064  0.420837E-04  0.199E-01    0.59       1.0  T
   3    -42.4963723  0.303409E-02  0.309E-01    0.64       1.0  T
   4    -42.4992043 -0.283203E-02  0.870E-02    0.59       1.0  T
   5    -42.4994733 -0.268998E-03  0.308E-02    0.60       1.0  T
   6    -42.4995082 -0.349128E-04  0.502E-03    0.60       4.0  T
   7    -42.4995083 -0.225832E-07  0.342E-03    0.60       5.8  T
   8    -42.4995085 -0.202163E-06  0.939E-04    0.60      21.3  T
   9    -42.4995085 -0.127476E-07  0.470E-04    0.60      42.5  T
     SCC iter.                  ...        0 min,  0.011 sec
     gradient                   ...        0 min,  0.011 sec
 * total energy  :   -59.5833850 Eh     change       -0.1632736E-02 Eh
   gradient norm :     0.0880637 Eh/α   predicted    -0.1434957E-02 ( -12.11%)
   displ. norm   :     0.4284579 α      lambda       -0.3229821E-02
   maximum displ.:     0.1888701 α      in ANC's #8, #1, #2, ...

........................................................................
.............................. CYCLE   27 ..............................
........................................................................

 iter      E             dE          RMSdq      gap      omega  full diag
   1    -42.5065843 -0.425066E+02  0.311E-01    0.60       0.0  T
   2    -42.5063428  0.241490E-03  0.201E-01    0.61       1.0  T
   3    -42.5004997  0.584311E-02  0.425E-01    0.59       1.0  T
   4    -42.5065265 -0.602684E-02  0.548E-02    0.61       1.0  T
   5    -42.5066365 -0.109939E-03  0.219E-02    0.60       1.0  T
   6    -42.5066499 -0.134130E-04  0.582E-03    0.60       3.4  T
   7    -42.5066508 -0.890812E-06  0.276E-03    0.60       7.2  T
   8    -42.5066509 -0.691676E-07  0.701E-04    0.60      28.5  T
   9    -42.5066509 -0.668999E-08  0.376E-04    0.60      53.2  T
     SCC iter.                  ...        0 min,  0.011 sec
     gradient                   ...        0 min,  0.011 sec
 * total energy  :   -59.5860802 Eh     change       -0.2695178E-02 Eh
   gradient norm :     0.0459168 Eh/α   predicted    -0.1911411E-02 ( -29.08%)
   displ. norm   :     0.5819041 α      lambda       -0.5138793E-02
   maximum displ.:     0.2503785 α      in ANC's #8, #1, #4, ...

........................................................................
.............................. CYCLE   28 ..............................
........................................................................

 iter      E             dE          RMSdq      gap      omega  full diag
   1    -42.5211888 -0.425212E+02  0.440E-01    0.62       0.0  T
   2    -42.5173001  0.388864E-02  0.409E-01    0.63       1.0  T
   3    -42.5147905  0.250963E-02  0.481E-01    0.65       1.0  T
   4    -42.5216424 -0.685194E-02  0.540E-02    0.61       1.0  T
   5    -42.5217259 -0.834807E-04  0.188E-02    0.62       1.1  T
   6    -42.5217345 -0.863943E-05  0.714E-03    0.61       2.8  T
   7    -42.5217357 -0.114209E-05  0.400E-03    0.61       5.0  T
   8    -42.5217359 -0.191234E-06  0.143E-03    0.61      14.0  T
   9    -42.5217359 -0.447867E-07  0.480E-04    0.61      41.7  T
  10    -42.5217359 -0.168885E-08  0.238E-04    0.61      84.1  T
     SCC iter.                  ...        0 min,  0.012 sec
     gradient                   ...        0 min,  0.011 sec
 * total energy  :   -59.5903749 Eh     change       -0.4294778E-02 Eh
   gradient norm :     0.1476144 Eh/α   predicted    -0.3439460E-02 ( -19.92%)
   displ. norm   :     0.7330523 α      lambda       -0.6844386E-02
   maximum displ.:     0.3265958 α      in ANC's #8, #4, #1, ...

........................................................................
.............................. CYCLE   29 ..............................
........................................................................

 iter      E             dE          RMSdq      gap      omega  full diag
   1    -42.5308478 -0.425308E+02  0.619E-01    0.70       0.0  T
   2    -42.5142258  0.166220E-01  0.780E-01    0.57       1.0  T
   3    -42.5289373 -0.147115E-01  0.442E-01    0.74       1.0  T
   4    -42.5327629 -0.382556E-02  0.162E-01    0.63       1.0  T
   5    -42.5333834 -0.620568E-03  0.371E-02    0.65       1.0  T
   6    -42.5334289 -0.454394E-04  0.127E-02    0.65       1.6  T
   7    -42.5334324 -0.352467E-05  0.582E-03    0.65       3.4  T
   8    -42.5334326 -0.192060E-06  0.209E-03    0.65       9.6  T
   9    -42.5334327 -0.880990E-07  0.644E-04    0.65      31.1  T
  10    -42.5334327 -0.167568E-08  0.304E-04    0.65      65.7  T
     SCC iter.                  ...        0 min,  0.012 sec
     gradient                   ...        0 min,  0.011 sec
 * total energy  :   -59.5970791 Eh     change       -0.6704166E-02 Eh
   gradient norm :     0.3473957 Eh/α   predicted    -0.5261182E-02 ( -21.52%)
   displ. norm   :     0.7927171 α      lambda       -0.1370280E-01
   maximum displ.:     0.2472361 α      in ANC's #8, #21, #4, ...

........................................................................
.............................. CYCLE   30 ..............................
........................................................................

 iter      E             dE          RMSdq      gap      omega  full diag
   1    -42.5637184 -0.425637E+02  0.948E-01    1.16       0.0  T
   2    -42.4568395  0.106879E+00  0.189E+00    0.26       1.0  T
   3    -42.5817931 -0.124954E+00  0.394E-01    0.95       1.0  T
   4    -42.5814598  0.333348E-03  0.291E-01    0.82       1.0  T
   5    -42.5830960 -0.163621E-02  0.730E-02    0.86       1.0  T
   6    -42.5832327 -0.136758E-03  0.238E-02    0.87       1.0  T
   7    -42.5832451 -0.123194E-04  0.113E-02    0.87       1.8  T
   8    -42.5832465 -0.146303E-05  0.500E-03    0.87       4.0  T
   9    -42.5832468 -0.262544E-06  0.143E-03    0.87      14.0  T
  10    -42.5832468 -0.121281E-07  0.567E-04    0.87      35.3  T
  11    -42.5832468 -0.960448E-09  0.183E-04    0.87     109.6  T
     SCC iter.                  ...        0 min,  0.014 sec
     gradient                   ...        0 min,  0.011 sec
 * total energy  :   -59.6016918 Eh     change       -0.4612712E-02 Eh
   gradient norm :     0.8118031 Eh/α   predicted    -0.1115681E-01 ( 141.87%)
   displ. norm   :     0.5114214 α      lambda       -0.1935346E-01
   maximum displ.:     0.2298094 α      in ANC's #8, #9, #4, ...

........................................................................
.............................. CYCLE   31 ..............................
........................................................................

 iter      E             dE          RMSdq      gap      omega  full diag
   1    -42.5622222 -0.425622E+02  0.526E-01    1.08       0.0  T
   2    -42.5617001  0.522133E-03  0.481E-01    0.95       1.0  T
   3    -42.5619961 -0.296024E-03  0.337E-01    1.16       1.0  T
   4    -42.5620253 -0.291657E-04  0.364E-01    0.95       1.0  T
   5    -42.5652694 -0.324412E-02  0.573E-02    1.04       1.0  T
   6    -42.5653551 -0.856539E-04  0.157E-02    1.04       1.3  T
   7    -42.5653575 -0.238109E-05  0.899E-03    1.04       2.2  T
   8    -42.5653585 -0.101367E-05  0.479E-03    1.04       4.2  T
   9    -42.5653589 -0.398898E-06  0.104E-03    1.05      19.3  T
  10    -42.5653589 -0.773076E-08  0.557E-04    1.04      35.9  T
  11    -42.5653589 -0.192165E-08  0.208E-04    1.05      96.0  T
     SCC iter.                  ...        0 min,  0.014 sec
     gradient                   ...        0 min,  0.011 sec
 * total energy  :   -59.6145769 Eh     change       -0.1288508E-01 Eh
   gradient norm :     0.9461850 Eh/α   predicted    -0.1220772E-01 (  -5.26%)
   displ. norm   :     0.4365654 α      lambda       -0.6193775E-01
   maximum displ.:     0.1384613 α      in ANC's #12, #15, #33, ...

........................................................................
.............................. CYCLE   32 ..............................
........................................................................

 iter      E             dE          RMSdq      gap      omega  full diag
   1    -42.5144885 -0.425145E+02  0.578E-01    1.17       0.0  T
   2    -42.5132988  0.118972E-02  0.469E-01    1.26       1.0  T
   3    -42.5129925  0.306311E-03  0.513E-01    1.12       1.0  T
   4    -42.5188548 -0.586231E-02  0.171E-01    1.19       1.0  T
   5    -42.5185836  0.271196E-03  0.128E-01    1.16       1.0  T
   6    -42.5190398 -0.456229E-03  0.204E-02    1.18       1.0  T
   7    -42.5190444 -0.460363E-05  0.933E-03    1.18       2.1  T
   8    -42.5190456 -0.114844E-05  0.261E-03    1.19       7.7  T
   9    -42.5190456 -0.785363E-07  0.966E-04    1.19      20.7  T
  10    -42.5190457 -0.508606E-08  0.573E-04    1.19      34.9  T
     SCC iter.                  ...        0 min,  0.012 sec
     gradient                   ...        0 min,  0.011 sec
 * total energy  :   -59.6247454 Eh     change       -0.1016852E-01 Eh
   gradient norm :     0.6931582 Eh/α   predicted    -0.3687123E-01 ( 262.60%)
   displ. norm   :     0.5995525 α      lambda       -0.5464144E-01
   maximum displ.:     0.1825679 α      in ANC's #10, #21, #13, ...

........................................................................
.............................. CYCLE   33 ..............................
........................................................................

 iter      E             dE          RMSdq      gap      omega  full diag
   1    -42.5663827 -0.425664E+02  0.491E-01    1.29       0.0  T
   2    -42.5650295  0.135317E-02  0.340E-01    1.33       1.0  T
   3    -42.5608470  0.418252E-02  0.530E-01    1.26       1.0  T
   4    -42.5675320 -0.668503E-02  0.105E-01    1.30       1.0  T
   5    -42.5676279 -0.959259E-04  0.448E-02    1.29       1.0  T
   6    -42.5676800 -0.520771E-04  0.890E-03    1.30       2.2  T
   7    -42.5676812 -0.115472E-05  0.471E-03    1.29       4.2  T
   8    -42.5676813 -0.147669E-06  0.185E-03    1.29      10.8  T
   9    -42.5676814 -0.657397E-07  0.517E-04    1.30      38.7  T
  10    -42.5676814 -0.151591E-08  0.281E-04    1.30      71.3  T
     SCC iter.                  ...        0 min,  0.012 sec
     gradient                   ...        0 min,  0.011 sec
 * total energy  :   -59.6773540 Eh     change       -0.5260855E-01 Eh
   gradient norm :     0.1876988 Eh/α   predicted    -0.3714156E-01 ( -29.40%)
   displ. norm   :     0.7529498 α      lambda       -0.8653127E-01
   maximum displ.:     0.2672593 α      in ANC's #21, #24, #34, ...

........................................................................
.............................. CYCLE   34 ..............................
........................................................................

 iter      E             dE          RMSdq      gap      omega  full diag
   1    -42.6643938 -0.426644E+02  0.788E-01    1.58       0.0  T
   2    -42.6721389 -0.774509E-02  0.433E-01    1.54       1.0  T
   3    -42.6726030 -0.464033E-03  0.256E-01    1.56       1.0  T
   4    -42.6720168  0.586171E-03  0.168E-01    1.56       1.0  T
   5    -42.6724787 -0.461891E-03  0.968E-02    1.54       1.0  T
   6    -42.6727409 -0.262174E-03  0.232E-02    1.56       1.0  T
   7    -42.6727549 -0.140679E-04  0.824E-03    1.55       2.4  T
   8    -42.6727555 -0.575635E-06  0.210E-03    1.56       9.5  T
   9    -42.6727555 -0.163794E-07  0.856E-04    1.56      23.4  T
  10    -42.6727555 -0.404894E-08  0.262E-04    1.56      76.3  T
     SCC iter.                  ...        0 min,  0.012 sec
     gradient                   ...        0 min,  0.011 sec
 * total energy  :   -59.6961524 Eh     change       -0.1879846E-01 Eh
   gradient norm :     1.1163621 Eh/α   predicted    -0.6779443E-01 ( 260.64%)
   displ. norm   :     0.2832094 α      lambda       -0.5208275E-01
   maximum displ.:     0.1165042 α      in ANC's #9, #6, #12, ...

........................................................................
.............................. CYCLE   35 ..............................
........................................................................

 iter      E             dE          RMSdq      gap      omega  full diag
   1    -42.6332671 -0.426333E+02  0.485E-01    1.51       0.0  T
   2    -42.6382211 -0.495401E-02  0.330E-01    1.55       1.0  T
   3    -42.6395972 -0.137603E-02  0.176E-01    1.53       1.0  T
   4    -42.6390594  0.537792E-03  0.163E-01    1.55       1.0  T
   5    -42.6396078 -0.548445E-03  0.740E-02    1.53       1.0  T
   6    -42.6397483 -0.140479E-03  0.125E-02    1.54       1.6  T
   7    -42.6397505 -0.224130E-05  0.599E-03    1.53       3.3  T
   8    -42.6397509 -0.357720E-06  0.247E-03    1.54       8.1  T
   9    -42.6397510 -0.879294E-07  0.933E-04    1.54      21.4  T
  10    -42.6397510 -0.694588E-08  0.380E-04    1.54      52.6  T
     SCC iter.                  ...        0 min,  0.012 sec
     gradient                   ...        0 min,  0.011 sec
 * total energy  :   -59.7150036 Eh     change       -0.1885115E-01 Eh
   gradient norm :     0.1127591 Eh/α   predicted    -0.2813013E-01 (  49.22%)
   displ. norm   :     0.5264603 α      lambda       -0.2437107E-01
   maximum displ.:     0.1922887 α      in ANC's #19, #14, #10, ...

........................................................................
.............................. CYCLE   36 ..............................
........................................................................

 iter      E             dE          RMSdq      gap      omega  full diag
   1    -42.6529607 -0.426530E+02  0.577E-01    1.60       0.0  T
   2    -42.6527377  0.222943E-03  0.401E-01    1.49       1.0  T
   3    -42.6519519  0.785787E-03  0.417E-01    1.61       1.0  T
   4    -42.6550191 -0.306712E-02  0.155E-01    1.55       1.0  T
   5    -42.6553373 -0.318250E-03  0.670E-02    1.54       1.0  T
   6    -42.6554453 -0.108028E-03  0.144E-02    1.55       1.4  T
   7    -42.6554476 -0.224632E-05  0.712E-03    1.55       2.8  T
   8    -42.6554479 -0.336041E-06  0.173E-03    1.55      11.6  T
   9    -42.6554480 -0.290051E-07  0.802E-04    1.55      24.9  T
  10    -42.6554480 -0.286951E-08  0.288E-04    1.55      69.5  T
     SCC iter.                  ...        0 min,  0.012 sec
     gradient                   ...        0 min,  0.012 sec
 * total energy  :   -59.7099418 Eh     change        0.5061797E-02 Eh
   gradient norm :     0.1113946 Eh/α   predicted    -0.1556291E-01 (-407.46%)
   displ. norm   :     0.4505105 α      lambda       -0.2376365E-01
   maximum displ.:     0.1544724 α      in ANC's #6, #9, #13, ...

........................................................................
.............................. CYCLE   37 ..............................
........................................................................

 iter      E             dE          RMSdq      gap      omega  full diag
   1    -42.6612169 -0.426612E+02  0.410E-01    1.64       0.0  T
   2    -42.6596118  0.160505E-02  0.312E-01    1.69       1.0  T
   3    -42.6600495 -0.437617E-03  0.333E-01    1.62       1.0  T
   4    -42.6620272 -0.197776E-02  0.489E-02    1.66       1.0  T
   5    -42.6620539 -0.267229E-04  0.243E-02    1.65       1.0  T
   6    -42.6620678 -0.139002E-04  0.785E-03    1.65       2.5  T
   7    -42.6620684 -0.551948E-06  0.324E-03    1.65       6.2  T
   8    -42.6620685 -0.122698E-06  0.670E-04    1.65      29.8  T
   9    -42.6620685 -0.457950E-08  0.316E-04    1.65      63.3  T
     SCC iter.                  ...        0 min,  0.011 sec
     gradient                   ...        0 min,  0.012 sec
 * total energy  :   -59.7248576 Eh     change       -0.1491577E-01 Eh
   gradient norm :     0.1945359 Eh/α   predicted    -0.1429344E-01 (  -4.17%)
   displ. norm   :     0.6056485 α      lambda       -0.1524704E-01
   maximum displ.:     0.3539810 α      in ANC's #8, #4, #12, ...

........................................................................
.............................. CYCLE   38 ..............................
........................................................................

 iter      E             dE          RMSdq      gap      omega  full diag
   1    -42.6808854 -0.426809E+02  0.629E-01    1.67       0.0  T
   2    -42.6776641  0.322129E-02  0.488E-01    1.61       1.0  T
   3    -42.6789180 -0.125390E-02  0.488E-01    1.72       1.0  T
   4    -42.6830753 -0.415730E-02  0.884E-02    1.65       1.0  T
   5    -42.6831728 -0.975375E-04  0.257E-02    1.66       1.0  T
   6    -42.6831814 -0.861560E-05  0.137E-02    1.65       1.5  T
   7    -42.6831828 -0.138751E-05  0.586E-03    1.66       3.4  T
   8    -42.6831836 -0.754812E-06  0.150E-03    1.65      13.3  T
   9    -42.6831836 -0.166308E-07  0.584E-04    1.65      34.3  T
  10    -42.6831836 -0.314222E-08  0.122E-04    1.65     164.0  T
     SCC iter.                  ...        0 min,  0.012 sec
     gradient                   ...        0 min,  0.011 sec
 * total energy  :   -59.6944011 Eh     change        0.3045647E-01 Eh
   gradient norm :     0.3425613 Eh/α   predicted    -0.1041994E-01 (-134.21%)
   displ. norm   :     0.3425597 α      lambda       -0.6639308E-01
   maximum displ.:     0.1734121 α      in ANC's #8, #12, #4, ...

........................................................................
.............................. CYCLE   39 ..............................
........................................................................

 iter      E             dE          RMSdq      gap      omega  full diag
   1    -42.6775887 -0.426776E+02  0.401E-01    1.69       0.0  T
   2    -42.6771301  0.458656E-03  0.258E-01    1.71       1.0  T
   3    -42.6764130  0.717082E-03  0.332E-01    1.66       1.0  T
   4    -42.6783861 -0.197309E-02  0.748E-02    1.70       1.0  T
   5    -42.6784185 -0.323873E-04  0.313E-02    1.68       1.0  T
   6    -42.6784422 -0.237884E-04  0.121E-02    1.69       1.7  T
   7    -42.6784435 -0.122408E-05  0.559E-03    1.69       3.6  T
   8    -42.6784439 -0.425484E-06  0.144E-03    1.69      13.9  T
   9    -42.6784439 -0.264854E-07  0.479E-04    1.69      41.8  T
  10    -42.6784439 -0.203109E-08  0.797E-05    1.69     251.0  T
     SCC iter.                  ...        0 min,  0.012 sec
     gradient                   ...        0 min,  0.011 sec
 * total energy  :   -59.7263892 Eh     change       -0.3198811E-01 Eh
   gradient norm :     0.1094686 Eh/α   predicted    -0.3709205E-01 (  15.96%)
   displ. norm   :     0.6372187 α      lambda       -0.8791490E-02
   maximum displ.:     0.2663788 α      in ANC's #8, #2, #4, ...

........................................................................
.............................. CYCLE   40 ..............................
........................................................................

 iter      E             dE          RMSdq      gap      omega  full diag
   1    -42.6639716 -0.426640E+02  0.524E-01    1.69       0.0  T
   2    -42.6631178  0.853842E-03  0.333E-01    1.69       1.0  T
   3    -42.6622968  0.820978E-03  0.401E-01    1.66       1.0  T
   4    -42.6647909 -0.249408E-02  0.109E-01    1.71       1.0  T
   5    -42.6650254 -0.234484E-03  0.415E-02    1.67       1.0  T
   6    -42.6650718 -0.463756E-04  0.899E-03    1.68       2.2  T
   7    -42.6650721 -0.371854E-06  0.465E-03    1.68       4.3  T
   8    -42.6650724 -0.279007E-06  0.975E-04    1.68      20.5  T
   9    -42.6650724 -0.101864E-07  0.304E-04    1.68      65.7  T
     SCC iter.                  ...        0 min,  0.011 sec
     gradient                   ...        0 min,  0.011 sec
 * total energy  :   -59.7288810 Eh     change       -0.2491761E-02 Eh
   gradient norm :     0.1414529 Eh/α   predicted    -0.6180612E-02 ( 148.04%)
   displ. norm   :     0.2768011 α      lambda       -0.6647302E-02
   maximum displ.:     0.1232140 α      in ANC's #7, #2, #12, ...

........................................................................
.............................. CYCLE   41 ..............................
........................................................................

 iter      E             dE          RMSdq      gap      omega  full diag
   1    -42.6679203 -0.426679E+02  0.218E-01    1.69       0.0  T
   2    -42.6681986 -0.278324E-03  0.125E-01    1.68       1.0  T
   3    -42.6682001 -0.147483E-05  0.750E-02    1.70       1.0  T
   4    -42.6682073 -0.720857E-05  0.422E-02    1.68       1.0  T
   5    -42.6682463 -0.390242E-04  0.615E-03    1.69       3.2  T
   6    -42.6682467 -0.434757E-06  0.263E-03    1.69       7.6  T
   7    -42.6682467  0.437174E-07  0.206E-03    1.69       9.7  T
   8    -42.6682468 -0.805172E-07  0.784E-04    1.69      25.5  T
   9    -42.6682468 -0.141223E-07  0.250E-04    1.69      79.9  T
     SCC iter.                  ...        0 min,  0.011 sec
     gradient                   ...        0 min,  0.011 sec
 * total energy  :   -59.7309907 Eh     change       -0.2109768E-02 Eh
   gradient norm :     0.2037309 Eh/α   predicted    -0.3578326E-02 (  69.61%)
   displ. norm   :     0.2902681 α      lambda       -0.5863600E-02
   maximum displ.:     0.1291223 α      in ANC's #7, #1, #8, ...

........................................................................
.............................. CYCLE   42 ..............................
........................................................................

 iter      E             dE          RMSdq      gap      omega  full diag
   1    -42.6785775 -0.426786E+02  0.225E-01    1.71       0.0  T
   2    -42.6786404 -0.629165E-04  0.131E-01    1.69       1.0  T
   3    -42.6785457  0.946991E-04  0.977E-02    1.72       1.0  T
   4    -42.6786818 -0.136074E-03  0.277E-02    1.69       1.0  T
   5    -42.6786969 -0.150679E-04  0.140E-02    1.70       1.4  T
   6    -42.6787018 -0.492580E-05  0.583E-03    1.70       3.4  T
   7    -42.6787023 -0.516612E-06  0.203E-03    1.70       9.9  T
   8    -42.6787023 -0.196832E-07  0.417E-04    1.70      47.9  T
   9    -42.6787023 -0.626137E-09  0.223E-04    1.70      89.6  T
     SCC iter.                  ...        0 min,  0.011 sec
     gradient                   ...        0 min,  0.012 sec
 * total energy  :   -59.7332356 Eh     change       -0.2244834E-02 Eh
   gradient norm :     0.0872972 Eh/α   predicted    -0.3178833E-02 (  41.61%)
   displ. norm   :     0.4567097 α      lambda       -0.5581090E-02
   maximum displ.:     0.1726870 α      in ANC's #12, #2, #5, ...
 * RMSD in coord.:     1.0632416 α      energy gain  -0.1638365E+00 Eh

generating ANC from model Hessian ...
Using Lindh-Hessian (1995)
 Shifting diagonal of input Hessian by    5.9295243249309322E-003
 Lowest  eigenvalues of input Hessian
    0.000000    0.000000    0.000000    0.000000    0.000000    0.000000
    0.010000    0.010884    0.011832    0.013610    0.016317    0.017420
    0.020636    0.021983    0.026299    0.030412    0.032271    0.043212
 Highest eigenvalues
    2.218577    2.298649    2.355292    2.512005   19.661008   19.857371


........................................................................
.............................. CYCLE   43 ..............................
........................................................................

 iter      E             dE          RMSdq      gap      omega  full diag
   1    -42.6843575 -0.426844E+02  0.309E-01    1.65       0.0  T
   2    -42.6844625 -0.104988E-03  0.183E-01    1.65       1.0  T
   3    -42.6842824  0.180039E-03  0.104E-01    1.66       1.0  T
   4    -42.6843843 -0.101865E-03  0.638E-02    1.64       1.0  T
   5    -42.6844940 -0.109726E-03  0.124E-02    1.65       1.6  T
   6    -42.6844968 -0.273355E-05  0.576E-03    1.65       3.5  T
   7    -42.6844970 -0.205409E-06  0.300E-03    1.65       6.7  T
   8    -42.6844971 -0.120434E-06  0.675E-04    1.65      29.6  T
   9    -42.6844971 -0.440557E-08  0.340E-04    1.65      58.8  T
     SCC iter.                  ...        0 min,  0.011 sec
     gradient                   ...        0 min,  0.011 sec
 * total energy  :   -59.7347687 Eh     change       -0.1533127E-02 Eh
   gradient norm :     0.0713310 Eh/α   predicted     0.0000000E+00 (-100.00%)
   displ. norm   :     0.4131130 α      lambda       -0.7127598E-02
   maximum displ.:     0.2816996 α      in ANC's #7, #3, #9, ...

........................................................................
.............................. CYCLE   44 ..............................
........................................................................

 iter      E             dE          RMSdq      gap      omega  full diag
   1    -42.6853727 -0.426854E+02  0.386E-01    1.67       0.0  T
   2    -42.6850849  0.287705E-03  0.240E-01    1.66       1.0  T
   3    -42.6843713  0.713630E-03  0.276E-01    1.65       1.0  T
   4    -42.6855489 -0.117754E-02  0.685E-02    1.68       1.0  T
   5    -42.6856835 -0.134655E-03  0.140E-02    1.66       1.4  T
   6    -42.6856879 -0.442301E-05  0.429E-03    1.66       4.7  T
   7    -42.6856881 -0.168624E-06  0.185E-03    1.66      10.8  T
   8    -42.6856881 -0.320740E-07  0.399E-04    1.66      50.2  T
   9    -42.6856881 -0.116252E-08  0.162E-04    1.66     123.2  T
     SCC iter.                  ...        0 min,  0.011 sec
     gradient                   ...        0 min,  0.011 sec
 * total energy  :   -59.7356807 Eh     change       -0.9120102E-03 Eh
   gradient norm :     0.5775236 Eh/α   predicted    -0.4174905E-02 ( 357.77%)
   displ. norm   :     0.5697729 α      lambda       -0.2112538E-01
   maximum displ.:     0.3852377 α      in ANC's #7, #9, #8, ...

........................................................................
.............................. CYCLE   45 ..............................
........................................................................

 iter      E             dE          RMSdq      gap      omega  full diag
   1    -42.6670565 -0.426671E+02  0.517E-01    1.66       0.0  T
   2    -42.6667954  0.261008E-03  0.322E-01    1.64       1.0  T
   3    -42.6647250  0.207041E-02  0.368E-01    1.63       1.0  T
   4    -42.6672847 -0.255969E-02  0.696E-02    1.66       1.0  T
   5    -42.6674165 -0.131746E-03  0.288E-02    1.63       1.0  T
   6    -42.6674326 -0.161371E-04  0.112E-02    1.64       1.8  T
   7    -42.6674340 -0.137042E-05  0.350E-03    1.64       5.7  T
   8    -42.6674341 -0.136677E-06  0.715E-04    1.64      28.0  T
   9    -42.6674341 -0.160001E-08  0.233E-04    1.64      85.8  T
     SCC iter.                  ...        0 min,  0.011 sec
     gradient                   ...        0 min,  0.011 sec
 * total energy  :   -59.7351864 Eh     change        0.4943587E-03 Eh
   gradient norm :     0.5141536 Eh/α   predicted    -0.1399179E-01 (*******%)
   displ. norm   :     0.2819572 α      lambda       -0.1445246E-01
   maximum displ.:     0.1695724 α      in ANC's #7, #8, #12, ...

........................................................................
.............................. CYCLE   46 ..............................
........................................................................

 iter      E             dE          RMSdq      gap      omega  full diag
   1    -42.6851797 -0.426852E+02  0.263E-01    1.65       0.0  T
   2    -42.6851542  0.254486E-04  0.159E-01    1.66       1.0  T
   3    -42.6845142  0.639961E-03  0.189E-01    1.67       1.0  T
   4    -42.6852437 -0.729505E-03  0.263E-02    1.65       1.0  T
   5    -42.6852597 -0.159487E-04  0.160E-02    1.66       1.3  T
   6    -42.6852637 -0.401361E-05  0.783E-03    1.66       2.6  T
   7    -42.6852644 -0.666963E-06  0.223E-03    1.66       9.0  T
   8    -42.6852644 -0.635648E-07  0.508E-04    1.66      39.4  T
   9    -42.6852644 -0.612793E-09  0.180E-04    1.66     111.2  T
     SCC iter.                  ...        0 min,  0.011 sec
     gradient                   ...        0 min,  0.011 sec
 * total energy  :   -59.7431494 Eh     change       -0.7963058E-02 Eh
   gradient norm :     0.0746096 Eh/α   predicted    -0.7800753E-02 (  -2.04%)
   displ. norm   :     0.3959360 α      lambda       -0.3046383E-02
   maximum displ.:     0.2319243 α      in ANC's #3, #7, #1, ...

........................................................................
.............................. CYCLE   47 ..............................
........................................................................

 iter      E             dE          RMSdq      gap      omega  full diag
   1    -42.6822385 -0.426822E+02  0.316E-01    1.63       0.0  T
   2    -42.6818567  0.381821E-03  0.226E-01    1.66       1.0  T
   3    -42.6816234  0.233281E-03  0.219E-01    1.62       1.0  T
   4    -42.6824557 -0.832287E-03  0.367E-02    1.65       1.0  T
   5    -42.6824878 -0.320951E-04  0.815E-03    1.64       2.5  T
   6    -42.6824889 -0.116562E-05  0.421E-03    1.64       4.8  T
   7    -42.6824891 -0.182398E-06  0.149E-03    1.64      13.4  T
   8    -42.6824891 -0.216541E-07  0.239E-04    1.64      83.8  T
   9    -42.6824891 -0.177053E-09  0.118E-04    1.64     169.9  T
     SCC iter.                  ...        0 min,  0.011 sec
     gradient                   ...        0 min,  0.011 sec
 * total energy  :   -59.7428802 Eh     change        0.2691982E-03 Eh
   gradient norm :     0.3232179 Eh/α   predicted    -0.1762086E-02 (-754.57%)
   displ. norm   :     0.1705289 α      lambda       -0.4404682E-02
   maximum displ.:     0.0948938 α      in ANC's #7, #8, #3, ...

........................................................................
.............................. CYCLE   48 ..............................
........................................................................

 iter      E             dE          RMSdq      gap      omega  full diag
   1    -42.6924576 -0.426925E+02  0.135E-01    1.66       0.0  T
   2    -42.6924323  0.253120E-04  0.808E-02    1.65       1.0  T
   3    -42.6922780  0.154268E-03  0.104E-01    1.66       1.0  T
   4    -42.6924806 -0.202521E-03  0.134E-02    1.65       1.5  T
   5    -42.6924830 -0.246434E-05  0.821E-03    1.66       2.4  T
   6    -42.6924839 -0.883882E-06  0.443E-03    1.65       4.5  T
   7    -42.6924841 -0.240522E-06  0.874E-04    1.65      22.9  T
   8    -42.6924842 -0.102763E-07  0.239E-04    1.65      83.6  T
     SCC iter.                  ...        0 min,  0.010 sec
     gradient                   ...        0 min,  0.011 sec
 * total energy  :   -59.7454331 Eh     change       -0.2552853E-02 Eh
   gradient norm :     0.1138001 Eh/α   predicted    -0.2266395E-02 ( -11.22%)
   displ. norm   :     0.2451022 α      lambda       -0.1843571E-02
   maximum displ.:     0.1575738 α      in ANC's #3, #2, #9, ...

........................................................................
.............................. CYCLE   49 ..............................
........................................................................

 iter      E             dE          RMSdq      gap      omega  full diag
   1    -42.6925293 -0.426925E+02  0.152E-01    1.64       0.0  T
   2    -42.6925050  0.242811E-04  0.102E-01    1.64       1.0  T
   3    -42.6922419  0.263094E-03  0.111E-01    1.62       1.0  T
   4    -42.6925506 -0.308676E-03  0.864E-03    1.64       2.3  T
   5    -42.6925523 -0.173921E-05  0.385E-03    1.64       5.2  T
   6    -42.6925527 -0.327300E-06  0.139E-03    1.64      14.4  T
   7    -42.6925527 -0.134290E-07  0.640E-04    1.64      31.3  T
   8    -42.6925527 -0.259337E-08  0.128E-04    1.64     155.7  T
     SCC iter.                  ...        0 min,  0.010 sec
     gradient                   ...        0 min,  0.012 sec
 * total energy  :   -59.7465164 Eh     change       -0.1083339E-02 Eh
   gradient norm :     0.0366940 Eh/α   predicted    -0.9771865E-03 (  -9.80%)
   displ. norm   :     0.4339177 α      lambda       -0.2620693E-02
   maximum displ.:     0.2661456 α      in ANC's #3, #1, #2, ...

........................................................................
.............................. CYCLE   50 ..............................
........................................................................

 iter      E             dE          RMSdq      gap      omega  full diag
   1    -42.6929255 -0.426929E+02  0.239E-01    1.62       0.0  T
   2    -42.6927029  0.222610E-03  0.184E-01    1.64       1.0  T
   3    -42.6925857  0.117188E-03  0.154E-01    1.60       1.0  T
   4    -42.6930591 -0.473335E-03  0.999E-03    1.63       2.0  T
   5    -42.6930612 -0.210261E-05  0.456E-03    1.62       4.4  T
   6    -42.6930616 -0.463975E-06  0.178E-03    1.62      11.3  T
[...]
H            3.43658932273973       -1.49707664754512        0.88938060003146
H           -1.48710012214188        3.10001649300781        0.44327950879539
H           -2.85646432361413        2.20537435832053       -0.27894254678520
H           -2.42881575934812        1.95348815050372        1.42374487906641
H           -1.43366862497905       -2.97021474287794        0.73172560207149
H           -1.01876747856537       -3.22335803349127       -0.98845348562189
H           -2.55368155551204       -2.44725041085771       -0.53964572437380
H            1.22985405178350       -2.71733388614639        0.73968434241793

 Bond Distances (Angstroems)
 ---------------------------
C1-N2=1.3094         C1-H15=1.0725        C1-H16=1.0732        N2-C1=1.3094         N2-C3=1.3499         N2-C6=1.5003         
C3-N2=1.3499         C3-N4=1.3643         C3-H18=1.0689        N4-C3=1.3643         N4-C5=1.3400         N4-H25=1.0103        
C5-N4=1.3400         C5-C6=1.5135         C5-N13=1.3485        C6-N2=1.5003         C6-C5=1.5135         C6-C7=1.6262         
C6-H17=0.4244        C7-C6=1.6262         C7-O8=1.1943         C7-N9=1.3547         O8-C7=1.1943         N9-C7=1.3547         
N9-C10=1.4631        N9-C11=1.4039        C10-N9=1.4631        C10-H19=1.0867       C10-H20=1.0883       C10-H21=1.0896       
C11-N9=1.4039        C11-O12=1.1965       C11-N13=1.4047       O12-C11=1.1965       N13-C5=1.3485        N13-C11=1.4047       
N13-C14=1.4531       C14-N13=1.4531       C14-H22=1.0913       C14-H23=1.0887       C14-H24=1.0892       H15-C1=1.0725        
H16-C1=1.0732        H17-C6=0.4244        H18-C3=1.0689        H19-C10=1.0867       H20-C10=1.0883       H21-C10=1.0896       
H22-C14=1.0913       H23-C14=1.0887       H24-C14=1.0892       H25-N4=1.0103        
 C  H  Rav=1.0173 sigma=0.1978  Rmin=0.4244  Rmax=1.0913    10
 C  C  Rav=1.5699 sigma=0.0563  Rmin=1.5135  Rmax=1.6262     2
 N  H  Rav=1.0103 sigma=0.0000  Rmin=1.0103  Rmax=1.0103     1
 N  C  Rav=1.3902 sigma=0.0573  Rmin=1.3094  Rmax=1.5003    11
 O  C  Rav=1.1954 sigma=0.0011  Rmin=1.1943  Rmax=1.1965     2

 selected bond angles (degree)
 --------------------
H15-C1-N2=119.70               H16-C1-N2=119.66               H16-C1-H15=120.61              C3-N2-C1=129.39                
C6-N2-C1=121.16                C6-N2-C3=109.42                N4-C3-N2=110.24                H18-C3-N2=125.19               
H18-C3-N4=124.53               C5-N4-C3=110.85                H25-N4-C3=123.36               H25-N4-C5=125.78               
C6-C5-N4=109.17                N13-C5-N4=129.40               N13-C5-C6=120.27               C5-C6-N2=100.00                
C7-C6-N2=108.59                C7-C6-C5=101.60                H17-C6-N2=116.08               H17-C6-C5=120.66               
H17-C6-C7=108.54               O8-C7-C6=120.99                N9-C7-C6=110.68                N9-C7-O8=128.22                
C10-N9-C7=117.81               C11-N9-C7=126.79               C11-N9-C10=115.05              H19-C10-N9=108.63              
H20-C10-N9=108.54              H20-C10-H19=110.60             H21-C10-N9=110.42              H21-C10-H19=109.60             
H21-C10-H20=109.04             

 selected dihedral angles (degree)
 ---------------------------------
C3-N2-C1-H15=181.13           C3-N2-C1-H16=359.12           C6-N2-C1-H15=  3.11           C6-N2-C1-H16=181.10           
N4-C3-N2-C1=176.91            N4-C3-N2-C6=355.12            H18-C3-N2-C1=359.15           H18-C3-N2-C6=177.36           
C5-N4-C3-N2=  1.87            C5-N4-C3-H18=179.64           H25-N4-C3-N2=182.54           H25-N4-C3-H18=  0.31          
C6-C5-N4-C3=  1.92            C6-C5-N4-H25=181.23           N13-C5-N4-C3=194.46           N13-C5-N4-H25= 13.77          
C5-C6-N2-C1=183.89            C5-C6-N2-C3=  5.51            C7-C6-N2-C1=289.84            C7-C6-N2-C3=111.45            
H17-C6-N2-C1= 52.38           H17-C6-N2-C3=234.00           N2-C6-C5-N4=355.59            N2-C6-C5-N13=164.38           
C7-C6-C5-N4=244.08            C7-C6-C5-N13= 52.88           H17-C6-C5-N4=124.15           H17-C6-C5-N13=292.95          
O8-C7-C6-N2= 28.60            O8-C7-C6-C5=133.43            O8-C7-C6-H17=261.59           N9-C7-C6-N2=205.25            
N9-C7-C6-C5=310.09            N9-C7-C6-H17= 78.24           C10-N9-C7-C6=195.68           C10-N9-C7-O8= 12.02           
C11-N9-C7-C6= 22.88           C11-N9-C7-O8=199.22           H19-C10-N9-C7= 20.09          H19-C10-N9-C11=193.73         
H20-C10-N9-C7=140.39          H20-C10-N9-C11=314.03         H21-C10-N9-C7=259.87          H21-C10-N9-C11= 73.51         
           -------------------------------------------------
          |                Final Singlepoint                |
           -------------------------------------------------

          ...................................................
          :                      SETUP                      :
          :.................................................:
          :  # basis functions                  67          :
          :  # atomic orbitals                  67          :
          :  # shells                           39          :
          :  # electrons                        74          :
          :  max. iterations                   250          :
          :  Hamiltonian                  GFN2-xTB          :
          :  restarted?                      false          :
          :  GBSA solvation                  false          :
          :  PC potential                    false          :
          :  electronic temp.         5000.0000000     K    :
          :  accuracy                    1.0000000          :
          :  -> integral cutoff          0.2500000E+02      :
          :  -> integral neglect         0.1000000E-07      :
          :  -> SCF convergence          0.1000000E-05 Eh   :
          :  -> wf. convergence          0.1000000E-03 e    :
          :  Broyden damping             0.4000000          :
          ...................................................

 iter      E             dE          RMSdq      gap      omega  full diag
   1    -42.6985978 -0.426986E+02  0.857E-05    1.61       0.0  T
   2    -42.6985978  0.184741E-12  0.630E-05    1.61     317.4  T
   3    -42.6985978 -0.465192E-10  0.464E-05    1.61     431.3  T

   *** convergence criteria satisfied after 3 iterations ***

         #    Occupation            Energy/Eh            Energy/eV
      -------------------------------------------------------------
         1        2.0000           -0.9145829             -24.8871
       ...           ...                  ...                  ...
        31        1.9998           -0.6285808             -17.1046
        32        1.9994           -0.6108504             -16.6221
        33        1.9992           -0.6080147             -16.5449
        34        1.9974           -0.5883987             -16.0111
        35        1.9959           -0.5812765             -15.8173
        36        1.9927           -0.5723944             -15.5756
        37        1.7295           -0.5128629             -13.9557 (HOMO)
        38        0.2637           -0.4536423             -12.3442 (LUMO)
        39        0.0182           -0.4092606             -11.1365
        40        0.0043           -0.3861165             -10.5068
        41        0.0004           -0.3471748              -9.4471
        42        0.0000           -0.2409017              -6.5553
       ...           ...                  ...                  ...
        67                         10.4417600             284.1348
      -------------------------------------------------------------
                  HL-Gap            0.0592206 Eh            1.6115 eV
             Fermi-level           -0.4834872 Eh          -13.1564 eV

 SCC (total)                   0 d,  0 h,  0 min,  0.020 sec
 SCC setup                      ...        0 min,  0.000 sec (  0.867%)
 Dispersion                     ...        0 min,  0.000 sec (  0.801%)
 classical contributions        ...        0 min,  0.000 sec (  0.314%)
 integral evaluation            ...        0 min,  0.004 sec ( 20.716%)
 iterations                     ...        0 min,  0.004 sec ( 20.487%)
 molecular gradient             ...        0 min,  0.011 sec ( 56.225%)
 printout                       ...        0 min,  0.000 sec (  0.558%)

         :::::::::::::::::::::::::::::::::::::::::::::::::::::
         ::                     SUMMARY                     ::
         :::::::::::::::::::::::::::::::::::::::::::::::::::::
         :: total energy             -59.751818299671 Eh    ::
         :: gradient norm              0.003052075921 Eh/a0 ::
         :: HOMO-LUMO gap              1.611475328528 eV    ::
         ::.................................................::
         :: SCC energy               -42.698597835417 Eh    ::
         :: -> isotropic ES            0.133453499239 Eh    ::
         :: -> anisotropic ES         -0.000611743407 Eh    ::
         :: -> anisotropic XC          0.014345695357 Eh    ::
         :: -> dispersion             -0.023136269384 Eh    ::
         :: repulsion energy           2.260425950361 Eh    ::
         :: add. restraining         -19.313805177891 Eh    ::
         :: total charge               1.000000000000 e     ::
         :::::::::::::::::::::::::::::::::::::::::::::::::::::

           -------------------------------------------------
          |                Property Printout                |
           -------------------------------------------------

    * Orbital Energies and Occupations

         #    Occupation            Energy/Eh            Energy/eV
      -------------------------------------------------------------
         1        2.0000           -0.9145829             -24.8871
       ...           ...                  ...                  ...
        25        2.0000           -0.6789054             -18.4740
        26        2.0000           -0.6733932             -18.3240
        27        2.0000           -0.6668963             -18.1472
        28        2.0000           -0.6634259             -18.0527
        29        1.9999           -0.6407769             -17.4364
        30        1.9998           -0.6331917             -17.2300
        31        1.9998           -0.6285808             -17.1046
        32        1.9994           -0.6108504             -16.6221
        33        1.9992           -0.6080147             -16.5449
        34        1.9974           -0.5883987             -16.0111
        35        1.9959           -0.5812765             -15.8173
        36        1.9927           -0.5723944             -15.5756
        37        1.7295           -0.5128629             -13.9557 (HOMO)
        38        0.2637           -0.4536423             -12.3442 (LUMO)
        39        0.0182           -0.4092606             -11.1365
        40        0.0043           -0.3861165             -10.5068
        41        0.0004           -0.3471748              -9.4471
        42        0.0000           -0.2409017              -6.5553
        43                         -0.2011427              -5.4734
        44                         -0.1966669              -5.3516
        45                         -0.1609146              -4.3787
        46                         -0.1330667              -3.6209
        47                         -0.0929629              -2.5296
        48                         -0.0639308              -1.7396
       ...                                ...                  ...
        67                         10.4417600             284.1348
      -------------------------------------------------------------
                  HL-Gap            0.0592206 Eh            1.6115 eV
             Fermi-level           -0.4834872 Eh          -13.1564 eV

     #   Z          covCN         q      C6AA      α(0)
     1   6 C        2.787    -0.067    29.657     8.920
     2   7 N        2.779     0.090    19.691     6.590
     3   6 C        2.915     0.001    28.015     8.679
     4   7 N        2.729    -0.050    22.204     6.998
     5   6 C        2.977     0.085    26.105     8.381
     6   6 C        3.838    -0.064    21.703     6.628
     7   6 C        2.757     0.268    22.483     7.765
     8   8 O        0.857    -0.318    20.110     6.012
     9   7 N        2.735    -0.087    22.945     7.114
    10   6 C        3.708    -0.062    21.832     6.679
    11   6 C        2.723     0.315    21.650     7.617
    12   8 O        0.859    -0.337    20.460     6.065
    13   7 N        2.734    -0.064    22.473     7.041
    14   6 C        3.697    -0.072    22.057     6.718
    15   1 H        0.926     0.117     1.635     2.000
    16   1 H        0.926     0.109     1.709     2.044
    17   1 H        0.940     0.190     1.150     1.676
    18   1 H        0.927     0.115     1.651     2.009
    19   1 H        0.925     0.103     1.756     2.072
    20   1 H        0.925     0.111     1.684     2.029
    21   1 H        0.925     0.093     1.849     2.127
    22   1 H        0.924     0.082     1.958     2.188
    23   1 H        0.925     0.087     1.903     2.158
    24   1 H        0.925     0.126     1.564     1.956
    25   1 H        0.860     0.229     0.970     1.542

 Mol. C6AA /au·bohr⁶  :       6515.906704
 Mol. C8AA /au·bohr⁸  :     149813.831868
 Mol. α(0) /au        :        123.009364


Wiberg/Mayer (AO) data.
largest (>0.10) Wiberg bond orders for each atom

 ---------------------------------------------------------------------------
     #   Z sym  total        # sym  WBO       # sym  WBO       # sym  WBO
 ---------------------------------------------------------------------------
     1   6 C    3.672 --     2 N    1.436    15 H    0.965    16 H    0.962
                             3 C    0.163
     2   7 N    3.711 --     1 C    1.436     3 C    1.240     6 C    0.957
     3   6 C    3.708 --     2 N    1.240     4 N    1.193    18 H    0.954
                             1 C    0.163     5 C    0.103
     4   7 N    3.559 --     5 C    1.281     3 C    1.193    25 H    0.916
     5   6 C    3.766 --     4 N    1.281    13 N    1.208     6 C    1.011
                             3 C    0.103
     6   6 C    3.920 --     5 C    1.011     2 N    0.957    17 H    0.923
                             7 C    0.798
     7   6 C    3.907 --     8 O    1.779     9 N    1.206     6 C    0.798
     8   8 O    2.135 --     7 C    1.779     9 N    0.158
     9   7 N    3.551 --     7 C    1.206    11 C    1.054    10 C    0.951
                             8 O    0.158    12 O    0.109
    10   6 C    3.912 --    19 H    0.974    21 H    0.969    20 H    0.966
                             9 N    0.951
    11   6 C    3.916 --    12 O    1.725     9 N    1.054    13 N    1.047
    12   8 O    2.043 --    11 C    1.725    13 N    0.116     9 N    0.109
    13   7 N    3.509 --     5 C    1.208    11 C    1.047    14 C    0.966
                            12 O    0.116
    14   6 C    3.921 --    23 H    0.974    22 H    0.969    13 N    0.966
                            24 H    0.964
    15   1 H    0.986 --     1 C    0.965
    16   1 H    0.987 --     1 C    0.962
    17   1 H    0.960 --     6 C    0.923
    18   1 H    0.986 --     3 C    0.954
    19   1 H    0.988 --    10 C    0.974
    20   1 H    0.986 --    10 C    0.966
    21   1 H    0.989 --    10 C    0.969
    22   1 H    0.989 --    14 C    0.969
    23   1 H    0.989 --    14 C    0.974
    24   1 H    0.983 --    14 C    0.964
    25   1 H    0.948 --     4 N    0.916
 ---------------------------------------------------------------------------

Topologies differ in total number of bonds
Writing topology from bond orders to xtbtopo.mol

molecular dipole:
                 x           y           z       tot (Debye)
 q only:        1.900      -1.584      -0.083
   full:        2.156      -1.907      -0.008       7.317
molecular quadrupole (traceless):
                xx          xy          yy          xz          yz          zz
 q only:        7.548      -5.628       6.923      -2.153      -4.091     -14.471
  q+dip:        5.255      -7.565       7.286      -2.053      -6.575     -12.540
   full:        4.313      -7.625       7.225      -2.719      -6.387     -11.538

           -------------------------------------------------
          |                Geometry Summary                 |
           -------------------------------------------------

      molecular mass/u    :      195.1988581
   center of mass at/Å    :        0.0988006       0.0173269      -0.0415388
  moments of inertia/u·Å² :        0.4556208E+03   0.7218831E+03   0.1113117E+04
rotational constants/cm⁻¹ :        0.3699926E-01   0.2335230E-01   0.1514453E-01

 * 23 selected distances

     #   Z          #   Z                                           value/Å
     1   6 C        2   7 N                                       1.3094463
     2   7 N        3   6 C                                       1.3499365
     3   6 C        4   7 N                                       1.3643372
     4   7 N        5   6 C                                       1.3400090
     7   6 C        8   8 O                                       1.1942539
     7   6 C        9   7 N                                       1.3547144
     9   7 N       10   6 C                                       1.4631340 (max)
     9   7 N       11   6 C                                       1.4038997
    11   6 C       12   8 O                                       1.1965069
     5   6 C       13   7 N                                       1.3485278
    11   6 C       13   7 N                                       1.4046888
    13   7 N       14   6 C                                       1.4530695
     1   6 C       15   1 H                                       1.0724736
     1   6 C       16   1 H                                       1.0731738
     6   6 C       17   1 H                                       0.4244344 (min)
     3   6 C       18   1 H                                       1.0688872
    10   6 C       19   1 H                                       1.0866593
    10   6 C       20   1 H                                       1.0882562
    10   6 C       21   1 H                                       1.0896424
    14   6 C       22   1 H                                       1.0913003
    14   6 C       23   1 H                                       1.0886530
    14   6 C       24   1 H                                       1.0892463
     4   7 N       25   1 H                                       1.0103050

 * 4 distinct bonds (by element types)

   Z      Z             #   av. dist./Å        max./Å        min./Å
   1 H    6 C          10     1.0172726     1.0913003     0.4244344
   1 H    7 N           1     1.0103050     1.0103050     1.0103050
   6 C    7 N          10     1.3791763     1.4631340     1.3094463
   6 C    8 O           2     1.1953804     1.1965069     1.1942539


optimized geometry written to: xtbopt.xyz


           -------------------------------------------------
          | TOTAL ENERGY              -59.751818299671 Eh   |
          | GRADIENT NORM               0.003052075921 Eh/α |
          | HOMO-LUMO GAP               1.611475328528 eV   |
           -------------------------------------------------

------------------------------------------------------------------------
 * finished run on 2024/06/05 at 19:58:33.012     
------------------------------------------------------------------------
 total:
 * wall-time:     0 d,  0 h,  0 min,  1.848 sec
 *  cpu-time:     0 d,  0 h,  0 min,  1.823 sec
 * ratio c/w:     0.987 speedup
 SCF:
 * wall-time:     0 d,  0 h,  0 min,  0.034 sec
 *  cpu-time:     0 d,  0 h,  0 min,  0.034 sec
 * ratio c/w:     1.000 speedup
 ANC optimizer:
 * wall-time:     0 d,  0 h,  0 min,  1.782 sec
 *  cpu-time:     0 d,  0 h,  0 min,  1.777 sec
 * ratio c/w:     0.998 speedup

