25
 energy: -43.834715453924 gnorm: 0.075145479492 xtb: 6.6.1 (8d0f1dd)
C            3.25850672088363        1.16472637025976        0.09162771046169
N            2.31347809296653        0.08716368892664        0.03851115956830
C            2.59970729246264       -1.23272961280290        0.02495676431176
N            1.43316248670471       -1.95450331331603       -0.01393039099872
C            0.41187382219998       -1.06468682534044       -0.00261864817417
C            0.92926793722253        0.22146147439689        0.04001872692507
C            0.09919121662339        1.38656090947297        0.01716204002477
O            0.50257060949254        2.55413729918836        0.03390840404734
N           -1.29934623443947        1.06955570598326       -0.00862699498883
C           -2.29779615410499        2.20680985768528       -0.09016624477459
C           -1.82225497195557       -0.19851242265934       -0.01952592245288
O           -3.01932646414152       -0.40413188230486       -0.03714366086961
N           -0.92671207600067       -1.29955631006421       -0.00925313006806
C           -1.44947387977237       -2.65255585477817       -0.05452200795041
H            3.75543912653354        1.19308030589476        1.07357455888293
H            4.02537541584035        1.03145598353638       -0.67565445695937
H            2.72502681383408        2.08473024054784       -0.06221957054814
H            3.58688295897883       -1.66767106111637        0.02677162262224
H           -1.73723107222496        3.13929755319312       -0.06014840039127
H           -2.87967507997000        2.14875038773866       -0.97574566024609
H           -2.93579898076931        2.13868283164006        0.78765697849851
H           -1.14111592770685       -3.21223922009710        0.82992716596469
H           -1.12040517206167       -3.17907956047756       -0.95368179080862
H           -2.53587962424203       -2.57395739937457       -0.06465036999157
H            1.36538615746839       -2.95763787289675       -0.04191160047824
25
 energy: -43.836932587630 gnorm: 0.031367419661 xtb: 6.6.1 (8d0f1dd)
C            3.25925055239771        1.17005306021711        0.09523527829646
N            2.31185970853648        0.09998371093441        0.03708163725590
C            2.60210818757474       -1.23883964575709        0.02345833827510
N            1.42131302452050       -1.94375412066480       -0.01090723917281
C            0.40331954894392       -1.05563062428825       -0.00240364412334
C            0.92175778783665        0.23093020183368        0.03476824157049
C            0.09813396613079        1.38865387659712        0.01417178807304
O            0.48495634663438        2.56352798603355        0.02747340241210
N           -1.29519900388114        1.05866555658794       -0.01595121185903
C           -2.26755952717517        2.17661010045481       -0.07439665633778
C           -1.82954920007739       -0.19705453491789       -0.02694334799472
O           -3.02676041383672       -0.40216582500078       -0.04206855298388
N           -0.93686125436283       -1.29381451781739       -0.01220159001954
C           -1.45635852084758       -2.64323378424263       -0.05233323502641
H            3.75593544979061        1.19780592293272        1.07332764269764
H            4.02251849260074        1.03885140665374       -0.67574495774413
H            2.72038496225967        2.09771624763590       -0.05935082307989
H            3.57856556148848       -1.67347997603914        0.02385678606137
H           -1.69430177597508        3.10145953625696       -0.05337467476249
H           -2.85372542063990        2.11207275311988       -0.97936569215005
H           -2.92313330828429        2.12130797340140        0.79309968281418
H           -1.14258408931300       -3.20247824859717        0.83206481962021
H           -1.12033029946997       -3.16414216088403       -0.95253159540204
H           -2.54256662507637       -2.56774050188948       -0.06457612001160
H            1.34967886404649       -2.94615311932485       -0.03807199480207
25
 energy: -43.838058432871 gnorm: 0.012082579866 xtb: 6.6.1 (8d0f1dd)
C            3.26487297970961        1.16134403411449        0.09598318062124
N            2.31378601243224        0.09996025228063        0.03806781140558
C            2.61089864675115       -1.24908381450017        0.02533388813849
N            1.42337371790358       -1.94539569584330       -0.01206207620087
C            0.40524130141598       -1.05854462711620       -0.00108217528891
C            0.91983362066642        0.22966395673600        0.03598876640159
C            0.10125083517398        1.38727942690308        0.02012450584216
O            0.48968567681891        2.56135484764214        0.03464981879212
N           -1.29819423561670        1.06694252305219       -0.01911029776824
C           -2.26864909983320        2.17946441053979       -0.07397562310073
C           -1.82752385323376       -0.19103888559227       -0.02178869793648
O           -3.02324557031915       -0.40168440704829       -0.03597339625830
N           -0.93648875994409       -1.29283094827795       -0.01204212116663
C           -1.45029989424992       -2.64486562010200       -0.05299208405739
H            3.75861226523041        1.19155006735883        1.07277883909397
H            4.02657681415898        1.02768669942183       -0.67612711750364
H            2.72473822683121        2.09229082173893       -0.06428158341312
H            3.58438034028134       -1.67518292952419        0.02667666858043
H           -1.73122189493305        3.12696042877906       -0.05979778119130
H           -2.87810408920787        2.13035713344213       -0.97921443974001
H           -2.93883518712427        2.13627303502814        0.78442794158244
H           -1.13534676456770       -3.20923017770287        0.82894920232479
H           -1.11545557776522       -3.16998993888640       -0.95252141125577
H           -2.53593056709029       -2.57510765147799       -0.06430428101384
H            1.35689807033314       -2.94902166772991       -0.04339125528087
25
 energy: -43.837991937914 gnorm: 0.009461098800 xtb: 6.6.1 (8d0f1dd)
C            3.25711776844793        1.16581157627201        0.09608874056444
N            2.31106261405522        0.09965406519425        0.03646557429399
C            2.61141071925999       -1.24728553603588        0.02420636194575
N            1.42747573393696       -1.94904592194102       -0.01070406789991
C            0.40741193579674       -1.06582749368126       -0.00144821590602
C            0.91892301946136        0.22384231828816        0.03465572658638
C            0.10307855408370        1.38243309867051        0.01690250271597
O            0.49474174407197        2.55427476186546        0.02895147767104
N           -1.29909287429593        1.06626759454886       -0.01947716639980
C           -2.26369138515286        2.18363760821011       -0.07481836402436
C           -1.82531131688768       -0.19466616295574       -0.02213223843776
O           -3.02056431352181       -0.40761652968454       -0.03902895115732
N           -0.93447607343317       -1.29849288658753       -0.01319207957258
C           -1.45554540662818       -2.64808808141033       -0.05322315297393
H            3.75056857816735        1.19901222047023        1.07327227734569
H            4.01998972749658        1.04249879445782       -0.67647673187870
H            2.71453905958219        2.09394167837384       -0.05998279324506
H            3.58882276707290       -1.66520859339766        0.02505679673322
H           -1.71661760734644        3.12567505002167       -0.05661004237949
H           -2.87353323377776        2.14660579102722       -0.97847384650125
H           -2.92803135966100        2.13497718227938        0.78799729221309
H           -1.14833604247879       -3.21102352800808        0.83206397715485
H           -1.12585290431752       -3.17890410808822       -0.95168415785118
H           -2.54082197049497       -2.56930624972189       -0.06542131342153
H            1.36758528038493       -2.95401537493169       -0.03867132396881
25
 energy: -43.838220441420 gnorm: 0.004308972878 xtb: 6.6.1 (8d0f1dd)
C            3.26212868384879        1.16237603052542        0.09539732228725
N            2.31073115564427        0.10019693187573        0.03698292160355
C            2.60664279468457       -1.24620408660796        0.02452769182885
N            1.42277646391093       -1.94617809195458       -0.01159671561297
C            0.40584221667865       -1.06145409614589       -0.00084282854120
C            0.91909037385048        0.22770385155274        0.03621018491275
C            0.10203614858165        1.38649118796472        0.01904207817349
O            0.49183905585212        2.55869850620918        0.03175168145565
N           -1.30108772093351        1.06846168685358       -0.01524616484772
C           -2.26994186760406        2.18067346309374       -0.07617379360455
C           -1.82683787164025       -0.19259324410188       -0.02000656857093
O           -3.02224362458266       -0.40563167803438       -0.03778268908091
N           -0.93497359439971       -1.29490141489237       -0.01201310652713
C           -1.45246638890047       -2.64531615963617       -0.05373515755486
H            3.75706039244353        1.19364946860689        1.07251385081751
H            4.02488247436761        1.03337261557519       -0.67641759188639
H            2.72644984401749        2.09306246257198       -0.06139702108241
H            3.58378034299307       -1.66708745825411        0.02512289343947
H           -1.72072131994830        3.12140477264668       -0.06007012633032
H           -2.87292488672227        2.13315471685534       -0.98089249183306
H           -2.93341155756231        2.12966895505519        0.78747669592675
H           -1.14050388570297       -3.20718010323133        0.83037044210972
H           -1.11968289262566       -3.17096877591379       -0.95386002057547
H           -2.53831578842485       -2.57124709501910       -0.06463997353900
H            1.36070446599558       -2.95100117235913       -0.04040523136134
25
 energy: -43.838220923610 gnorm: 0.003301887102 xtb: 6.6.1 (8d0f1dd)
C            3.26095540225581        1.16270465474856        0.09581129378339
N            2.31200363244791        0.09923010755899        0.03739105791462
C            2.60789763326740       -1.24858466411069        0.02566675578040
N            1.42240393398454       -1.94617109013643       -0.01240487070976
C            0.40596473655052       -1.06113616102154       -0.00231315096855
C            0.91992884519521        0.22777293870348        0.03455232963766
C            0.10340937074533        1.38649321677403        0.01661932414560
O            0.49129588114574        2.55949148931045        0.03188616356184
N           -1.30013505107323        1.06829730192658       -0.01840445878045
C           -2.26818840756635        2.18110150312260       -0.07359449605437
C           -1.82674538105493       -0.19185240291558       -0.02478072650932
O           -3.02253549482118       -0.40345446723169       -0.03914906219305
N           -0.93523472602530       -1.29451245618045       -0.01378570754907
C           -1.45128862622938       -2.64583616675569       -0.05250887928512
H            3.75448481853274        1.19588866196033        1.07358131978451
H            4.02419278916153        1.03313795454416       -0.67548997676154
H            2.72068476109040        2.09150732629226       -0.06356325588910
H            3.58418028605687       -1.67185980256963        0.02741378980321
H           -1.72241360857970        3.12404371305187       -0.05732966806677
H           -2.87337521412128        2.13315288615450       -0.97745593086171
H           -2.93379248114529        2.13510333297655        0.78862877998359
H           -1.13804991446060       -3.20786763222999        0.83120123854830
H           -1.11689419013613       -3.17221227581044       -0.95133985446812
H           -2.53729174420583       -2.57459709107152       -0.06420895737243
H            1.35939576280693       -2.95068960385500       -0.04210677586701
25
 energy: -43.838239137711 gnorm: 0.002053901311 xtb: 6.6.1 (8d0f1dd)
C            3.26160756777695        1.16326440634599        0.09569660112742
N            2.31240363475344        0.09992652771632        0.03752541908729
C            2.60891437620894       -1.24787640374042        0.02461377389010
N            1.42360101517222       -1.94596887376650       -0.01145488437060
C            0.40652919290950       -1.06171259343781       -0.00038622523793
C            0.92008394096992        0.22758371487951        0.03654569574798
C            0.10350500576458        1.38589893757320        0.01909596752129
O            0.49074468952915        2.55905745454887        0.03245230814736
N           -1.30041374640626        1.06754408648015       -0.01700327858361
C           -2.26802571944678        2.18023909139292       -0.07580689837877
C           -1.82655383133939       -0.19269800688773       -0.02134245292707
O           -3.02224070725305       -0.40479463403835       -0.03684543096048
N           -0.93490830601108       -1.29519024048521       -0.01169879165478
C           -1.45302710317808       -2.64564140414210       -0.05316688916944
H            3.75692826653640        1.19436762016958        1.07257598668898
H            4.02373541911259        1.03447158448418       -0.67688981055857
H            2.72206542044628        2.09299997426693       -0.06121881768132
H            3.58561197666364       -1.66994237146659        0.02428704574403
H           -1.72271995737438        3.12354072775826       -0.05926381137139
H           -2.87310765070065        2.13311529604997       -0.98007758595374
H           -2.93450151745052        2.13434293502787        0.78574674859977
H           -1.14164629954670       -3.20991698428771        0.82972516622010
H           -1.12059935383046       -3.17148574677318       -0.95312481852260
H           -2.53881872995470       -2.57135160163811       -0.06479100931750
H            1.36168543047017       -2.95062222279434       -0.04087772647979
25
 energy: -43.838238314209 gnorm: 0.001966217697 xtb: 6.6.1 (8d0f1dd)
C            3.26179984617836        1.16273189661762        0.09549830009971
N            2.31133191078119        0.10019359649577        0.03668963522338
C            2.60745731547744       -1.24705167789151        0.02501967339233
N            1.42288167826493       -1.94591159230122       -0.01170590067006
C            0.40592293086921       -1.06173429922519       -0.00159659599717
C            0.91924735808371        0.22768445065337        0.03520978027991
C            0.10307470773804        1.38605846291525        0.01769201697700
O            0.49099082220746        2.55878864187434        0.03074066093200
N           -1.30131291569694        1.06787105610519       -0.01742465917675
C           -2.26884453020283        2.18068387700144       -0.07541486140889
C           -1.82700085396027       -0.19279173274904       -0.02159912105090
O           -3.02254392019506       -0.40544269575872       -0.03837858738510
N           -0.93516941242620       -1.29517875244258       -0.01290560392009
C           -1.45247405670756       -2.64578663043347       -0.05350907191265
H            3.75571697646985        1.19394752122014        1.07311036507855
H            4.02527551375996        1.03307216605163       -0.67557020507662
H            2.72519184617869        2.09337110709606       -0.06237548625493
H            3.58454253734541       -1.66790525513426        0.02647513718918
H           -1.72128221926823        3.12264012064186       -0.05810501106795
H           -2.87471469620393        2.13607833064935       -0.97894777822885
H           -2.93233011933278        2.13056876077553        0.78820471150940
H           -1.14048033091913       -3.20727567144931        0.83085380541250
H           -1.11966302281619       -3.17274903500955       -0.95286703023679
H           -2.53827658693821       -2.57189369280560       -0.06472981603921
H            1.36151223513482       -2.95081767966142       -0.04004807606127
25
 energy: -43.838239678676 gnorm: 0.001629374035 xtb: 6.6.1 (8d0f1dd)
C            3.26057325244593        1.16290669145089        0.09562523728699
N            2.31158783860934        0.09926725344577        0.03746476653827
C            2.60752845137177       -1.24820528849767        0.02475998691909
N            1.42253952800753       -1.94638909203284       -0.01237841544340
C            0.40594592184153       -1.06184242661106       -0.00108265746552
C            0.91959950990043        0.22734382380236        0.03632500130328
C            0.10406379583492        1.38612177550894        0.01930631327775
O            0.49210364489903        2.55881096371328        0.03340914571818
N           -1.30054549822999        1.06824704798588       -0.01618021980018
C           -2.26814917305198        2.18095109635666       -0.07554328090659
C           -1.82657685104620       -0.19215057519380       -0.02160769950680
O           -3.02223867503411       -0.40415531920098       -0.03799856999572
N           -0.93514577589751       -1.29489965097940       -0.01227592783083
C           -1.45192268798024       -2.64577439827304       -0.05296364905963
H            3.75545220261749        1.19559161862803        1.07276289759819
H            4.02299136997263        1.03475748351115       -0.67674580012913
H            2.72091024565119        2.09196758708129       -0.06186942545778
H            3.58435748118962       -1.66999954057693        0.02512658349453
H           -1.72132800494071        3.12340252703557       -0.05987397181002
H           -2.87190894006838        2.13283297721613       -0.98009412115598
H           -2.93410132090044        2.13450017440018        0.78666080409984
H           -1.13936569406804       -3.20828799060614        0.83061923666502
H           -1.11827285438821       -3.17153400481661       -0.95257419930585
H           -2.53781226472360       -2.57313124737351       -0.06432986005307
H            1.36056751180972       -2.95118021273845       -0.04222589337392
25
 energy: -43.838236797380 gnorm: 0.002177234009 xtb: 6.6.1 (8d0f1dd)
C            3.26215346652731        1.16299544548572        0.09581162828102
N            2.31275159023682        0.09981648051604        0.03741959376938
C            2.60886833881237       -1.24798277333204        0.02529574047988
N            1.42355449238651       -1.94579292655642       -0.01101771770277
C            0.40665343374521       -1.06151496102327       -0.00098865858671
C            0.92027612492400        0.22793118555111        0.03533847061374
C            0.10399206078018        1.38624491483847        0.01684820635163
O            0.49049984723363        2.55953694869221        0.03042059517634
N           -1.30060201803474        1.06768165253058       -0.01804098158354
C           -2.26879948389169        2.18005137236736       -0.07444770281878
C           -1.82638013815424       -0.19254253009634       -0.02307926846862
O           -3.02206467799463       -0.40479909877455       -0.03750358825078
N           -0.93473427799136       -1.29494619898166       -0.01253745492491
C           -1.45306050850769       -2.64541116407605       -0.05317897847909
H            3.75705237464079        1.19456227096044        1.07296484243755
H            4.02472530952316        1.03374938235733       -0.67627329143072
H            2.72280359727486        2.09261384214398       -0.06181532362953
H            3.58559756832632       -1.67023811130457        0.02564891376170
H           -1.72374526891151        3.12350484611785       -0.05772947243594
H           -2.87405710876522        2.13260609111533       -0.97835779919358
H           -2.93478894086286        2.13380839288905        0.78754158187599
H           -1.14196804085567       -3.20977986298677        0.82977471415963
H           -1.12064825466007       -3.17139265169743       -0.95298464313693
H           -2.53886354121955       -2.57105827386938       -0.06497370411044
H            1.36163706925979       -2.95049299963129       -0.03981942054780
25
 energy: -43.825437998778 gnorm: 0.093223225312 xtb: 6.6.1 (8d0f1dd)
C            3.27751658657435        1.15351781730453        0.09915127839577
N            2.33144392661097        0.09156608870774        0.03611819749810
C            2.61681808214718       -1.25144557471101        0.01627338600756
N            1.42838884783679       -1.96500577018572       -0.03770768378974
C            0.43057272722172       -1.06934864395065        0.00973403104363
C            0.92405197934067        0.22567360415201        0.06443419481743
C            0.09738241923302        1.37431659272540        0.04278117337771
O            0.49346145600739        2.55130109494193        0.07838141251176
N           -1.34480456869749        1.09056679735347        0.01261104174061
C           -2.37160898754188        2.26014019924875       -0.13710600864102
C           -1.82622883833351       -0.19374150131432        0.00780991919396
O           -3.02398169356085       -0.42853976660175        0.00429354878323
N           -0.92373217339175       -1.29131765762329        0.01772522432580
C           -1.42883040858969       -2.65628163990681       -0.04749068347227
H            3.79359702859945        1.16261213910140        1.07856285558566
H            4.04213492843059        1.02507855313996       -0.67576839616102
H            2.75341154743651        2.07523840102021       -0.03402532489087
H            3.60052797970100       -1.69488010780720        0.00003390109290
H           -1.79943122267360        3.18515107793701       -0.10195438650626
H           -2.93220586866708        2.19674060303312       -1.01419951778681
H           -2.99405854077370        2.19882564844956        0.75614223872352
H           -1.10953683731510       -3.22457887900027        0.82860813903857
H           -1.09465015196316       -3.17851442368634       -0.95015300499569
H           -2.51796036505415       -2.59274262672264       -0.05402667119045
H            1.36017987309576       -2.96548916146495       -0.07666877519122
25
 energy: -43.830204799770 gnorm: 0.038914053588 xtb: 6.6.1 (8d0f1dd)
C            3.27476058354174        1.15641155427593        0.10365114358415
N            2.31831974509246        0.10054157216306        0.03534746559390
C            2.60597238359646       -1.24739673456420        0.01344925638497
N            1.41655624790401       -1.94702536983461       -0.03077771572685
C            0.41051348361201       -1.05637052750249        0.00674002459516
C            0.91458802226094        0.23594127234550        0.05611313624266
C            0.09345827169172        1.38697404703838        0.03781698139460
O            0.47522775823998        2.56315186013102        0.06727899355340
N           -1.32727335363619        1.07434899912148       -0.00238924020788
C           -2.31569287074816        2.20983283615084       -0.10584711518492
C           -1.83611480419151       -0.19237023142403       -0.00469426217067
O           -3.03141798782063       -0.41999409191544       -0.00608591540868
N           -0.93682629013762       -1.28519633659190        0.01064637646336
C           -1.43949123269309       -2.64374609165822       -0.04401642099215
H            3.78785929140642        1.16630742745355        1.07713907707648
H            4.03443875695221        1.03108981786126       -0.67461645890086
H            2.74762138710927        2.09141462922447       -0.03131245315977
H            3.58046202227686       -1.68698256692911       -0.00572455912458
H           -1.74282616003842        3.13504616373518       -0.08968260494863
H           -2.88523939039595        2.13261822700035       -1.01346478996062
H           -2.97421891865584        2.17268284153947        0.76174379237564
H           -1.11350613255925       -3.20918841649825        0.83253898814391
H           -1.09687699310269       -3.15426575815196       -0.94898856323152
H           -2.52675074735963       -2.58564438755129       -0.05308176499488
H            1.34891465332833       -2.94933787127888       -0.06822328188538
25
 energy: -43.832291755132 gnorm: 0.014175984302 xtb: 6.6.1 (8d0f1dd)
C            3.28426573955741        1.14483924422868        0.10494557910320
N            2.32026480234819        0.09395251529322        0.03843072329039
C            2.61348156326114       -1.25760146844633        0.01569020415153
N            1.42291995809450       -1.94848722144192       -0.03256633119508
C            0.41034626265720       -1.05903774760235        0.00775087550187
C            0.91693880993162        0.23213577630361        0.05832302085083
C            0.09186505485650        1.38785756409973        0.04678154028987
O            0.47761294433087        2.55890453547874        0.07832439499981
N           -1.32908862209991        1.08407850866458       -0.01042737536797
C           -2.31543990073648        2.21100347668548       -0.10674085506502
C           -1.83572990051666       -0.18627834033541        0.00490569483958
O           -3.02706693410753       -0.42060003377326        0.00502555489312
N           -0.93406713235278       -1.28449892127268        0.01156233316140
C           -1.43057701195278       -2.64579956967631       -0.04447460219765
H            3.79462136238272        1.15923132090622        1.07547210273888
H            4.04050243536875        1.02016089007576       -0.67592553990899
H            2.75438711736145        2.08416391981215       -0.03514651063901
H            3.58664830515405       -1.69244167241630       -0.00097638016838
H           -1.78944194899566        3.16695662981460       -0.10031438797713
H           -2.92370509043947        2.16409556243060       -1.01398483945478
H           -2.99326138326833        2.19282708656614        0.74761376378777
H           -1.10415552512211       -3.21771521838412        0.82866529164758
H           -1.08969476247958       -3.16174343761923       -0.94808065402525
H           -2.51648674159468       -2.59408619788580       -0.05309701926787
H            1.35731832403499       -2.95307433736569       -0.07819649447783
25
 energy: -43.832208901397 gnorm: 0.011391355386 xtb: 6.6.1 (8d0f1dd)
C            3.27647088576858        1.15357346702430        0.10415658751265
N            2.32102635071824        0.09468583344188        0.03569992617966
C            2.61860839939933       -1.25756460184860        0.01395531661986
N            1.42887723032724       -1.95390476218680       -0.02950159796173
C            0.41439599070474       -1.06654147802484        0.00878179269691
C            0.91891218967650        0.22553245378734        0.05577713111704
C            0.09215457929480        1.38137831189776        0.04267603704971
O            0.48455600268184        2.55100270407992        0.07114263282641
N           -1.33281935374539        1.08495217439362       -0.00620157767328
C           -2.31205268844299        2.21730785805989       -0.10747373908145
C           -1.83473136309922       -0.18973943062963        0.00496985672137
O           -3.02538689121522       -0.42880930969656        0.00065090909413
N           -0.93098508776936       -1.29057840621738        0.01081236725139
C           -1.43723723524986       -2.64935834245184       -0.04579815760547
H            3.78348738402859        1.17118818512117        1.07676866147603
H            4.03429089011338        1.03852075182638       -0.67637126682075
H            2.73992894335783        2.08732307468097       -0.03363123774236
H            3.59579842868220       -1.68703527028690       -0.00221087289598
H           -1.76963679019560        3.16310464741723       -0.09584502527020
H           -2.91857857248372        2.18651586931091       -1.01519732992199
H           -2.98269193376906        2.18849804986977        0.75296717523212
H           -1.11995894134890       -3.22113309145112        0.83081032341660
H           -1.10259043076052       -3.17420114565310       -0.94766145579875
H           -2.52346232983869       -2.58652752873351       -0.05524304151735
H            1.36408206883869       -2.95934714959076       -0.07047332539372
25
 energy: -43.832547190551 gnorm: 0.005517813694 xtb: 6.6.1 (8d0f1dd)
C            3.28248758717261        1.14987526841326        0.10444835576373
N            2.32090142347821        0.09680567011215        0.03642559183031
C            2.61408520518831       -1.25646824855166        0.01343646694164
N            1.42321973061318       -1.95056948605485       -0.03179837264636
C            0.41269907823420       -1.06095312964599        0.00926861494700
C            0.91907563507170        0.23052793426999        0.05718697409098
C            0.09089707435952        1.38604017906027        0.04446252866962
O            0.48294361379362        2.55665506121081        0.07419192071974
N           -1.33549169163983        1.08872429852351       -0.00021377439618
C           -2.32005182159518        2.21365010871325       -0.10878303709004
C           -1.83671336573972       -0.18620977891351        0.00627973390446
O           -3.02765185428246       -0.42562762891371        0.00153625211650
N           -0.93181813004107       -1.28609582570376        0.01207285231458
C           -1.43350620075533       -2.64596445086930       -0.04574581052494
H            3.79149209313901        1.16175395670661        1.07668881515338
H            4.03902927351445        1.02646175182385       -0.67596178719636
H            2.75396228427951        2.08663298527601       -0.03290003997715
H            3.59027472753971       -1.68899831699988       -0.00287233180190
H           -1.77619536089813        3.15871975435057       -0.10197342776077
H           -2.91714305735237        2.16665843672456       -1.01805321704901