25
 energy: 0.000000000000 xtb: 6.6.1 (8d0f1dd)
C            3.23720163006194        1.16630919979326        0.08434469647475
N            2.29877817382611        0.07527477071623        0.03981603040599
C            2.58028210190900       -1.21425402444508        0.03006176031096
N            1.43813958087363       -1.93419271955128        0.00098261760884
C            0.39035688448383       -1.05887472636071       -0.00790371836672
C            0.93510056364412        0.21347819449412        0.01709077491437
C            0.09450143893243        1.40504303904423       -0.00410947031874
O            0.49712751527797        2.54126714362870       -0.00342325688240
N           -1.25076640035757        1.06271879480407       -0.03085478223738
C           -2.21907211982101        2.15522099834493       -0.05001256985998
C           -1.81739487048744       -0.20012725993278       -0.04692818574614
O           -2.99983886758376       -0.37846417018721       -0.07008878229737
N           -0.92618586207120       -1.30210215599479       -0.03682761578324
C           -1.46982264913417       -2.64643102187190       -0.06029820460571
H            3.71247264356769        1.21471455160235        1.06488849150277
H            4.00791497605742        1.03430808813993       -0.67357694370751
H            2.69910007168542        2.09770118228144       -0.09130154882931
H            3.56654120610678       -1.63682992603973        0.04233140067262
H           -1.67107961066214        3.09322851271934       -0.02552706933167
H           -2.82428953597071        2.09428624779827       -0.95318082946668
H           -2.87644029173232        2.07745725625962        0.81450067533302
H           -1.17061996399332       -3.19584890659852        0.83242232437030
H           -1.14560257411436       -3.17511610292205       -0.95688275822323
H           -2.55549792440841       -2.55659984320617       -0.07459039797972
H            1.38130855184625       -2.94313852034425       -0.01389874181052
25
 energy: -5.261740945415 xtb: 6.6.1 (8d0f1dd)
C            3.27728928842399        1.16733925965187        0.08882684808868
N            2.31339599073492        0.10179037826398        0.03946184076009
C            2.59663821754122       -1.22695813292938        0.02979935443860
N            1.42362827353602       -1.93232068252745        0.00052311954651
C            0.39351895755015       -1.04803922918801       -0.00850688995258
C            0.93024641784567        0.23158790133569        0.01573890262876
C            0.09168981176348        1.40075156850964       -0.00566739341514
O            0.48173278239740        2.56869340552698       -0.00475799696971
N           -1.27077599872805        1.05114222130195       -0.03206637908157
C           -2.23761606139418        2.14249145575413       -0.05109935852155
C           -1.83100723232925       -0.20130318837534       -0.04807955249971
O           -3.02721827845997       -0.38770083833630       -0.07111190615888
N           -0.93737321914482       -1.29746890491728       -0.03746964497333
C           -1.47326294421297       -2.64123644019692       -0.05999056078934
H            3.77309088924310        1.21343282382313        1.06511368244852
H            4.05099525411111        1.03441496825251       -0.67341640688049
H            2.72313724419661        2.08811840472776       -0.08338211663122
H            3.57349297920973       -1.65414463966595        0.04203457843696
H           -1.68207465340336        3.07709349092834       -0.02680052829357
H           -2.84376997511239        2.08622612172897       -0.95503115571793
H           -2.89575646839180        2.06963149423978        0.81432256534564
H           -1.16964590983915       -3.19218713961087        0.83223892994017
H           -1.14486291755052       -3.17256167422397       -0.95545043247637
H           -2.55909065503968       -2.55383102720179       -0.07425352491760
H            1.35581287498898       -2.93593299469943       -0.01394207820761
25
 energy: -5.024447767265 xtb: 6.6.1 (8d0f1dd)
C            3.34833864994983        1.15510235872691        0.09523579178182
N            2.33252456367969        0.13158487134676        0.04032119482317
C            2.60440486764770       -1.23326760550702        0.03052169640607
N            1.40151112308996       -1.91469676420634        0.00041594670405
C            0.39448078502187       -1.02351227048955       -0.00923701036640
C            0.92637721396830        0.26330999410277        0.01466663513716
C            0.08086655224408        1.39883004358133       -0.00817658121309
O            0.43600794347503        2.59216681250569       -0.00729861422407
N           -1.30362101898823        1.03982058967636       -0.03481562904417
C           -2.27588700593797        2.12334314479629       -0.05395320442117
C           -1.84748852927542       -0.20299836943470       -0.05023722780610
O           -3.04905223573442       -0.40577212829986       -0.07318383303709
N           -0.94899989776928       -1.28458733940647       -0.03856764937104
C           -1.47345014825157       -2.63024433732657       -0.05911157788706
H            3.88561935200968        1.18929131964542        1.05806120728915
H            4.12329540520139        1.01951462022005       -0.67398742709934
H            2.79714685103226        2.07866421068683       -0.06194936789582
H            3.57045189394734       -1.67032638851721        0.04180196227472
H           -1.71798845031381        3.05668479489164       -0.03021257842008
H           -2.88499690412176        2.06668582901275       -0.95717836765023
H           -2.93620757725200        2.05057411715697        0.81113764163347
H           -1.16721824326458       -3.18271870316744        0.83296112995111
H           -1.14282318391013       -3.16568349409455       -0.95300075645915
H           -2.56020596899224       -2.54788667756279       -0.07334695233303
H            1.31912863048048       -2.91485002616523       -0.01383253262561
25
 energy: -0.217355282547 xtb: 6.6.1 (8d0f1dd)
C            3.44411029361690        1.12982569862225        0.10253854631451
N            2.35479482343780        0.16301497280735        0.04346387987075
C            2.60409393096616       -1.23192665098727        0.03264601839741
N            1.37897535908921       -1.88675614327923        0.00091656518418
C            0.39335151769422       -0.98942924446243       -0.00968202195199
C            0.92440566602320        0.30503025930737        0.01503450502131
C            0.06025964300394        1.40825574659096       -0.01083831493144
O            0.36685815233422        2.62174086057299       -0.01030537260051
N           -1.34614439913903        1.03302817168169       -0.03930176782294
C           -2.33152256839723        2.10173947449482       -0.05900755018050
C           -1.86860512246477       -0.20677685689519       -0.05359000828012
O           -3.07120467980800       -0.43311154184852       -0.07689302232989
N           -0.95825326519156       -1.26757897662225       -0.04004693102385
C           -1.46981358513641       -2.61714076206537       -0.05738243920059
H            4.03754297510144        1.13392116899156        1.04436367438755
H            4.21360084989640        0.98694818170433       -0.68035666162981
H            2.91900697380066        2.07221590220420       -0.02474933447209
H            3.56056174308901       -1.68168981246043        0.04132473279836
H           -1.77966796104239        3.03785103187446       -0.03637928287252
H           -2.94444545947462        2.03779137070223       -0.96048624646880
H           -2.99413176313903        2.02263833830966        0.80514072933147
H           -1.16388363185696       -3.16924145330433        0.83584332537319
H           -1.13982008942312       -3.15665854493620       -0.94989557598399
H           -2.55801005603301       -2.53981668989753       -0.07170045631354
H            1.28015532098922       -2.88484589893306       -0.01362309446885
25
 energy: 9.423733685034 xtb: 6.6.1 (8d0f1dd)
C            3.55216084019490        1.10168761580394        0.11120560396682
N            2.38031746555395        0.19796911430209        0.04866401896981
C            2.60160146642918       -1.22547708161863        0.03659844075304
N            1.35990185828802       -1.85446991745762        0.00205489157178
C            0.39112045904342       -0.95419427589785       -0.01008895903331
C            0.92147684720017        0.34948393993329        0.01624947623528
C            0.03364793300133        1.41893768965720       -0.01419144551599
O            0.27852460889471        2.64820398637864       -0.01420284320152
N           -1.39758254396113        1.02317316229082       -0.04599393150599
C           -2.38727940065441        2.08317295533590       -0.06591286338852
C           -1.89536312187328       -0.21788218743898       -0.05846274336210
O           -3.09640267845983       -0.47228215715439       -0.08231607736480
N           -0.96779018383767       -1.25470301039514       -0.04218390436851
C           -1.46932818436177       -2.60872633142444       -0.05468612812591
H            4.21333347349573        1.06988244518632        1.02426162890828
H            4.31121100547287        0.96973486345780       -0.69527728059269
H            3.04693300569798        2.06152226531886        0.03074661981455
H            3.55066720526303       -1.68483859333196        0.04001245939612
H           -1.82970276255019        3.01504581299670       -0.04496336598832
H           -3.00434054174818        2.01809356198612       -0.96568649234476
H           -3.05127257257768        2.00484520157211        0.79851855417811
H           -1.17016024413689       -3.16112137393351        0.84092073501099
H           -1.14584675140458       -3.15545452053921       -0.94554484153592
H           -2.55937049833578       -2.53225731949767       -0.06955600414974
H            1.24575798330231       -2.85131724335830       -0.01313165217940
25
 energy: 19.887177183426 xtb: 6.6.1 (8d0f1dd)
C            3.64964546033482        1.07115210703055        0.11799566289135
N            2.40336934375491        0.22532745387405        0.05109527810539
C            2.59852619427609       -1.21601145287966        0.03886259091493
N            1.34699674558961       -1.82610035862878        0.00243286127831
C            0.38853089106764       -0.92189654356205       -0.01079132621399
C            0.92043114835090        0.38779433425511        0.01633746005849
C            0.00854791667218        1.43496158666170       -0.01709205785542
O            0.20797805448177        2.67370501395156       -0.01747309938731
N           -1.44067090940076        1.01990809336170       -0.05165119306021
C           -2.44393141597943        2.06631145982187       -0.07207275549732
C           -1.91855033453310       -0.22394948609940       -0.06234847490575
O           -3.11767702100217       -0.50047044764798       -0.08644816489759
N           -0.97395586832545       -1.24124261226300       -0.04365084251652
C           -1.46651314261407       -2.59958238514166       -0.05147207414564
H            4.35752042941012        0.99870741688836        1.00837201933234
H            4.39998086390767        0.94105881462221       -0.70530184564049
H            3.17490121364347        2.05013486979097        0.07766669151733
H            3.54192038058593       -1.68303594414800        0.03729928255344
H           -1.89555299226394        3.00295814915429       -0.05318226327491
H           -3.06472776215148        1.99438774891463       -0.96973254790726
H           -3.10890635377889        1.98314218262851        0.79213479785027
H           -1.17089064037087       -3.15042720963097        0.84635675789544
H           -1.14701731427343       -3.15110820993318       -0.94094533895801
H           -2.55806171656498       -2.52521166335932       -0.06649596882704
H            1.22032149711968       -2.82148431548941       -0.01286155316248
25
 energy: 28.904162803818 xtb: 6.6.1 (8d0f1dd)
C            3.74519304667563        1.03388144081951        0.12351469314484
N            2.42622295753428        0.24461893037394        0.05069410371740
C            2.59103998701624       -1.19795416737416        0.04057916149839
N            1.34336826589058       -1.79820870826941        0.00209112838606
C            0.38336116399925       -0.89169271206129       -0.01219416411922
C            0.92003580050252        0.42045728803364        0.01472946289307
C           -0.01810551288584        1.45838874720611       -0.01998565073099
O            0.14796883323339        2.69165256465990       -0.02040805916253
N           -1.47940624137266        1.02389234898810       -0.05704836577754
C           -2.50169968543556        2.05386642648835       -0.07768526635058
C           -1.94109579871334       -0.22802920947856       -0.06551862456833
O           -3.13455495949057       -0.52161642167375       -0.08934224409871
N           -0.97676852558502       -1.22896148225247       -0.04476700730928
C           -1.46276704111329       -2.59221886571578       -0.04740993908939
H            4.47532052338429        0.92043099765817        0.99473776623738
H            4.49013886953009        0.90951413393772       -0.71057202626052
H            3.30401040653684        2.02615249246320        0.11893792994505
H            3.53272284927788       -1.66891186434001        0.03231701734023
H           -1.97461402224631        3.00228777405974       -0.06143601217698
H           -3.12555861111245        1.96968144681972       -0.97285922941560
H           -3.16629340004567        1.96079639000177        0.78651003924783
H           -1.17042459932084       -3.13951242815039        0.85294327456039
H           -1.14786635789946       -3.14658916525890       -0.93599560209250
H           -2.55582103162182       -2.51997433617486       -0.06214770071201
H            1.20780775119809       -2.79292301858817       -0.01265078895914
25
 energy: 32.073916246595 xtb: 6.6.1 (8d0f1dd)
C            3.82463056060152        0.98299189031337        0.12529556688773
N            2.44489834304547        0.23820183441769        0.04721692818633
C            2.56719666139464       -1.15562748214342        0.04287690729259
N            1.35981971022629       -1.77102591527430        0.00118742938714
C            0.36966223651319       -0.86671506601135       -0.01386622418875
C            0.92134403950414        0.43716165453002        0.01177877771886
C           -0.04529188811665        1.50211474050560       -0.02110975379443
O            0.11329531344873        2.69808183908508       -0.02058844996575
N           -1.49682701079269        1.04416932356569       -0.06086791570419
C           -2.55546064335325        2.04809459459341       -0.08206894370494
C           -1.95761558132789       -0.22590591695533       -0.06667324839537
O           -3.13605279171025       -0.52095201321201       -0.08980386044695
N           -0.96968690366606       -1.21817890872358       -0.04484850965057
C           -1.45462827909753       -2.58748535688995       -0.04282544431952
H            4.52783748639507        0.82356736109133        0.98382864926721
H            4.56406953888296        0.86036612488232       -0.71017368724341
H            3.42946824374499        1.98206393344484        0.14519399752309
H            3.51686669898460       -1.62642128061370        0.02417602692290
H           -2.08290200454410        3.02656747717376       -0.06899608133601
H           -3.17989907853982        1.93689086145512       -0.97433480811972
H           -3.21766862459059        1.93074360894451        0.78151813944262
H           -1.16215848760682       -3.12544445132446        0.86030646769497
H           -1.14207918432669       -3.13738875563401       -0.93185576829250
H           -2.54883071883097       -2.51936281986664       -0.05656438506129
H            1.22222703169794       -2.76747867518181       -0.01176791395266
25
 energy: 39.425638711511 xtb: 6.6.1 (8d0f1dd)
C            3.89410275015068        0.94487395211522        0.12991394912207
N            2.45889159408083        0.24990664615150        0.04172355112853
C            2.55744191769391       -1.12942155261472        0.03865381860294
N            1.35318396202480       -1.74583334624081       -0.00178212467856
C            0.36321902203773       -0.83814190902754       -0.01607420279913
C            0.91867238815765        0.46638241710531        0.00774016251835
C           -0.06163744209431        1.52871519516309       -0.02277157702443
O            0.07071648547656        2.74174467499591       -0.01974103307595
N           -1.50726674726925        1.05106671760080       -0.06377506411216
C           -2.60220644201475        2.02889590999756       -0.08765865300689
C           -1.96549078820427       -0.21827202976937       -0.06798289740353
O           -3.14330271093630       -0.51941828697996       -0.09021688994936
N           -0.97096518152869       -1.20088927618347       -0.04446634229457
C           -1.44647342953178       -2.57452368433805       -0.03754063967207
H            4.60443996053722        0.72260949217779        0.98264683429855
H            4.62568446620704        0.79715224704568       -0.71163801631548
H            3.54096724622624        1.96285216541042        0.17392300555780
H            3.50437480803343       -1.60546214524618        0.01645589113059
H           -2.18402328814474        3.03560790673685       -0.07782620306377
H           -3.22810203098027        1.89150700916594       -0.97758580371493
H           -3.26510301138740        1.88901052451427        0.77407440143372
H           -1.14681526077768       -3.10674342295808        0.86695610449321
H           -1.12916092407805       -3.12437762178226       -0.92524521512416
H           -2.54079859185179       -2.51734320997026       -0.04998568064887
H            1.21186591610945       -2.74086977089749       -0.01076347925454
25
 energy: 41.912686629315 xtb: 6.6.1 (8d0f1dd)
C            3.92237955254820        0.91832765468525        0.13259901893739
N            2.46248860789396        0.25255041258685        0.03491524730802
C            2.54858994439523       -1.11122770391202        0.03265173133207
N            1.34813782650138       -1.73148527997442       -0.00617519585298
C            0.35823985520819       -0.82100540743649       -0.01825182217211
C            0.91421159521876        0.48310149947897        0.00402282955579
C           -0.07036549033403        1.54727555740986       -0.02171435478413
O            0.06375693772470        2.76169741705783       -0.01539584380576
N           -1.50304563267432        1.06535007645194       -0.06404101927496
C           -2.62506452068880        2.01977870012808       -0.09013088034706
C           -1.96348400725340       -0.20547912320294       -0.06717374551117
O           -3.14117752432586       -0.50782697291738       -0.08856518364190
N           -0.97106618967312       -1.18707829821407       -0.04325052325655
C           -1.43662832197701       -2.56379616357287       -0.03396637943685
H            4.61189946266714        0.67008280615702        0.98846711979740
H            4.65174792151312        0.75013907395119       -0.70565643361452
H            3.59452588053784        1.93752901414025        0.17513575360134
H            3.49343705419390       -1.59420614298238        0.01076378343024
H           -2.25158450266681        3.04253258435948       -0.08159833413494
H           -3.24649324650610        1.85444711271146       -0.97956109674946
H           -3.28490332692946        1.85378470445889        0.77055405351358
H           -1.12761435360267       -3.09102561903584        0.87067796800939
H           -1.11269399490687       -3.11065524207477       -0.92151260043228
H           -2.53052117085607       -2.51755989059065       -0.04468673704210
H            1.20744231192834       -2.72622216749105       -0.01107345928106
25
 energy: 41.437783002826 xtb: 6.6.1 (8d0f1dd)
C            3.92317495415525        0.91146650861095        0.13394094602850
N            2.46130593815280        0.25590240235946        0.02917720108265
C            2.54714988571208       -1.11039569803054        0.02647549307384
N            1.34396431816030       -1.72881813341633       -0.00923500305120
C            0.35852346407855       -0.81608069494459       -0.01901619761892
C            0.91068941155578        0.48946862278774        0.00278003852956
C           -0.07456217473128        1.55063329556180       -0.02004946866591
O            0.06660288801381        2.76491839355575       -0.01222806649856
N           -1.50096782021427        1.07244525240230       -0.06390129765275
C           -2.62919828157565        2.01831927646631       -0.09159673363051
C           -1.96036380788117       -0.19958532588464       -0.06608196119462
O           -3.13889892190370       -0.50325296436032       -0.08747989815571
N           -0.97191970702156       -1.18161689461680       -0.04157864514673
C           -1.43122703203848       -2.55887435563536       -0.03197656436429
H            4.60465282343381        0.65799418931089        0.99318467087424
H            4.65175021096495        0.73430517224590       -0.70236054153781
H            3.60618652486647        1.93486031071734        0.17524165785115
H            3.48919368311252       -1.59862945810461        0.00844352658178
H           -2.26949749564741        3.04148225918844       -0.08315090197693
H           -3.24612333641153        1.84187761253600       -0.98114088331170
H           -3.28651998586341        1.84188467352010        0.76827188991619
H           -1.11724258444478       -3.08413358417931        0.87235508551413
H           -1.10370997388387       -3.10369380209772       -0.91980361666608
H           -2.52485175488260       -2.51796340331593       -0.04178416585681
H            1.20410344222968       -2.72348505250463       -0.01145266797614
25
 energy: 39.005403894858 xtb: 6.6.1 (8d0f1dd)
C            3.90936665519604        0.90667458197483        0.13577025614514
N            2.45849295485553        0.25650807866250        0.02025191472687
C            2.54721638151464       -1.11122003023477        0.01628691314808
N            1.34278576331534       -1.72929785027201       -0.01372695679157
C            0.36082466172412       -0.81522444891037       -0.01917244102992
C            0.90756233603864        0.49099319415854        0.00241833027802
C           -0.07859172936811        1.55171266509843       -0.01712328289156
O            0.07399917687373        2.76528264675482       -0.00656639915427
N           -1.49392607754827        1.07996114669562       -0.06362649121313
C           -2.62539112237147        2.01931667604006       -0.09366077844660
C           -1.95375755460084       -0.19424819458641       -0.06427509661312
O           -3.13273342973746       -0.49647187794532       -0.08597414515561
N           -0.97106577005839       -1.17768279856966       -0.03823618125611
C           -1.42561709658783       -2.55444942028611       -0.02916130977061
H            4.57967104880808        0.65100676806261        1.00033094986730
H            4.63599637833001        0.72316467855658       -0.69860398964037
H            3.60375632425067        1.93358409190592        0.17377510980093
H            3.48631121426908       -1.60455868640883        0.00600498205736
H           -2.27973801789861        3.04331474519774       -0.08550088330847
H           -3.23703097952445        1.83328964198766       -0.98321150524604
H           -3.28046120085892        1.83444306507678        0.76469804376515
H           -1.10704742039379       -3.07789188325827        0.87457029512460
H           -1.09502535706691       -3.09637343704980       -0.91776918502288
H           -2.51885532993370       -2.51853502176398       -0.03798203557193
H            1.20547285870913       -2.72426972871436       -0.01248221765387
25
 energy: 38.283895269036 xtb: 6.6.1 (8d0f1dd)
C            3.90436630874954        0.90434424717905        0.13747634901645
N            2.45930726186048        0.25817371490267        0.01488194430318
C            2.54857594166128       -1.11223649834897        0.00947765536247
N            1.34339139756474       -1.72900975952502       -0.01646532668632
C            0.36284873543320       -0.81460026625307       -0.01867670301281
C            0.90744718708829        0.49168630239194        0.00307535286688
C           -0.08149718993440        1.55139382631049       -0.01590629415663
O            0.07323853944191        2.76444196660696       -0.00330047861782
N           -1.49340239378055        1.08138150118766       -0.06430928726272
C           -2.62481705912106        2.01962947222123       -0.09563795505287
C           -1.95247683655136       -0.19415386151604       -0.06369257160831
O           -3.13141522473786       -0.49598888613487       -0.08570468021490
N           -0.97032603423972       -1.17642556291607       -0.03580239044401
C           -1.42403257731233       -2.55314589641043       -0.02694856598074
H            4.57505469159636        0.64547192069693        1.00211241653945
H            4.63009367656624        0.72246843154373       -0.69736613765807
H            3.60650176506676        1.93446323306850        0.17882472675813
H            3.48663808017716       -1.60690430765537        0.00482192232942
H           -2.28177010349513        3.04460988388502       -0.08811371503264
H           -3.23550343437420        1.83222938477163       -0.98523265142668
H           -3.28003564086493        1.83462476230905        0.76224878318396
H           -1.10519192766172       -3.07646174385142        0.87657678739080
H           -1.09382748372414       -3.09459902960886       -0.91591154838932
H           -2.51735797067686       -2.51825135554712       -0.03548673480167
H            1.20640495920456       -2.72411287713538       -0.01390700125782
25
 energy: 37.229460556444 xtb: 6.6.1 (8d0f1dd)
C            3.89632542482691        0.90134838775263        0.14004444188183
N            2.46116917975419        0.25963563554040        0.00622228189935
C            2.55053826191359       -1.11235101536032       -0.00204104081151
N            1.34552176619043       -1.72860259731796       -0.02087020447059
C            0.36526123534764       -0.81421857010247       -0.01738175098748
C            0.90854884885646        0.49130363394077        0.00464181163317
C           -0.08456913056143        1.55117589594356       -0.01405673818143
O            0.07077893537024        2.76390731690329        0.00188050360255
N           -1.49237874405485        1.08158829205471       -0.06570538819549
C           -2.62336080402217        2.01997797857465       -0.09903492750848
C           -1.95142102498006       -0.19538921970561       -0.06301561383288
O           -3.13016261663995       -0.49574191326280       -0.08572704069949
N           -0.96871661898116       -1.17559878093562       -0.03149049029574
C           -1.42276141385780       -2.55254258745118       -0.02313262763571
H            4.56771684871287        0.63626859957000        1.00352251837392
H            4.62125296858961        0.72535346065347       -0.69620855172095
H            3.60935111134628        1.93457890441952        0.18929752903568
H            3.48840580965310       -1.60721489780615        0.00388326866350
H           -2.27991016178469        3.04586639107724       -0.09260522005001
H           -3.23388343437810        1.83316305775113       -0.98899954444771
H           -3.27972314281028        1.83784820404272        0.75869984655291
H           -1.10442979664545       -3.07618228420443        0.88012456649236
H           -1.09383546323595       -3.09371518163778       -0.91259353627258
H           -2.51625827913710       -2.51757011199337       -0.03145274008824
H            1.20875490846390       -2.72385999627416       -0.01696745678961
25
 energy: 36.823852864772 xtb: 6.6.1 (8d0f1dd)
C            3.89283606793156        0.89958375220504        0.14193178844088
N            2.46247036333468        0.26102065784717       -0.00077872884890
C            2.55127621374105       -1.11135394939433       -0.01196184125486
N            1.34654663502108       -1.72778372015688       -0.02431013156032
C            0.36588417699566       -0.81349662306481       -0.01621359011095
C            0.90954005585761        0.49138002271981        0.00573816833408
C           -0.08562464774369        1.55139779523339       -0.01291405876721
O            0.06819771912687        2.76407919819108        0.00514348828783
N           -1.49267235280143        1.08044103609591       -0.06706481629992
C           -2.62310057408327        2.01994673444277       -0.10188022238684
C           -1.95181237455884       -0.19690275560254       -0.06268078138996
O           -3.13048451998378       -0.49656880809512       -0.08614637011635
N           -0.96787326216877       -1.17559541491046       -0.02785642845110
C           -1.42237704168513       -2.55303432306365       -0.01982403538594
H            4.56525061438399        0.62700378627949        1.00328941523754
H            4.61782734347503        0.73021901595310       -0.69601780556595
H            3.61281802048087        1.93429976819896        0.20086976860850
H            3.48978841796164       -1.60525102727912        0.00439512167483
H           -2.27604270443215        3.04553529023772       -0.09632349677041
H           -3.23422019355814        1.83446276597766       -0.99218543494580
H           -3.28068611833487        1.84114178489436        0.75607326960923
H           -1.10449559760222       -3.07709324056111        0.88326499358458
H           -1.09432027016579       -3.09426303113430       -0.90952134385262
H           -2.51598292003611       -2.51713306267225       -0.02809765144228
H            1.20947161678038       -2.72300705016968       -0.01989538048071
25