25
 energy: -40.455365972264 gnorm: 8.791361506596 xtb: 6.6.1 (8d0f1dd)
C            3.23495300012660        1.19333520839364        0.07968146384516
N            2.21318666739754        0.25983072529810       -0.15145339567159
C            3.48798533652312       -0.31286867691538        0.24816994904899
N            1.16389232836609       -2.21129525624161        0.09224629400550
C            0.35016193313413       -1.23022838071523        0.01977969527380
C            0.90946814802525        0.09897645232132       -0.06779295973852
C            0.06484050241381        1.28554478900737       -0.12344231802842
O            0.52004115301602        2.41240160861346       -0.18236550612902
N           -1.29576024626575        1.03517949063760       -0.09003034633311
C           -2.20739835706865        2.16118639039762       -0.12589140811755
C           -1.87922263553631       -0.21999286689076       -0.01621769059843
O           -3.07962729378666       -0.34313038325107        0.01156427810316
N           -1.03238021864946       -1.31769108067027        0.02309480534163
C           -1.65152749454850       -2.62713493957904        0.09926693092247
H            3.54900307628194       -0.50667333991593        0.62064315462894
H            3.61656497712333        1.71966231911500       -0.78867042337949
H            3.15276562079692        1.82065107268373        0.96227784001275
H            3.98245192874808       -0.69723863561545       -0.68714912454168
H           -1.62734838728395        3.06795686445746       -0.29437282119254
H           -2.93959956882449        2.01965319275369       -0.92339744442658
H           -2.75064424249673        2.23612637156865        0.81942797829996
H           -1.39115265113683       -3.12011148641124        1.03824367968727
H           -1.33404387021563       -3.24709784985855       -0.74110692278488
H           -2.73212815398399       -2.49537559632938        0.05689729969350
H            0.83594996194410       -3.16342745125434        0.15176860997917
25
 energy: -42.161388753158 gnorm: 0.154259638793 xtb: 6.6.1 (8d0f1dd)
C            3.23324163981961        1.19992748954729        0.07443540732772
N            2.20789745732645        0.26511869830512       -0.15988410804686
C            3.44754674910817       -0.18294133510452       -0.00428275374133
N            1.16390434169990       -2.21132644605978        0.09222316824383
C            0.35020006504538       -1.23022768215550        0.01971369379321
C            0.90922537677055        0.09874302461777       -0.06655689224796
C            0.06477889002321        1.28551757397058       -0.12330802352140
O            0.52004864944792        2.41240339559110       -0.18236433766686
N           -1.29576618319365        1.03514492610771       -0.09002561126497
C           -2.20741522733290        2.16120379586244       -0.12588989921920
C           -1.87922544258032       -0.21994660174733       -0.01623196904636
O           -3.07962916179955       -0.34313774107524        0.01155616972283
N           -1.03234808511942       -1.31771417456257        0.02312906993348
C           -1.65152003670752       -2.62714510650098        0.09926386863137
H            3.59655021956394       -0.65083827573650        0.89497676719990
H            3.61644834248313        1.72041532777611       -0.78861203821012
H            3.15295819846818        1.82005222264823        0.96263971703508
H            3.98252509890192       -0.69474602155860       -0.69706736606608
H           -1.62735226775896        3.06794830753962       -0.29437010129317
H           -2.93958928767439        2.01965600759569       -0.92339118040113
H           -2.75063897316127        2.23612393137778        0.81941694921899
H           -1.39114566361793       -3.12011796029900        1.03825835760012
H           -1.33403915942796       -3.24710204722589       -0.74112829569306
H           -2.73215248449691       -2.49536840048017        0.05689976908282
H            0.83592845831239       -3.16340436683396        0.15177125652963
25
 energy: -42.180516558993 gnorm: 0.056992638497 xtb: 6.6.1 (8d0f1dd)
C            3.22622219828686        1.23107641061696        0.06654880307299
N            2.19817478660755        0.27979405743325       -0.16332075081516
C            3.47821037625651       -0.22755460174826        0.02455516718360
N            1.16313634736860       -2.20749644764936        0.09053084706432
C            0.34799361322882       -1.22727576417972        0.01598747124988
C            0.90204777200986        0.10490494986441       -0.06954383672228
C            0.05777489091195        1.28977394347963       -0.11703118861261
O            0.51332631482904        2.41628171188377       -0.18086586269231
N           -1.30101223889994        1.03662637625829       -0.08898229408534
C           -2.21140038589616        2.16281270082646       -0.12940341892805
C           -1.88236649295367       -0.21928928585661       -0.01715200107927
O           -3.08254336941498       -0.34417453125905        0.00868523363091
N           -1.03414890432123       -1.31672690576912        0.02346132530014
C           -1.65214065103759       -2.62696739138541        0.10050726718133
H            3.62344467864245       -0.69502999335432        0.92830978346002
H            3.55890676757489        1.79806740326074       -0.80001107612145
H            3.17202389592516        1.82031733115878        0.97477390335541
H            4.03227007381026       -0.76352716949410       -0.73859582214940
H           -1.62891220071745        3.06787160374049       -0.29793238931791
H           -2.94096099363478        2.02033535720680       -0.92851972153876
H           -2.75491689213498        2.23870036559912        0.81509858707605
H           -1.39142113901457       -3.11912003537652        1.04009537723973
H           -1.33425792477192       -3.24700115841245       -0.74000903816635
H           -2.73308488981878       -2.49516267569874        0.05814925772862
H            0.83406588126406       -3.15899770954569        0.15583599458635
25
 energy: -42.183602728293 gnorm: 0.051042553764 xtb: 6.6.1 (8d0f1dd)
C            3.23096607501189        1.23533964844453        0.04947889510695
N            2.20195001740066        0.28538126845973       -0.16359911043945
C            3.48939301003237       -0.23989453459424        0.05406708504794
N            1.16294378380899       -2.20745505715549        0.08637793928990
C            0.34908030634780       -1.22657129632635        0.01201332134993
C            0.90442116973171        0.10520925584730       -0.07362539454023
C            0.05634953701903        1.28976939682308       -0.11521903082000
O            0.51111021602769        2.41717440623353       -0.17329260538319
N           -1.30273275865347        1.03653544688243       -0.08806397244727
C           -2.21463016037942        2.16252228013649       -0.12939825261993
C           -1.88311158959003       -0.21952022753448       -0.01894980583616
O           -3.08327770574187       -0.34581772789842        0.00514891992854
N           -1.03342749666235       -1.31623689787592        0.02218845956903
C           -1.65172124230009       -2.62655621198532        0.09929061236902
H            3.63506547036928       -0.70700094120879        0.96299220334631
H            3.52709816694477        1.81829508057398       -0.82157353903730
H            3.20813523840630        1.80881329107968        0.96956524327830
H            4.01631585422650       -0.76257256889280       -0.74232084813942
H           -1.63267582342579        3.06789109897710       -0.29741590815165
H           -2.94287224129625        2.02034355638047       -0.92965532254515
H           -2.76025294281513        2.23932330872397        0.81373936617154
H           -1.39022202622877       -3.11887659139005        1.03865772112033
H           -1.33473332110678       -3.24607599959565       -0.74201110513158
H           -2.73287984929682       -2.49445554337388        0.05820674620463
H            0.83013982626977       -3.15732589913149        0.15457000020941
25
 energy: -42.184921945446 gnorm: 0.048698866310 xtb: 6.6.1 (8d0f1dd)
C            3.23637790637869        1.23516989534355        0.03021288878308
N            2.20590222309549        0.28965335819108       -0.16054650018211
C            3.49419364303611       -0.24645227976675        0.08540154681970
N            1.16339738949513       -2.20691596635699        0.08107927705068
C            0.35090322426703       -1.22468541742012        0.00927745622001
C            0.90710489430944        0.10630884068871       -0.07622437851186
C            0.05494461976647        1.29029379638435       -0.11490415461872
O            0.50825210105841        2.41882595015081       -0.16447058235774
N           -1.30435930690875        1.03672378318097       -0.08739335631261
C           -2.21813517772628        2.16193542633623       -0.12724576739457
C           -1.88349907893536       -0.21957233291903       -0.02089918951968
O           -3.08354867470767       -0.34798532778268        0.00092984295707
N           -1.03189513849903       -1.31499773067447        0.02096586907781
C           -1.64956791095293       -2.62589698098155        0.09717304005236
H            3.64105691795664       -0.71374554355981        1.00201892027886
H            3.52051195481999        1.81356878145578       -0.84200454875228
H            3.23285650508708        1.80807195978801        0.95051496112360
H            3.98939385688706       -0.75433453856393       -0.74286646546735
H           -1.63754373255379        3.06848134655141       -0.29353299229556
H           -2.94550602685401        2.01961540675507       -0.92835567740830
H           -2.76508407918403        2.23704600669043        0.81527459987481
H           -1.38666835264006       -3.11927070996409        1.03562521811451
H           -1.33422603130598       -3.24431106249686       -0.74556761508313
H           -2.73089909117497       -2.49389746429418        0.05824044525998
H            0.82646887938531       -3.15539065513653        0.14846878019194
25
 energy: -42.185399203862 gnorm: 0.042833587243 xtb: 6.6.1 (8d0f1dd)
C            3.24051699351510        1.23098760543784        0.02322144287981
N            2.20715442734455        0.29072944715713       -0.15521278882189
C            3.49297355225424       -0.25012821913826        0.09588274813313
N            1.16420787251271       -2.20539913580667        0.07958748965983
C            0.35212587545726       -1.22231886517792        0.01081758893760
C            0.90796297386408        0.10844531311518       -0.07329790176491
C            0.05401103117022        1.29181542140358       -0.11278361299648
O            0.50619511471114        2.42088266348602       -0.15907826528459
N           -1.30526797026856        1.03735476118725       -0.08713770024720
C           -2.22052397654566        2.16147501796658       -0.12683528713885
C           -1.88350016257396       -0.21929012281353       -0.02212331510782
O           -3.08342847821822       -0.34931958082139       -0.00327012529281
N           -1.03064694164974       -1.31363756969309        0.02160416176817
C           -1.64710076575732       -2.62523563089110        0.09655149703589
H            3.64190330656006       -0.72018608335480        1.01778251125729
H            3.53019943877340        1.80034323755008       -0.85052059247496
H            3.23789882257537        1.81258088598173        0.93820855883687
H            3.97131476050893       -0.74364671419218       -0.74645606183903
H           -1.64131580115315        3.06924749738331       -0.29108352359291
H           -2.94674198560201        2.01859516582471       -0.92899412085620
H           -2.76887838775507        2.23431906110621        0.81508296328021
H           -1.38280407186956       -3.11959444612308        1.03407721571280
H           -1.33261023606471       -3.24241626289963       -0.74739762236436
H           -2.72855397171994       -2.49389437166190        0.05907999368249
H            0.82534009403082       -3.15347053342667        0.14346636449837
25
 energy: -42.185872596407 gnorm: 0.030591369072 xtb: 6.6.1 (8d0f1dd)
C            3.24662457912584        1.22425310765332        0.01713321949584
N            2.20737310092453        0.29171304105956       -0.14663982479665
C            3.48738488199963       -0.25332714070143        0.10409997291121
N            1.16615660238558       -2.20176274360946        0.07849491351259
C            0.35370142920857       -1.21826247337468        0.01438899079657
C            0.90798073774336        0.11292677753305       -0.06730439305457
C            0.05248706264927        1.29516507790339       -0.10910979255853
O            0.50294468222323        2.42491053697599       -0.15252067041963
N           -1.30650248519965        1.03853478208839       -0.08684814259291
C           -2.22399404598039        2.16077454440027       -0.12587322222790
C           -1.88330371382598       -0.21889547682235       -0.02400838899895
O           -3.08302661291688       -0.35112136697911       -0.00962072152509
N           -1.02884962156353       -1.31173111047712        0.02307426298795
C           -1.64300521192267       -2.62452710705761        0.09556972490888
H            3.63943934145356       -0.72799667217565        1.03486212641315
H            3.55242644979009        1.77617269400632       -0.86205408711070
H            3.23853554895823        1.82499779881282        0.92096174675065
H            3.94795111156256       -0.73665418834098       -0.74951383384382
H           -1.64692581642116        3.07051022131581       -0.28640193698071
H           -2.94830093003120        2.01764979296904       -0.92979020250124
H           -2.77455476031888        2.22943930466315        0.81515745489226
H           -1.37565608671722       -3.12098984100985        1.03107694134767
H           -1.32981343985450       -3.23896935334763       -0.75087578045084
H           -2.72470026002251       -2.49470972171178        0.06073823312752
H            0.82605897085012       -3.14986194217411        0.13617502781775
25
 energy: -42.186136093942 gnorm: 0.020074519046 xtb: 6.6.1 (8d0f1dd)
C            3.25133016811013        1.22021592800772        0.01402360358313
N            2.20619747729618        0.29288799077940       -0.14126699678727
C            3.48140707958904       -0.25503183475515        0.10664860663421
N            1.16822514922216       -2.19746298564463        0.07803237498359
C            0.35442398996598       -1.21476996671859        0.01686203087406
C            0.90676837629815        0.11746747704297       -0.06328714409263
C            0.05068440864145        1.29862339063928       -0.10655864726934
O            0.49970387716230        2.42891232656596       -0.14895473553026
N           -1.30790385962537        1.03963416522839       -0.08651102383667
C           -2.22716691842807        2.16032041628956       -0.12442040863396
C           -1.88337172550645       -0.21865427512584       -0.02532864056379
O           -3.08292134107994       -0.35238266666518       -0.01409269139831
N           -1.02781881903439       -1.31043385010952        0.02417807798145
C           -1.63983588348396       -2.62428344522749        0.09436831046381
H            3.63539476841686       -0.73274575099825        1.04565299210654
H            3.56989308579488        1.75744917802610       -0.87172390087561
H            3.23917615401126        1.83669509533844        0.90841604637333
H            3.93707875176694       -0.74202066762415       -0.74636804056026
H           -1.65160013101041        3.07155721123900       -0.28154682096635
H           -2.94988983391312        2.01787457394241       -0.92987165254275
H           -2.77945620876353        2.22528990114751        0.81590821016777
H           -1.36887515117466       -3.12307433913453        1.02755515926594
H           -1.32809184140266       -3.23572223867719       -0.75485939046489
H           -2.72178188512028       -2.49603690333566        0.06263586377534
H            0.82886182636750       -3.14607018863119        0.13168043521345
25
 energy: -42.186348753905 gnorm: 0.010222010568 xtb: 6.6.1 (8d0f1dd)
C            3.25563141438556        1.21824855540540        0.01147447160340
N            2.20441944903293        0.29503735411326       -0.13849427511441
C            3.47572097833380       -0.25662466266474        0.10680556129022
N            1.17062020297897       -2.19219281682355        0.07769299129724
C            0.35470667820780       -1.21127181319443        0.01803949763433
C            0.90490865350016        0.12242079272646       -0.06145656468302
C            0.04835280968013        1.30237963635472       -0.10508917196032
O            0.49582105993620        2.43327560174024       -0.14727390759517
N           -1.30980767209769        1.04080184620760       -0.08611816158282
C           -2.23081978293287        2.16001033325425       -0.12251724323575
C           -1.88375454618660       -0.21845106965290       -0.02646845114761
O           -3.08314527056483       -0.35346808420799       -0.01762931369957
N           -1.02717366933628       -1.30927920277337        0.02487770715581
C           -1.63702785340337       -2.62415948294858        0.09288353365602
H            3.63105443540614       -0.73658957858537        1.05529443679417
H            3.58105155218894        1.74344051174505       -0.88117531279301
H            3.24390115521271        1.84598578345966        0.89832162403626
H            3.93405817956182       -0.75715123433427       -0.73769798429127
H           -1.65646679823592        3.07263622364703       -0.27590665358209
H           -2.95186130498437        2.01904571840064       -0.92970544015132
H           -2.78492967873932        2.22116192537439        0.81700608377840
H           -1.36121795582816       -3.12578464998593        1.02308635203149
H           -1.32765863629492       -3.23208895583692       -0.75984391338124
H           -2.71926441782076       -2.49754383320482        0.06568095862452
H            0.83331253209995       -3.14160035661646        0.12938479321624
25
 energy: -42.186470170709 gnorm: 0.003918449069 xtb: 6.6.1 (8d0f1dd)
C            3.25786567828959        1.21880118254856        0.01029391003382
N            2.20322087623567        0.29742274741507       -0.13905432481905
C            3.47332134009614       -0.25761472799148        0.10449234683574
N            1.17219745669111       -2.18849933889978        0.07784160824092
C            0.35457960286394       -1.20925162451580        0.01762282172860
C            0.90357850332165        0.12541953917225       -0.06229709600170
C            0.04657613841669        1.30461890229422       -0.10525885063426
O            0.49296502774107        2.43595480374848       -0.14796545595064
N           -1.31140570433331        1.04154268839818       -0.08588791558837
C           -2.23346976592390        2.15993822522307       -0.12147259516907
C           -1.88428897125489       -0.21830409090673       -0.02707668089451
O           -3.08360234029949       -0.35399762197020       -0.01918358820210
N           -1.02705625744339       -1.30858177517809        0.02495329849297
C           -1.63569234521829       -2.62400875689854        0.09200637619392
H            3.62949542436902       -0.73880928087437        1.06032841757008
H            3.57984457961337        1.74108091554032       -0.88581460337928
H            3.25242714619186        1.84685886927818        0.89599010086138
H            3.93762427164175       -0.77268520378315       -0.72923281682689
H           -1.65960836525903        3.07337269186066       -0.27196236353494
H           -2.95299926263847        2.02049095103124       -0.93027371485813
H           -2.78929274574815        2.21854634204758        0.81716433504056
H           -1.35551940014112       -3.12780754096197        1.01968589168357
H           -1.32916860178510       -3.22944003507436       -0.76359068745272
H           -2.71812573171587       -2.49825995010139        0.06941368024251
H            0.83696496038915       -3.13854936980258        0.13044952428807
