72
 energy: -99.334774084920 gnorm: 0.105968210436 xtb: 6.6.1 (8d0f1dd)
N           -1.80317908740708        2.75167908079649        2.21174972255411
C           -1.80985153219724        2.08851336939407        1.15497981740823
C           -3.00026155385050        1.89322266210970        0.25500377131219
C           -3.46523031814830        0.44578920344626        0.33464848177452
C           -4.37428616981935       -0.04688948064630       -0.60573927601346
C           -4.85141433684774       -1.34538024153207       -0.54477101153414
O           -5.73990686617346       -1.89012079789829       -1.40267036760474
C           -6.35333450432126       -1.07505423516670       -2.37377378307476
C           -4.39133919352583       -2.21122080834106        0.48357349783943
O           -4.89890198683941       -3.45988575445364        0.46086180830644
C           -4.53415289431482       -4.36602642054824        1.47555865819358
C           -3.48282494357628       -1.72036872468387        1.40741699305153
C           -3.03139198857706       -0.40788123934347        1.33630126602771
C           -2.49479779921568        2.20536884179953       -1.17828190995333
C           -1.55430649797434        1.13775398537697       -1.77134921549218
C           -0.20568508691480        1.12685172372768       -1.15800170056624
N            0.46918985768066        0.04176768407358       -0.79274059884707
C            1.84368091605486        0.14183746412545       -0.35859730028059
C            2.83212094524938       -0.35024396203565       -1.43267655294965
C            4.24341695617890       -0.14258117670840       -0.95581774618166
C            4.88457943617794        1.06828138699383       -1.16097542048640
C            6.17605298724469        1.27542614887268       -0.70183706958053
C            6.85380738617443        0.27351011176357       -0.02220030307797
O            8.10735971586872        0.36194116114785        0.46031123967494
C            8.84366312178630        1.54468521505187        0.24837419481441
C            6.20192188957459       -0.97104111207817        0.19919977241310
O            6.93090110210409       -1.88965800433637        0.86426193807990
C            6.38354486026288       -3.16439494314204        1.10204674625139
C            4.90934640068781       -1.15373673009337       -0.26725332808610
C           -0.12436663860572       -1.27386135326341       -0.81616518690728
C           -4.19610840728772        2.82607046522990        0.60984981674652
C           -4.71719781687439        2.57876117988558        2.02119267619916
C           -3.69714652012088        4.41065196595887        0.58021824354310
H           -4.72096595750798        0.59471254608810       -1.39947514344936
H           -6.87939818529378       -0.23180573503046       -1.91632038046138
H           -7.07390861691579       -1.71567385521082       -2.87858345710919
H           -5.62957922010828       -0.70270741451617       -3.10662034112945
H           -4.82556312508770       -3.99941049636957        2.46431965054373
H           -5.07697654161118       -5.28336651172406        1.25676967496633
H           -3.45873795598683       -4.57012904349232        1.46336765605053
H           -3.12722427422653       -2.35040961092974        2.20642124259794
H           -2.34910043873277       -0.05365220919020        2.09346739882659
H           -3.35655372251193        2.30536031245200       -1.83701000064960
H           -1.97933111652673        3.16592972126274       -1.16643083683319
H           -2.02806919270270        0.15919459604549       -1.71738217971459
H           -1.42673294007697        1.39061199981584       -2.83201233776076
H           -0.90891622511387        1.59946092073375        0.73302241474451
H            0.34196215739014        2.05818822750640       -1.15292221904216
H            1.97519714198349       -0.45049880575939        0.55150138305144
H            2.07212743243464        1.18318999433767       -0.12310235028028
H            2.66382317565498        0.21459833439289       -2.35110814166592
H            2.65666270301834       -1.40642481354227       -1.63956138634972
H            4.38455483819725        1.86142221653128       -1.69590676018353
H            6.65083975845017        2.22547185153563       -0.88386963805955
H            8.37355833283890        2.40302036894298        0.73803998200311
H            8.96641679638886        1.75389318177749       -0.81846709700269
H            9.81958769314141        1.36519672868347        0.69530664774722
H            7.15897196569083       -3.72287722990622        1.62272770551193
H            5.49290433657189       -3.10696886050054        1.73613344732046
H            6.13600414099335       -3.67593776674066        0.16670629250403
H            4.41044361338452       -2.09744207958762       -0.11118223007154
H           -0.31263671000498       -1.60272725151615       -1.84018009858127
H           -1.06884932022155       -1.27813014027834       -0.26604436402093
H            0.55369456988923       -1.98038240016710       -0.34485925947279
H           -5.17243490119433        2.25603668552611       -0.12941384120095
H           -3.97701794595348        2.88510626977228        2.75351041410659
H           -4.95667277372076        1.52895477406586        2.17879990383591
H           -5.62167028007171        3.16133754291119        2.18124801449949
H           -4.57013446183140        4.97947192178764        0.89402021914667
H           -2.75238530642938        4.98251248186742        1.22019086039327
H           -3.50443763915934        4.67925871863708       -0.45463963398158
H           -0.92683764049712        2.83598768680881        2.71810575822301
72
 energy: -99.384875513144 gnorm: 0.086503887817 xtb: 6.6.1 (8d0f1dd)
N           -1.79849859784556        2.74965728381081        2.21293337754931
C           -1.80114164219224        2.08420591549838        1.15771184427912
C           -2.98718515223653        1.88864335690037        0.25797895009360
C           -3.46315385756088        0.44491497545084        0.33542085448404
C           -4.37371467737529       -0.04628370379547       -0.60474527319699
C           -4.85116058850348       -1.34495729087764       -0.54419953677031
O           -5.73954695438403       -1.88971311670146       -1.40210335488765
C           -6.35279468520945       -1.07507904704620       -2.37360508498726
C           -4.39113179276600       -2.21125619970427        0.48380594331074
O           -4.89832925024540       -3.45995737222649        0.46056114425105
C           -4.53415117137726       -4.36601633074570        1.47557779603840
C           -3.48282200278472       -1.72088739964236        1.40813823429025
C           -3.03063708546916       -0.40898396749532        1.33695673410611
C           -2.49210569411975        2.20547974589375       -1.17771160591070
C           -1.55356299718797        1.13764464757763       -1.77223729553525
C           -0.20537635941542        1.12677943446208       -1.15838762610074
N            0.46944638928453        0.04174190153379       -0.79315593653459
C            1.84359587509082        0.14178511715658       -0.35852593898459
C            2.83203721853280       -0.35013224297438       -1.43269115331110
C            4.24333586016166       -0.14255978316985       -0.95601027145511
C            4.88449171606592        1.06833602518827       -1.16122099379834
C            6.17596614156147        1.27546138625149       -0.70211203955351
C            6.85365873436410        0.27348473435855       -0.02250061182409
O            8.10715189299618        0.36169475894131        0.46000879141048
C            8.84350638011712        1.54448816617234        0.24844735979725
C            6.20175559379739       -0.97110823508067        0.19895100744119
O            6.93075100050011       -1.88952965843889        0.86411296444221
C            6.38355767137067       -3.16433950714199        1.10194157663625
C            4.90914469236292       -1.15376125234219       -0.26743877777106
C           -0.12444019015232       -1.27365348219160       -0.81635930980832
C           -4.14928688018403        2.83440268911241        0.65323129678504
C           -4.71345703033087        2.57725421594830        2.03846885091283
C           -3.76450412826587        4.39444630692240        0.52956053618501
H           -4.72044365741188        0.59588237641383       -1.39808897378828
H           -6.87883662572084       -0.23169384976837       -1.91625758393177
H           -7.07332346815067       -1.71577242996556       -2.87836917671857
H           -5.62887002255251       -0.70300736007437       -3.10621154033611
H           -4.82554279059411       -3.99913041418892        2.46421682285324
H           -5.07725908467134       -5.28322487690049        1.25682262576137
H           -3.45880304555048       -4.57055794935676        1.46367187423798
H           -3.12733886695931       -2.35070723459010        2.20723935504246
H           -2.34886527661381       -0.05430379109483        2.09433704870310
H           -3.35552947748423        2.30647628712986       -1.83443962199697
H           -1.97679788412177        3.16591044332089       -1.16573856432262
H           -2.02794810022522        0.15946211126806       -1.71699934967836
H           -1.42671167713160        1.38994845932487       -2.83289259270459
H           -0.90114509318294        1.59680496140884        0.73479040971736
H            0.34210448638864        2.05815673259414       -1.15233850572224
H            1.97505193606882       -0.45059632109209        0.55160050778960
H            2.07204610826766        1.18310688817124       -0.12283532010362
H            2.66350713327904        0.21487209670994       -2.35098702276032
H            2.65641468109666       -1.40625860399076       -1.63971273867393
H            4.38426595058607        1.86136419111054       -1.69611839968696
H            6.65073138423846        2.22551056336969       -0.88413497492898
H            8.37323602627257        2.40277581602323        0.73804886403721
H            8.96653628828271        1.75384509081668       -0.81834113553107
H            9.81929140734365        1.36495524842999        0.69563592880924
H            7.15903031579609       -3.72266517893331        1.62271967325561
H            5.49286427406248       -3.10701783070486        1.73598143702754
H            6.13610256392074       -3.67599005005325        0.16664867073742
H            4.41015874952103       -2.09742338021681       -0.11136160364109
H           -0.31293485844346       -1.60264979148197       -1.84030390587955
H           -1.06891006409845       -1.27777849394888       -0.26609279617062
H            0.55341563376869       -1.98046869583714       -0.34509131654722
H           -5.05467143591761        2.46841841339236       -0.09740057364532
H           -3.97842898050075        2.88133485282592        2.77435816719485
H           -4.95690367216227        1.52639929003927        2.18094363753756
H           -5.61914315301254        3.16205058879970        2.18257925000317
H           -4.59943850570256        4.98788428964477        0.88406432297387
H           -2.85790303040526        4.78664609372060        1.17589616644384
H           -3.52002472284487        4.68344622963973       -0.48561051394596
H           -0.92386627703996        2.83593267894276        2.72023383961196
72
 energy: -99.397860951135 gnorm: 0.099114461756 xtb: 6.6.1 (8d0f1dd)
N           -1.79516014547529        2.75322107507556        2.21353493006684
C           -1.79943280722158        2.08619225421757        1.15925698347499
C           -2.99278691293592        1.90599424357122        0.26405158551332
C           -3.47044894291612        0.45743023263085        0.34034546614229
C           -4.37559756058611       -0.03876606861239       -0.60253942362612
C           -4.84923068589451       -1.34022160356041       -0.54410595445118
O           -5.73709309100007       -1.88662919410806       -1.40138777194257
C           -6.35174811031974       -1.07406968273700       -2.37361124432459
C           -4.38973148598047       -2.20786270102417        0.48338158460705
O           -4.89587248977864       -3.45732196278469        0.45938403274245
C           -4.53398406356479       -4.36463592778039        1.47453088227602
C           -3.48218379457164       -1.71632052509027        1.40773131982906
C           -3.03371277434062       -0.40208938518135        1.33808348234130
C           -2.49165749622797        2.20824396352264       -1.17293338041424
C           -1.55441250267813        1.13909611459469       -1.76914669235727
C           -0.20540975178565        1.12711012260478       -1.15736752426503
N            0.46962720121257        0.04189792138951       -0.79379797452299
C            1.84336482071337        0.14171319882654       -0.35848989453870
C            2.83187626452338       -0.34988600414825       -1.43278443148360
C            4.24317691074690       -0.14259951375777       -0.95624952533031
C            4.88441618274365        1.06836482989494       -1.16139535916630
C            6.17588484516308        1.27536468845540       -0.70232281838320
C            6.85345585291874        0.27318021549229       -0.02283115323947
O            8.10680358981053        0.36094725558245        0.45962644236942
C            8.84334064360212        1.54380380285378        0.24885862699539
C            6.20143681763727       -0.97152229336188        0.19855862984367
O            6.93037232630412       -1.88972712090797        0.86370345389823
C            6.38342554904832       -3.16468193032124        1.10147104310494
C            4.90875347054379       -1.15399829435832       -0.26780020918773
C           -0.12474330791104       -1.27318178087923       -0.81682769781967
C           -4.15525914808752        2.87002076908138        0.63285990806170
C           -4.70221915559155        2.58829052117143        2.02686589859453
C           -3.78443573171515        4.33946418607271        0.52671159945498
H           -4.72630331746432        0.60412570915207       -1.39272312641036
H           -6.87773391790697       -0.23059825525769       -1.91636622071162
H           -7.07195838174310       -1.71569919803167       -2.87778971094977
H           -5.62798776687018       -0.70238138793605       -3.10622002168274
H           -4.82563394565380       -3.99818348385847        2.46320709852916
H           -5.07782392197094       -5.28150674074423        1.25542057408231
H           -3.45893305251119       -4.57080335389963        1.46353265189392
H           -3.12618906472072       -2.34684379888622        2.20651287088383
H           -2.34985076965159       -0.05026322965803        2.09494777776635
H           -3.35391197650858        2.30805479532996       -1.83131028202135
H           -1.97464473606360        3.16762053889494       -1.16529714694513
H           -2.02902965133973        0.16100767533138       -1.71422087183072
H           -1.42778169342449        1.38994051122965       -2.83038071882445
H           -0.90022634130576        1.59389045267317        0.73800013208557
H            0.34236220460595        2.05830024246310       -1.15092594479754
H            1.97470972449426       -0.45096327321199        0.55152600563499
H            2.07194809397366        1.18290639247228       -0.12221646056836
H            2.66311776185533        0.21548351293557       -2.35081903803400
H            2.65601412361674       -1.40590965077753       -1.64014617018397
H            4.38395379313896        1.86130577610046       -1.69617122717587
H            6.65066217584156        2.22541834415289       -0.88421447491550
H            8.37282896612594        2.40195045426761        0.73847030836870
H            8.96683704543150        1.75350357064616       -0.81781380381304
H            9.81888780119870        1.36408877040087        0.69645123619859
H            7.15895432887331       -3.72284721532264        1.62232939805748
H            5.49266153068989       -3.10754462213167        1.73544118421260
H            6.13610905694812       -3.67635525674361        0.16617298267497
H            4.40961894234632       -2.09759796667747       -0.11185032539659
H           -0.31368004227704       -1.60219254810918       -1.84069863058528
H           -1.06910057465250       -1.27716348762884       -0.26620405316037
H            0.55288740876907       -1.98049367336015       -0.34582577003543
H           -4.89968391570478        2.61477211809198       -0.00880305198480
H           -3.97494515165566        2.88148650616770        2.77611772839598
H           -4.94561879622209        1.53597551975273        2.16329187405997
H           -5.61171810881510        3.16305967082867        2.17967974583145
H           -4.60940556955831        4.94601628434917        0.87497888949336
H           -2.98477555348540        4.62925949177819        1.11051240882462
H           -3.53759607008492        4.64150357599690       -0.48242501864020
H           -0.92131955770957        2.83499534529862        2.72172923001652
72
 energy: -99.404723811262 gnorm: 0.035333068859 xtb: 6.6.1 (8d0f1dd)
N           -1.78389395692110        2.75412074191382        2.21560821239777
C           -1.78730632581566        2.08384033606892        1.16323105302565
C           -2.98128630672555        1.90506193969674        0.26924627982258
C           -3.46892733371030        0.46062724226382        0.34508093465244
C           -4.37724378117985       -0.03252416253193       -0.59643321129314
C           -4.84813319816029       -1.33540209397302       -0.54103248522711
O           -5.73445200602576       -1.88336502613790       -1.39902494204507
C           -6.35015062298965       -1.07339237544000       -2.37255480540666
C           -4.38762330688473       -2.20463908572636        0.48484289273459
O           -4.89332079846072       -3.45438647988036        0.45971352195872
C           -4.53305375504571       -4.36241379112234        1.47500687338982
C           -3.48095290016689       -1.71351878799573        1.41011991986685
C           -3.03265402913890       -0.39963304281871        1.34165083611398
C           -2.48747191807696        2.20964551512256       -1.16968620486949
C           -1.55392678649600        1.13898063673824       -1.76764545760836
C           -0.20443462363533        1.12674446127180       -1.15748832960456
N            0.47011118736353        0.04143690707724       -0.79401289207485
C            1.84365265960649        0.14140891649846       -0.35840460830516
C            2.83174585240879       -0.34998727932895       -1.43303310782830
C            4.24303044743385       -0.14252492118060       -0.95676226082779
C            4.88410981263283        1.06844509843905       -1.16225914410790
C            6.17560102310486        1.27564369273443       -0.70337237940118
C            6.85321893785063        0.27361324530053       -0.02367605174114
O            8.10652138874421        0.36144972520778        0.45883735727493
C            8.84301694384465        1.54433317375677        0.24825779826975
C            6.20127185378967       -0.97102994714286        0.19816576913976
O            6.93033245150598       -1.88887463797555        0.86365256863953
C            6.38369882734869       -3.16385943497246        1.10190408831366
C            4.90861057135090       -1.15373721523923       -0.26808876196705
C           -0.12484979306264       -1.27338795897596       -0.81671725629851
C           -4.15445882936188        2.86159777902325        0.63588613317227
C           -4.69578081209816        2.58683838363342        2.03694303704984
C           -3.79572377258838        4.33787197054624        0.51692832904782
H           -4.73146963585105        0.61271203755249       -1.38333520952724
H           -6.87700044426479       -0.22993469349172       -1.91649420283318
H           -7.06956180724983       -1.71692161024588       -2.87561016567119
H           -5.62667097978097       -0.70236948626735       -3.10579581738578
H           -4.82518886111766       -3.99610654732209        2.46361612082680
H           -5.07766527901594       -5.27877363421064        1.25552234432599
H           -3.45826628269776       -4.57003492243981        1.46502680009235
H           -3.12461363131071       -2.34457657416759        2.20817707461491
H           -2.34882258465814       -0.04836677154302        2.09865435021873
H           -3.35181586935024        2.30852584544337       -1.82574110187923
H           -1.96946008801905        3.16873417959878       -1.16524953688727
H           -2.02983748870477        0.16156340940804       -1.71131370640736
H           -1.42918322522291        1.38948280946534       -2.82920410928157
H           -0.88874248924510        1.58882491682207        0.74407976259144
H            0.34326329692240        2.05800008162063       -1.15075812748587
H            1.97478417464749       -0.45124068221493        0.55161671486359
H            2.07201797287129        1.18266822374604       -0.12213310532817
H            2.66266376183209        0.21549198467244       -2.35094188518061
H            2.65583579381301       -1.40599837061365       -1.64035053273897
H            4.38349297001968        1.86120488469081       -1.69717563944994
H            6.65032013796328        2.22569002890026       -0.88551955348183
H            8.37216795958550        2.40241706365894        0.73763610184062
H            8.96693825845793        1.75394765274086       -0.81837411508213
H            9.81836670661998        1.36469250185987        0.69631550050384
H            7.15938312778791       -3.72157314724721        1.62301396073349
H            5.49290046861593       -3.10670389634500        1.73580975382979
H            6.13659390276867       -3.67594265190124        0.16677513181293
H            4.40943222190807       -2.09726145547326       -0.11177243753132
H           -0.31425734111934       -1.60243080280936       -1.84048679733323
H           -1.06906992254638       -1.27673636506474       -0.26587892737191
H            0.55258303505752       -1.98083695727688       -0.34573769682434
H           -4.98140762323533        2.68371974957705       -0.12052228845779
H           -3.97318353234520        2.87555764378408        2.79309869610149
H           -4.94108365879165        1.53464528550926        2.16369145156907
H           -5.60536398097502        3.16342150203658        2.18500768042049
H           -4.64272039015262        4.92978445624654        0.84911780051116
H           -2.92500784625175        4.56336831202784        1.17158609392061
H           -3.57153573899397        4.62103268293375       -0.50648516211356
H           -0.91157659141678        2.83547931399141        2.72651591581793
72
 energy: -99.406166895488 gnorm: 0.010389937809 xtb: 6.6.1 (8d0f1dd)
N           -1.78005301459757        2.76040637452045        2.21408296953969
C           -1.78788386098389        2.08677834873461        1.16317513840880
C           -2.98084005896166        1.90592988866578        0.26656324619920
C           -3.46767871196694        0.46351467643441        0.34733798310896
C           -4.38087383839700       -0.02545229092761       -0.59036231774450
C           -4.84885038948800       -1.32885542118870       -0.53714108133213
O           -5.73316206097639       -1.87754812832081       -1.39641833554515
C           -6.34755733121845       -1.06886417755003       -2.37172845236242
C           -4.38559109092877       -2.19942126661090        0.48633614288562
O           -4.89015639309162       -3.44938791509508        0.45848632597232
C           -4.53181681453464       -4.35837012661202        1.47340428186233
C           -3.47936869194276       -1.70908086982175        1.41262947460732
C           -3.03060089137942       -0.39576981690803        1.34408421987397
C           -2.48317335100043        2.21202160415370       -1.17026467056069
C           -1.55189312190906        1.13943738780607       -1.76655175148665
C           -0.20241702369524        1.12642543411849       -1.15711751701732
N            0.47105193735888        0.04063018646763       -0.79377375834762
C            1.84441844553924        0.13999204278066       -0.35792946084636
C            2.83166747417556       -0.35023639356787       -1.43370903647340
C            4.24301540536283       -0.14297906356884       -0.95791516250076
C            4.88401321329991        1.06806814595627       -1.16315540033442
C            6.17550005562723        1.27513194315354       -0.70423000033133
C            6.85292954516084        0.27288669769114       -0.02464007087671
O            8.10604726383347        0.36037888439240        0.45831387376739
C            8.84264774971733        1.54337808539062        0.24895651897121
C            6.20091956098730       -0.97173780742697        0.19705465165000
O            6.92989239717632       -1.88944830422742        0.86275978098531
C            6.38342767094809       -3.16449400282878        1.10101070985237
C            4.90835111551547       -1.15437096539654       -0.26935673431975
C           -0.12514972692179       -1.27358344102008       -0.81718982159001
C           -4.15856535411100        2.85664505660818        0.63263385733551
C           -4.70777950989766        2.57630653333596        2.02898959214581
C           -3.79751139574639        4.33752679486802        0.51153203448411
H           -4.74059513047888        0.62360863086138       -1.37183725882165
H           -6.87558107016352       -0.22513056595926       -1.91761871558785
H           -7.06569575438078       -1.71380579380190       -2.87473034563110
H           -5.62316342750424       -0.69851989579025       -3.10448786398326
H           -4.82482233024130       -3.99228372953387        2.46182753648949
H           -5.07764421255634       -5.27360358463288        1.25228361504351
H           -3.45731130685289       -4.56749292833902        1.46447443638479
H           -3.12226360684104       -2.34065714176868        2.20986993325077
H           -2.34757911313139       -0.04406729659255        2.10180580344378
H           -3.34734705510466        2.31177916441667       -1.82600377765642
H           -1.96297294136250        3.17027056269490       -1.16485001096357
H           -2.03004938230161        0.16323891771670       -1.70806113526645
H           -1.42820248411760        1.38904390278698       -2.82832457677752
H           -0.89252844926701        1.58196356040289        0.74911875314655
H            0.34554084559755        2.05754133995274       -1.14924618459911
H            1.97552135216250       -0.45347676011136        0.55155205190676
H            2.07290528180990        1.18106192592132       -0.12084496824950
H            2.66192317361465        0.21621682341315       -2.35090463300467
H            2.65556149781250       -1.40602763166392       -1.64190018809236
H            4.38327741810610        1.86093265438957       -1.69782572166619
H            6.65027745051741        2.22518958687237       -0.88619138469085
H            8.37123221331790        2.40114343111628        0.73833573628226
H            8.96756175016621        1.75349837067298       -0.81745584908385
H            9.81754539573228        1.36350026331943        0.69789673042192
H            7.15912667545473       -3.72191685304651        1.62240539697097
H            5.49244978226699       -3.10745491691244        1.73467150463018
H            6.13670591979401       -3.67673633480638        0.16587109883178
H            4.40892005091520       -2.09776228106400       -0.11301506540715
H           -0.31520857931330       -1.60171583569908       -1.84113158996420
H           -1.06933493222117       -1.27614080650175       -0.26627291851705
H            0.55163611625665       -1.98200163781916       -0.34678098823126
H           -4.96486396140293        2.62507993817250       -0.08490946119182
H           -3.97989489242235        2.86493716767322        2.77961700853987
H           -4.94721117674699        1.52322056939527        2.15633813811875
H           -5.61477023234269        3.15510573767147        2.18478683227202
H           -4.64100962357542        4.93555274725066        0.84444333799973
H           -2.94426760037562        4.57472904271367        1.15574406369328
H           -3.56663561522013        4.62464012041499       -0.51044451045121
H           -0.90767565155964        2.83482096471057        2.72719278303639
72
 energy: -99.406232610137 gnorm: 0.012549664923 xtb: 6.6.1 (8d0f1dd)
N           -1.77748040238577        2.76827348445607        2.21386176469804
C           -1.78808644790555        2.08795023795362        1.16703930607221
C           -2.97957404247221        1.90667938967888        0.26756474502866
C           -3.46367914364327        0.46529448017324        0.34975621311046
C           -4.38218293855325       -0.01927743867276       -0.58416153014011
C           -4.84877543585656       -1.32269564319169       -0.53241849558243
O           -5.73255685946475       -1.87133231284196       -1.39193979551154
C           -6.34442785738254       -1.06352349847552       -2.36951957998486
C           -4.38311520864969       -2.19449008101555        0.48889226729947
O           -4.88659346777664       -3.44458990063368        0.45820374135531
C           -4.53022934917848       -4.35405908325877        1.47313284639123
C           -3.47678485779828       -1.70555558505178        1.41596990132607
C           -3.02603916161919       -0.39325801378512        1.34663407859361
C           -2.47869933849624        2.21356886045171       -1.16777719149723
C           -1.54984378739949        1.13944874228069       -1.76426619589601
C           -0.20022222286312        1.12537526193057       -1.15602203965222
N            0.47222983061475        0.03906755936005       -0.79315134855752
C            1.84553401941782        0.13762478123163       -0.35740522974188
C            2.83173556643861       -0.35088813346665       -1.43478964678351