      -----------------------------------------------------------      
     |                   =====================                   |     
     |                           x T B                           |     
     |                   =====================                   |     
     |                         S. Grimme                         |     
     |          Mulliken Center for Theoretical Chemistry        |     
     |                    University of Bonn                     |     
      -----------------------------------------------------------      

   * xtb version 6.6.1 (8d0f1dd) compiled by 'conda@1efc2f54142f' on 2023-08-01

   xtb is free software: you can redistribute it and/or modify it under
   the terms of the GNU Lesser General Public License as published by
   the Free Software Foundation, either version 3 of the License, or
   (at your option) any later version.
   
   xtb is distributed in the hope that it will be useful,
   but WITHOUT ANY WARRANTY; without even the implied warranty of
   MERCHANTABILITY or FITNESS FOR A PARTICULAR PURPOSE.  See the
   GNU Lesser General Public License for more details.
   
   Cite this work as:
   * C. Bannwarth, E. Caldeweyher, S. Ehlert, A. Hansen, P. Pracht,
     J. Seibert, S. Spicher, S. Grimme, WIREs Comput. Mol. Sci., 2020, 11,
     e01493. DOI: 10.1002/wcms.1493
   
   for GFN2-xTB:
   * C. Bannwarth, S. Ehlert and S. Grimme., J. Chem. Theory Comput., 2019,
     15, 1652-1671. DOI: 10.1021/acs.jctc.8b01176
   for GFN1-xTB:
   * S. Grimme, C. Bannwarth, P. Shushkov, J. Chem. Theory Comput., 2017,
     13, 1989-2009. DOI: 10.1021/acs.jctc.7b00118
   for GFN0-xTB:
   * P. Pracht, E. Caldeweyher, S. Ehlert, S. Grimme, ChemRxiv, 2019, preprint.
     DOI: 10.26434/chemrxiv.8326202.v1
   for GFN-FF:
   * S. Spicher and S. Grimme, Angew. Chem. Int. Ed., 2020, 59, 15665-15673.
     DOI: 10.1002/anie.202004239
   
   for ALPB and GBSA implicit solvation:
   * S. Ehlert, M. Stahn, S. Spicher, S. Grimme, J. Chem. Theory Comput.,
     2021, 17, 4250-4261. DOI: 10.1021/acs.jctc.1c00471
   
   for DFT-D4:
   * E. Caldeweyher, C. Bannwarth and S. Grimme, J. Chem. Phys., 2017,
     147, 034112. DOI: 10.1063/1.4993215
   * E. Caldeweyher, S. Ehlert, A. Hansen, H. Neugebauer, S. Spicher,
     C. Bannwarth and S. Grimme, J. Chem. Phys., 2019, 150, 154122.
     DOI: 10.1063/1.5090222
   * E. Caldeweyher, J.-M. Mewes, S. Ehlert and S. Grimme, Phys. Chem. Chem. Phys.
     2020, 22, 8499-8512. DOI: 10.1039/D0CP00502A
   
   for sTDA-xTB:
   * S. Grimme and C. Bannwarth, J. Chem. Phys., 2016, 145, 054103.
     DOI: 10.1063/1.4959605
   
   in the mass-spec context:
   * V. Asgeirsson, C. Bauer and S. Grimme, Chem. Sci., 2017, 8, 4879.
     DOI: 10.1039/c7sc00601b
   * J. Koopman and S. Grimme, ACS Omega 2019, 4, 12, 15120-15133.
     DOI: 10.1021/acsomega.9b02011
   
   for metadynamics refer to:
   * S. Grimme, J. Chem. Theory Comput., 2019, 155, 2847-2862
     DOI: 10.1021/acs.jctc.9b00143
   
   for SPH calculations refer to:
   * S. Spicher and S. Grimme, J. Chem. Theory Comput., 2021, 17, 1701-1714
     DOI: 10.1021/acs.jctc.0c01306
   
   with help from (in alphabetical order)
   P. Atkinson, C. Bannwarth, F. Bohle, G. Brandenburg, E. Caldeweyher
   M. Checinski, S. Dohm, S. Ehlert, S. Ehrlich, I. Gerasimov, C. Hölzer
   A. Katbashev, J. Koopman, C. Lavigne, S. Lehtola, F. März, M. Müller,
   F. Musil, H. Neugebauer, J. Pisarek, C. Plett, P. Pracht, F. Pultar,
   J. Seibert, P. Shushkov, S. Spicher, M. Stahn, M. Steiner, T. Strunk,
   J. Stückrath, T. Rose, and J. Unsleber
   
 * started run on 2024/06/05 at 19:58:08.840     

           -------------------------------------------------
          |                Calculation Setup                |
           -------------------------------------------------

          program call               : xtb struc.xyz --opt loose --input .xc1 --gfn2
          hostname                   : n-62-21-71
          coordinate file            : struc.xyz
          omp threads                :                     1

   ID    Z sym.   atoms
    1    6 C      1, 3, 5-7, 10, 11, 14
    2    7 N      2, 4, 9, 13
    3    8 O      8, 12
    4    1 H      15-25
constraining bond 4 16 to    4.6866700 Å, actual value:    3.9838146 Å

           -------------------------------------------------
          |                 G F N 2 - x T B                 |
           -------------------------------------------------

        Reference                      10.1021/acs.jctc.8b01176
      * Hamiltonian:
        H0-scaling (s, p, d)           1.850000    2.230000    2.230000
        zeta-weighting                 0.500000
      * Dispersion:
        s8                             2.700000
        a1                             0.520000
        a2                             5.000000
        s9                             5.000000
      * Repulsion:
        kExp                           1.500000    1.000000
        rExp                           1.000000
      * Coulomb:
        alpha                          2.000000
        third order                    shell-resolved
        anisotropic                    true
        a3                             3.000000
        a5                             4.000000
        cn-shift                       1.200000
        cn-exp                         4.000000
        max-rad                        5.000000


          ...................................................
          :                      SETUP                      :
          :.................................................:
          :  # basis functions                  67          :
          :  # atomic orbitals                  67          :
          :  # shells                           39          :
          :  # electrons                        74          :
          :  max. iterations                   250          :
          :  Hamiltonian                  GFN2-xTB          :
          :  restarted?                      false          :
          :  GBSA solvation                  false          :
          :  PC potential                    false          :
          :  electronic temp.         2500.0000000     K    :
          :  accuracy                    1.0000000          :
          :  -> integral cutoff          0.2500000E+02      :
          :  -> integral neglect         0.1000000E-07      :
          :  -> SCF convergence          0.1000000E-05 Eh   :
          :  -> wf. convergence          0.1000000E-03 e    :
          :  Broyden damping             0.4000000          :
          ...................................................

 iter      E             dE          RMSdq      gap      omega  full diag
   1    -42.5894761 -0.425895E+02  0.446E+00    3.52       0.0  T
   2    -42.7660496 -0.176573E+00  0.253E+00    3.37       1.0  T
   3    -42.7736311 -0.758158E-02  0.147E+00    3.27       1.0  T
   4    -42.7712089  0.242228E-02  0.522E-01    3.20       1.0  T
   5    -42.7763755 -0.516665E-02  0.115E-01    3.24       1.0  T
   6    -42.7764786 -0.103096E-03  0.599E-02    3.22       1.0  T
   7    -42.7764977 -0.190557E-04  0.265E-02    3.24       1.0  T
   8    -42.7765022 -0.458752E-05  0.826E-03    3.24       2.4  T
   9    -42.7765028 -0.511866E-06  0.435E-03    3.24       4.6  T
  10    -42.7765028 -0.741126E-07  0.110E-03    3.24      18.2  T
  11    -42.7765028 -0.615289E-08  0.514E-04    3.24      38.9  T
  12    -42.7765028 -0.131732E-08  0.162E-04    3.24     123.6  T

   *** convergence criteria satisfied after 12 iterations ***

         #    Occupation            Energy/Eh            Energy/eV
      -------------------------------------------------------------
         1        2.0000           -0.9218663             -25.0853
       ...           ...                  ...                  ...
        31        2.0000           -0.6245728             -16.9955
        32        2.0000           -0.6188521             -16.8398
        33        2.0000           -0.5946289             -16.1807
        34        1.9999           -0.5766508             -15.6915
        35        1.9996           -0.5616187             -15.2824
        36        1.9994           -0.5584494             -15.1962
        37        1.9993           -0.5575820             -15.1726 (HOMO)
        38        0.0017           -0.4385664             -11.9340 (LUMO)
        39        0.0000           -0.4059970             -11.0477
        40        0.0000           -0.3720875             -10.1250
        41                         -0.2883077              -7.8453
        42                         -0.2064013              -5.6165
       ...                                ...                  ...
        67                          0.5638960              15.3444
      -------------------------------------------------------------
                  HL-Gap            0.1190156 Eh            3.2386 eV
             Fermi-level           -0.4943591 Eh          -13.4522 eV

 SCC (total)                   0 d,  0 h,  0 min,  0.063 sec
 SCC setup                      ...        0 min,  0.000 sec (  0.374%)
 Dispersion                     ...        0 min,  0.000 sec (  0.479%)
 classical contributions        ...        0 min,  0.000 sec (  0.120%)
 integral evaluation            ...        0 min,  0.005 sec (  8.531%)
 iterations                     ...        0 min,  0.031 sec ( 49.006%)
 molecular gradient             ...        0 min,  0.026 sec ( 41.214%)
 printout                       ...        0 min,  0.000 sec (  0.254%)

         :::::::::::::::::::::::::::::::::::::::::::::::::::::
         ::                     SUMMARY                     ::
         :::::::::::::::::::::::::::::::::::::::::::::::::::::
         :: total energy             -43.127346340797 Eh    ::
         :: gradient norm              1.878305585898 Eh/a0 ::
         :: HOMO-LUMO gap              3.238579380711 eV    ::
         ::.................................................::
         :: SCC energy               -42.776502838750 Eh    ::
         :: -> isotropic ES            0.143394945287 Eh    ::
         :: -> anisotropic ES         -0.005231236584 Eh    ::
         :: -> anisotropic XC          0.012162721064 Eh    ::
         :: -> dispersion             -0.022660936007 Eh    ::
         :: repulsion energy           0.531105277918 Eh    ::
         :: add. restraining          -0.882062938975 Eh    ::
         :: total charge               1.000000000000 e     ::
         :::::::::::::::::::::::::::::::::::::::::::::::::::::

      ----------------------------------------------------------- 
     |                   =====================                   |
     |                        A N C O P T                        |
     |                   =====================                   |
     |               Approximate Normal Coordinate               |
     |                Rational Function Optimizer                |
      ----------------------------------------------------------- 

          ...................................................
          :                      SETUP                      :
          :.................................................:
          :   optimization level             loose          :
          :   max. optcycles                   200          :
          :   ANC micro-cycles                  20          :
          :   degrees of freedom                69          :
          :.................................................:
          :   RF solver                   davidson          :
          :   write xtbopt.log                true          :
          :   linear?                        false          :
          :   energy convergence         0.5000000E-04 Eh   :
          :   grad. convergence          0.4000000E-02 Eh/α :
          :   maxmium RF displ.          1.0000000          :
          :   Hlow (freq-cutoff)         0.1000000E-01      :
          :   Hmax (freq-cutoff)         5.0000000          :
          :   S6 in model hess.         20.0000000          :
          ...................................................

generating ANC from model Hessian ...
Using Lindh-Hessian (1995)
 Shifting diagonal of input Hessian by    1.5373182544525046     
 Lowest  eigenvalues of input Hessian
    0.010000    0.000000    0.000000    0.000000    0.000000    0.000000
    0.000000    1.541373    1.542903    1.545358    1.547786    1.548562
    1.551427    1.554684    1.558837    1.562722    1.566843    1.577429
 Highest eigenvalues
    3.627314    3.676579    3.747093    3.834976    3.959352    4.078527


........................................................................
.............................. CYCLE    1 ..............................
........................................................................

 iter      E             dE          RMSdq      gap      omega  full diag
   1    -42.7765028 -0.427765E+02  0.540E-05    3.24       0.0  T
   2    -42.7765028 -0.643041E-11  0.289E-05    3.24     692.1  T
   3    -42.7765028  0.881073E-12  0.138E-05    3.24    1448.6  T
     SCC iter.                  ...        0 min,  0.005 sec
     gradient                   ...        0 min,  0.013 sec
 * total energy  :   -43.1273463 Eh     change       -0.6633627E-10 Eh
   gradient norm :     1.8783060 Eh/α   predicted     0.0000000E+00 (-100.00%)
   displ. norm   :     0.9869413 α      lambda       -0.1824278E+01
   maximum displ.:     0.9803659 α      in ANC's #1, #61, #50, ...

........................................................................
.............................. CYCLE    2 ..............................
........................................................................

 iter      E             dE          RMSdq      gap      omega  full diag
   1    -42.7233334 -0.427233E+02  0.136E+00    3.51       0.0  T
   2    -42.7344230 -0.110896E-01  0.701E-01    3.54       1.0  T
   3    -42.7353289 -0.905970E-03  0.356E-01    3.54       1.0  T
   4    -42.7356880 -0.359032E-03  0.875E-02    3.54       1.0  T
   5    -42.7358079 -0.119942E-03  0.323E-02    3.54       1.0  T
   6    -42.7358128 -0.485859E-05  0.166E-02    3.54       1.2  T
   7    -42.7358135 -0.757187E-06  0.447E-03    3.54       4.5  T
   8    -42.7358139 -0.332663E-06  0.104E-03    3.54      19.1  T
   9    -42.7358139 -0.304613E-08  0.439E-04    3.54      45.6  T
  10    -42.7358139 -0.812577E-09  0.162E-04    3.54     123.7  T
     SCC iter.                  ...        0 min,  0.014 sec
     gradient                   ...        0 min,  0.013 sec
 * total energy  :   -45.7339661 Eh     change       -0.2606620E+01 Eh
   gradient norm :     3.4072883 Eh/α   predicted    -0.1800611E+01 ( -30.92%)
   displ. norm   :     0.9952544 α      lambda       -0.3381996E+01
   maximum displ.:     0.9910904 α      in ANC's #1, #50, #52, ...

........................................................................
.............................. CYCLE    3 ..............................
........................................................................

 iter      E             dE          RMSdq      gap      omega  full diag
   1    -42.4834028 -0.424834E+02  0.167E+00    2.93       0.0  T
   2    -42.5059998 -0.225970E-01  0.877E-01    2.82       1.0  T
   3    -42.5107003 -0.470055E-02  0.493E-01    2.90       1.0  T
   4    -42.5127029 -0.200252E-02  0.259E-01    2.92       1.0  T
   5    -42.5136315 -0.928674E-03  0.468E-02    2.91       1.0  T
   6    -42.5136398 -0.824908E-05  0.181E-02    2.91       1.1  T
   7    -42.5136408 -0.982214E-06  0.699E-03    2.91       2.9  T
   8    -42.5136412 -0.407635E-06  0.205E-03    2.91       9.8  T
   9    -42.5136412 -0.177310E-07  0.580E-04    2.91      34.5  T
  10    -42.5136412 -0.162728E-08  0.197E-04    2.91     101.7  T
     SCC iter.                  ...        0 min,  0.014 sec
     gradient                   ...        0 min,  0.013 sec
 * total energy  :   -49.8071182 Eh     change       -0.4073152E+01 Eh
   gradient norm :     4.9330303 Eh/α   predicted    -0.3366116E+01 ( -17.36%)
   displ. norm   :     0.9876580 α      lambda       -0.4839923E+01
   maximum displ.:     0.9680703 α      in ANC's #1, #47, #67, ...

........................................................................
.............................. CYCLE    4 ..............................
........................................................................

 iter      E             dE          RMSdq      gap      omega  full diag
   1    -42.1455993 -0.421456E+02  0.231E+00    1.94       0.0  T
   2    -42.1684280 -0.228287E-01  0.136E+00    1.90       1.0  T
   3    -42.1805729 -0.121449E-01  0.862E-01    1.63       1.0  T
   4    -42.1976823 -0.171094E-01  0.423E-01    1.82       1.0  T
   5    -42.2009154 -0.323309E-02  0.128E-01    1.69       1.0  T
   6    -42.2011480 -0.232590E-03  0.435E-02    1.72       1.0  T
   7    -42.2011564 -0.838483E-05  0.142E-02    1.72       1.4  T
   8    -42.2011583 -0.188712E-05  0.463E-03    1.72       4.3  T
   9    -42.2011584 -0.105067E-06  0.177E-03    1.72      11.3  T
  10    -42.2011584 -0.148013E-07  0.657E-04    1.72      30.4  T
  11    -42.2011584 -0.199856E-08  0.183E-04    1.72     109.3  T
     SCC iter.                  ...        0 min,  0.015 sec
     gradient                   ...        0 min,  0.013 sec
 * total energy  :   -55.5010161 Eh     change       -0.5693898E+01 Eh
   gradient norm :     6.7468596 Eh/α   predicted    -0.4780558E+01 ( -16.04%)
   displ. norm   :     0.9899759 α      lambda       -0.6654126E+01
   maximum displ.:     0.9658972 α      in ANC's #1, #67, #66, ...

........................................................................
.............................. CYCLE    5 ..............................
........................................................................

 iter      E             dE          RMSdq      gap      omega  full diag
   1    -41.9478772 -0.419479E+02  0.263E+00    0.20       0.0  T
   2    -41.8377268  0.110150E+00  0.257E+00    1.54       1.0  T
   3    -42.0155258 -0.177799E+00  0.114E+00    0.34       1.0  T
   4    -42.0295980 -0.140722E-01  0.423E-01    0.67       1.0  T
   5    -42.0319274 -0.232939E-02  0.288E-01    0.45       1.0  T
   6    -42.0338787 -0.195136E-02  0.948E-02    0.55       1.0  T
   7    -42.0339484 -0.696798E-04  0.505E-02    0.54       1.0  T
   8    -42.0339742 -0.258301E-04  0.245E-02    0.54       1.0  T
   9    -42.0339922 -0.179235E-04  0.401E-03    0.53       5.0  T
  10    -42.0339920  0.213563E-06  0.379E-03    0.53       5.3  T
  11    -42.0339923 -0.380560E-06  0.682E-04    0.53      29.3  T
  12    -42.0339923  0.693483E-09  0.543E-04    0.53      36.8  T
     SCC iter.                  ...        0 min,  0.016 sec
     gradient                   ...        0 min,  0.013 sec
 * total energy  :   -63.1694616 Eh     change       -0.7668445E+01 Eh
   gradient norm :     8.7888855 Eh/α   predicted    -0.6587966E+01 ( -14.09%)
   displ. norm   :     0.9914425 α      lambda       -0.8693697E+01
   maximum displ.:     0.9624334 α      in ANC's #1, #66, #50, ...

........................................................................
.............................. CYCLE    6 ..............................
........................................................................

 iter      E             dE          RMSdq      gap      omega  full diag
   1    -41.8778677 -0.418779E+02  0.271E+00    0.57       0.0  T
   2    -41.8072967  0.705710E-01  0.260E+00    1.95       1.0  T
   3    -42.0050334 -0.197737E+00  0.732E-01    0.84       1.0  T
   4    -42.0012430  0.379039E-02  0.655E-01    0.94       1.0  T
   5    -42.0010920  0.150986E-03  0.482E-01    0.77       1.0  T
   6    -42.0070477 -0.595568E-02  0.270E-01    0.97       1.0  T
   7    -42.0089338 -0.188608E-02  0.639E-02    0.90       1.0  T
   8    -42.0088963  0.374986E-04  0.627E-02    0.90       1.0  T
   9    -42.0090018 -0.105506E-03  0.999E-03    0.89       2.0  T
  10    -42.0090017  0.984963E-07  0.658E-03    0.89       3.0  T
  11    -42.0090028 -0.118517E-05  0.197E-03    0.89      10.1  T
  12    -42.0090029 -0.775671E-07  0.515E-04    0.89      38.8  T
  13    -42.0090029 -0.379834E-08  0.225E-04    0.89      89.0  T
     SCC iter.                  ...        0 min,  0.019 sec
     gradient                   ...        0 min,  0.014 sec
 * total energy  :   -71.3721528 Eh     change       -0.8202691E+01 Eh
   gradient norm :     3.5633083 Eh/α   predicted    -0.8619622E+01 (   5.08%)
   displ. norm   :     0.8131430 α      lambda       -0.2664563E+01
   maximum displ.:     0.3242460 α      in ANC's #1, #32, #66, ...

........................................................................
.............................. CYCLE    7 ..............................
........................................................................

 iter      E             dE          RMSdq      gap      omega  full diag
   1    -41.3678161 -0.413678E+02  0.460E+00    0.62       0.0  T
   2    -40.9061344  0.461682E+00  0.601E+00    1.29       1.0  T
   3    -41.9935181 -0.108738E+01  0.251E+00    0.99       1.0  T
   4    -42.0792000 -0.856819E-01  0.146E+00    0.57       1.0  T
   5    -42.1256257 -0.464258E-01  0.729E-01    0.51       1.0  T
   6    -42.1096238  0.160019E-01  0.890E-01    0.28       1.0  T
   7    -42.1299295 -0.203057E-01  0.403E-01    0.53       1.0  T
   8    -42.1344492 -0.451966E-02  0.141E-01    0.43       1.0  T
   9    -42.1347762 -0.326986E-03  0.659E-02    0.45       1.0  T
  10    -42.1348709 -0.946792E-04  0.312E-02    0.44       1.0  T
  11    -42.1348919 -0.210844E-04  0.543E-03    0.44       3.7  T
  12    -42.1348924 -0.410072E-06  0.148E-03    0.44      13.5  T
  13    -42.1348923  0.709485E-08  0.101E-03    0.44      19.8  T
  14    -42.1348924 -0.644462E-08  0.778E-04    0.44      25.7  T
  15    -42.1348924 -0.165312E-07  0.112E-04    0.44     178.2  T
     SCC iter.                  ...        0 min,  0.050 sec
     gradient                   ...        0 min,  0.022 sec
 * total energy  :   -67.9839069 Eh     change        0.3388246E+01 Eh
   gradient norm :    45.4410033 Eh/α   predicted    -0.2213189E+01 (-165.32%)
   displ. norm   :     0.3314002 α      lambda       -0.1332627E+02
   maximum displ.:     0.1860368 α      in ANC's #1, #45, #41, ...

........................................................................
.............................. CYCLE    8 ..............................
........................................................................

 iter      E             dE          RMSdq      gap      omega  full diag
   1    -42.0577302 -0.420577E+02  0.114E+00    0.55       0.0  T
   2    -41.8493894  0.208341E+00  0.247E+00    0.72       1.0  T
   3    -42.0618751 -0.212486E+00  0.969E-01    0.54       1.0  T
   4    -42.0769370 -0.150619E-01  0.624E-01    0.64       1.0  T
   5    -42.0870837 -0.101468E-01  0.295E-01    0.53       1.0  T
   6    -42.0884960 -0.141226E-02  0.916E-02    0.56       1.0  T
   7    -42.0886979 -0.201917E-03  0.452E-02    0.55       1.0  T
   8    -42.0887411 -0.432396E-04  0.187E-02    0.55       1.1  T
   9    -42.0887433 -0.217954E-05  0.113E-02    0.55       1.8  T
  10    -42.0887465 -0.322018E-05  0.399E-03    0.55       5.0  T
  11    -42.0887469 -0.394289E-06  0.116E-03    0.55      17.2  T
  12    -42.0887470 -0.837939E-08  0.377E-04    0.55      53.0  T
  13    -42.0887470 -0.250904E-08  0.112E-04    0.55     179.2  T
     SCC iter.                  ...        0 min,  0.023 sec
     gradient                   ...        0 min,  0.020 sec
 * total energy  :   -72.0982523 Eh     change       -0.4114345E+01 Eh
   gradient norm :     1.9402379 Eh/α   predicted    -0.7394929E+01 (  79.74%)
   displ. norm   :     0.3945293 α      lambda       -0.2861049E+00
   maximum displ.:     0.1703998 α      in ANC's #66, #50, #45, ...

........................................................................
.............................. CYCLE    9 ..............................
........................................................................

 iter      E             dE          RMSdq      gap      omega  full diag
   1    -42.0963092 -0.420963E+02  0.932E-01    0.59       0.0  T
   2    -41.9724080  0.123901E+00  0.213E+00    0.67       1.0  T
   3    -42.1106878 -0.138280E+00  0.520E-01    0.61       1.0  T
   4    -42.1133192 -0.263140E-02  0.408E-01    0.52       1.0  T
   5    -42.1160358 -0.271662E-02  0.217E-01    0.57       1.0  T
   6    -42.1171987 -0.116286E-02  0.937E-02    0.55       1.0  T
   7    -42.1174561 -0.257486E-03  0.159E-02    0.55       1.3  T
   8    -42.1174603 -0.412219E-05  0.697E-03    0.56       2.9  T
   9    -42.1174607 -0.416723E-06  0.400E-03    0.56       5.0  T
  10    -42.1174611 -0.395926E-06  0.841E-04    0.56      23.8  T
  11    -42.1174611 -0.833462E-08  0.421E-04    0.56      47.5  T
     SCC iter.                  ...        0 min,  0.015 sec
     gradient                   ...        0 min,  0.013 sec
 * total energy  :   -72.2405367 Eh     change       -0.1422845E+00 Eh
   gradient norm :     1.1069530 Eh/α   predicted    -0.1653191E+00 (  16.19%)
   displ. norm   :     0.3677881 α      lambda       -0.9886026E-01
   maximum displ.:     0.1430050 α      in ANC's #32, #41, #31, ...

........................................................................
.............................. CYCLE   10 ..............................
........................................................................

 iter      E             dE          RMSdq      gap      omega  full diag
   1    -42.0861011 -0.420861E+02  0.958E-01    0.45       0.0  T
   2    -42.0797217  0.637937E-02  0.109E+00    0.59       1.0  T
   3    -42.0744496  0.527206E-02  0.982E-01    0.52       1.0  T
   4    -42.0999376 -0.254880E-01  0.546E-01    0.51       1.0  T
   5    -42.1049160 -0.497831E-02  0.244E-01    0.52       1.0  T
   6    -42.1059424 -0.102641E-02  0.160E-01    0.48       1.0  T
   7    -42.1065699 -0.627548E-03  0.752E-02    0.49       1.0  T
   8    -42.1066892 -0.119297E-03  0.400E-02    0.49       1.0  T
   9    -42.1067231 -0.338940E-04  0.140E-02    0.49       1.4  T
  10    -42.1067265 -0.336416E-05  0.485E-03    0.49       4.1  T
  11    -42.1067271 -0.605766E-06  0.147E-03    0.49      13.6  T
  12    -42.1067271 -0.183659E-07  0.426E-04    0.49      46.9  T
  13    -42.1067271 -0.411450E-08  0.114E-04    0.49     175.4  T
     SCC iter.                  ...        0 min,  0.018 sec
     gradient                   ...        0 min,  0.013 sec
 * total energy  :   -72.2951948 Eh     change       -0.5465807E-01 Eh
   gradient norm :     0.3365049 Eh/α   predicted    -0.5611710E-01 (   2.67%)
   displ. norm   :     0.2088678 α      lambda       -0.4305313E-01
   maximum displ.:     0.0679488 α      in ANC's #42, #67, #33, ...

........................................................................
.............................. CYCLE   11 ..............................
........................................................................

 iter      E             dE          RMSdq      gap      omega  full diag
   1    -42.1286507 -0.421287E+02  0.465E-01    0.48       0.0  T
   2    -42.0944488  0.342018E-01  0.107E+00    0.58       1.0  T
   3    -42.1315258 -0.370770E-01  0.287E-01    0.52       1.0  T
   4    -42.1314449  0.808996E-04  0.269E-01    0.47       1.0  T
   5    -42.1327190 -0.127407E-02  0.125E-01    0.51       1.0  T
   6    -42.1333408 -0.621804E-03  0.468E-02    0.50       1.0  T
   7    -42.1333944 -0.535726E-04  0.145E-02    0.50       1.4  T
   8    -42.1333984 -0.400475E-05  0.514E-03    0.50       3.9  T
   9    -42.1333988 -0.412031E-06  0.150E-03    0.50      13.3  T
  10    -42.1333988 -0.453181E-07  0.527E-04    0.50      38.0  T
  11    -42.1333988 -0.406850E-08  0.252E-04    0.50      79.3  T
     SCC iter.                  ...        0 min,  0.015 sec
     gradient                   ...        0 min,  0.013 sec
 * total energy  :   -72.3329107 Eh     change       -0.3771595E-01 Eh
   gradient norm :     0.2351233 Eh/α   predicted    -0.2246565E-01 ( -40.43%)
   displ. norm   :     0.6009171 α      lambda       -0.1140337E+00
   maximum displ.:     0.1735701 α      in ANC's #42, #67, #52, ...

........................................................................
.............................. CYCLE   12 ..............................
........................................................................

 iter      E             dE          RMSdq      gap      omega  full diag
   1    -42.1694509 -0.421695E+02  0.143E+00    0.74       0.0  T
   2    -42.0168242  0.152627E+00  0.248E+00    0.57       1.0  T
   3    -42.2027977 -0.185973E+00  0.676E-01    0.65       1.0  T
   4    -42.2065447 -0.374705E-02  0.531E-01    0.52       1.0  T
   5    -42.2089961 -0.245136E-02  0.343E-01    0.61       1.0  T
   6    -42.2128982 -0.390213E-02  0.884E-02    0.57       1.0  T
   7    -42.2130983 -0.200072E-03  0.313E-02    0.57       1.0  T
   8    -42.2131132 -0.148878E-04  0.185E-02    0.57       1.1  T
   9    -42.2131194 -0.621448E-05  0.529E-03    0.57       3.8  T
  10    -42.2131201 -0.667947E-06  0.111E-03    0.57      18.1  T
  11    -42.2131201 -0.557286E-08  0.533E-04    0.57      37.5  T
  12    -42.2131201 -0.381249E-08  0.112E-04    0.57     178.7  T
     SCC iter.                  ...        0 min,  0.016 sec
     gradient                   ...        0 min,  0.013 sec
 * total energy  :   -72.3559716 Eh     change       -0.2306084E-01 Eh
   gradient norm :     2.5931120 Eh/α   predicted    -0.7760565E-01 ( 236.53%)
   displ. norm   :     0.2382353 α      lambda       -0.1884772E+00
   maximum displ.:     0.1091222 α      in ANC's #1, #45, #50, ...

........................................................................
.............................. CYCLE   13 ..............................
........................................................................

 iter      E             dE          RMSdq      gap      omega  full diag
   1    -42.2037850 -0.422038E+02  0.969E-01    0.72       0.0  T
   2    -42.1509389  0.528461E-01  0.156E+00    0.78       1.0  T
   3    -42.2228015 -0.718626E-01  0.332E-01    0.69       1.0  T
   4    -42.2232678 -0.466370E-03  0.229E-01    0.68       1.0  T
   5    -42.2242206 -0.952810E-03  0.165E-01    0.70       1.0  T
   6    -42.2248660 -0.645387E-03  0.765E-02    0.68       1.0  T
   7    -42.2250196 -0.153545E-03  0.149E-02    0.68       1.3  T
   8    -42.2250193  0.317686E-06  0.103E-02    0.68       1.9  T
   9    -42.2250216 -0.232336E-05  0.366E-03    0.68       5.5  T
  10    -42.2250217 -0.156672E-06  0.165E-03    0.68      12.1  T
  11    -42.2250218 -0.595909E-07  0.414E-04    0.68      48.3  T
  12    -42.2250218 -0.110670E-08  0.105E-04    0.68     189.9  T
     SCC iter.                  ...        0 min,  0.016 sec
     gradient                   ...        0 min,  0.013 sec
 * total energy  :   -72.4311974 Eh     change       -0.7522582E-01 Eh
   gradient norm :     0.5270414 Eh/α   predicted    -0.9958719E-01 (  32.38%)
   displ. norm   :     0.4651620 α      lambda       -0.5637701E-01
   maximum displ.:     0.1628137 α      in ANC's #52, #66, #33, ...

........................................................................
.............................. CYCLE   14 ..............................
........................................................................

 iter      E             dE          RMSdq      gap      omega  full diag
   1    -42.2152096 -0.422152E+02  0.169E+00    0.94       0.0  T
   2    -41.9987279  0.216482E+00  0.310E+00    0.82       1.0  T
   3    -42.2692843 -0.270556E+00  0.640E-01    0.83       1.0  T
   4    -42.2752421 -0.595776E-02  0.297E-01    0.80       1.0  T
   5    -42.2758261 -0.584048E-03  0.140E-01    0.78       1.0  T
   6    -42.2762614 -0.435220E-03  0.791E-02    0.76       1.0  T
   7    -42.2764112 -0.149806E-03  0.375E-02    0.78       1.0  T
   8    -42.2764433 -0.321587E-04  0.164E-02    0.77       1.2  T
   9    -42.2764467 -0.338629E-05  0.868E-03    0.77       2.3  T
  10    -42.2764483 -0.160195E-05  0.244E-03    0.77       8.2  T
  11    -42.2764484 -0.120669E-06  0.108E-03    0.77      18.4  T
  12    -42.2764484 -0.144994E-07  0.461E-04    0.77      43.4  T
  13    -42.2764484 -0.303551E-08  0.158E-04    0.77     126.9  T
     SCC iter.                  ...        0 min,  0.018 sec
     gradient                   ...        0 min,  0.013 sec
 * total energy  :   -72.4810161 Eh     change       -0.4981870E-01 Eh
   gradient norm :     0.5827312 Eh/α   predicted    -0.3428780E-01 ( -31.17%)
   displ. norm   :     0.6726780 α      lambda       -0.9096825E-01
   maximum displ.:     0.2453768 α      in ANC's #52, #33, #67, ...

........................................................................
.............................. CYCLE   15 ..............................
........................................................................

 iter      E             dE          RMSdq      gap      omega  full diag
   1    -42.2921315 -0.422921E+02  0.143E+00    1.02       0.0  T
   2    -42.1334457  0.158686E+00  0.259E+00    0.72       1.0  T
   3    -42.3219248 -0.188479E+00  0.662E-01    0.88       1.0  T
   4    -42.3282527 -0.632788E-02  0.357E-01    0.87       1.0  T
   5    -42.3299553 -0.170259E-02  0.120E-01    0.84       1.0  T
   6    -42.3302242 -0.268936E-03  0.649E-02    0.81       1.0  T
   7    -42.3303128 -0.885537E-04  0.370E-02    0.83       1.0  T
   8    -42.3303330 -0.201813E-04  0.203E-02    0.83       1.0  T
   9    -42.3303403 -0.734750E-05  0.709E-03    0.82       2.8  T
  10    -42.3303412 -0.918297E-06  0.320E-03    0.82       6.2  T
  11    -42.3303415 -0.201442E-06  0.110E-03    0.82      18.1  T
  12    -42.3303415 -0.185529E-07  0.401E-04    0.82      49.8  T
  13    -42.3303415 -0.203378E-08  0.144E-04    0.82     138.6  T
     SCC iter.                  ...        0 min,  0.017 sec
     gradient                   ...        0 min,  0.013 sec
 * total energy  :   -72.5308592 Eh     change       -0.4984312E-01 Eh
   gradient norm :     1.2484334 Eh/α   predicted    -0.6606595E-01 (  32.55%)
   displ. norm   :     0.2331726 α      lambda       -0.4317284E-01
   maximum displ.:     0.0876435 α      in ANC's #52, #50, #44, ...

........................................................................
.............................. CYCLE   16 ..............................
........................................................................

 iter      E             dE          RMSdq      gap      omega  full diag
   1    -42.3471456 -0.423471E+02  0.324E-01    0.79       0.0  T
   2    -42.3429688  0.417674E-02  0.427E-01    0.73       1.0  T
   3    -42.3476626 -0.469379E-02  0.198E-01    0.80       1.0  T
   4    -42.3480086 -0.345936E-03  0.114E-01    0.77       1.0  T
   5    -42.3483299 -0.321379E-03  0.239E-02    0.78       1.0  T
   6    -42.3483374 -0.749584E-05  0.127E-02    0.78       1.6  T
   7    -42.3483414 -0.393656E-05  0.658E-03    0.78       3.0  T
   8    -42.3483424 -0.988832E-06  0.246E-03    0.78       8.1  T
   9    -42.3483424 -0.727386E-07  0.138E-03    0.78      14.5  T
  10    -42.3483425 -0.191396E-07  0.611E-04    0.78      32.7  T
  11    -42.3483425 -0.703076E-08  0.188E-04    0.78     106.2  T
     SCC iter.                  ...        0 min,  0.015 sec
     gradient                   ...        0 min,  0.013 sec
 * total energy  :   -72.5641256 Eh     change       -0.3326633E-01 Eh
   gradient norm :     0.3985324 Eh/α   predicted    -0.2276024E-01 ( -31.58%)
   displ. norm   :     0.4747712 α      lambda       -0.6853955E-01
   maximum displ.:     0.1534299 α      in ANC's #52, #23, #46, ...

........................................................................
.............................. CYCLE   17 ..............................
........................................................................

 iter      E             dE          RMSdq      gap      omega  full diag
   1    -42.4021282 -0.424021E+02  0.549E-01    0.86       0.0  T
   2    -42.4016554  0.472807E-03  0.319E-01    0.74       1.0  T
   3    -42.3990724  0.258306E-02  0.409E-01    0.93       1.0  T
   4    -42.4023687 -0.329630E-02  0.166E-01    0.81       1.0  T
   5    -42.4030125 -0.643812E-03  0.420E-02    0.80       1.0  T
   6    -42.4030405 -0.279951E-04  0.222E-02    0.81       1.0  T
   7    -42.4030465 -0.603234E-05  0.126E-02    0.81       1.6  T
   8    -42.4030500 -0.352736E-05  0.597E-03    0.81       3.4  T
   9    -42.4030506 -0.610046E-06  0.300E-03    0.81       6.7  T
  10    -42.4030507 -0.972940E-07  0.996E-04    0.81      20.1  T
  11    -42.4030507 -0.179962E-07  0.189E-04    0.81     105.9  T
     SCC iter.                  ...        0 min,  0.015 sec
     gradient                   ...        0 min,  0.013 sec
 * total energy  :   -72.6219530 Eh     change       -0.5782743E-01 Eh
   gradient norm :     0.3944163 Eh/α   predicted    -0.4199458E-01 ( -27.38%)
   displ. norm   :     0.6214209 α      lambda       -0.9413024E-01
   maximum displ.:     0.1713577 α      in ANC's #24, #46, #66, ...

........................................................................
.............................. CYCLE   18 ..............................
........................................................................

 iter      E             dE          RMSdq      gap      omega  full diag
   1    -42.4868862 -0.424869E+02  0.946E-01    1.02       0.0  T
   2    -42.4783053  0.858089E-02  0.790E-01    0.68       1.0  T
   3    -42.4910286 -0.127233E-01  0.486E-01    1.04       1.0  T
   4    -42.4936988 -0.267020E-02  0.267E-01    0.88       1.0  T
   5    -42.4950201 -0.132130E-02  0.842E-02    0.93       1.0  T
   6    -42.4951524 -0.132344E-03  0.318E-02    0.90       1.0  T
   7    -42.4951629 -0.105085E-04  0.241E-02    0.92       1.0  T
   8    -42.4951748 -0.118374E-04  0.738E-03    0.91       2.7  T
   9    -42.4951755 -0.683198E-06  0.397E-03    0.91       5.0  T
  10    -42.4951756 -0.187751E-06  0.154E-03    0.91      12.9  T
  11    -42.4951757 -0.360274E-07  0.314E-04    0.91      63.7  T
  12    -42.4951757 -0.892825E-09  0.140E-04    0.91     142.7  T
     SCC iter.                  ...        0 min,  0.016 sec
     gradient                   ...        0 min,  0.013 sec
 * total energy  :   -72.6899099 Eh     change       -0.6795689E-01 Eh
   gradient norm :     0.4419140 Eh/α   predicted    -0.6524034E-01 (  -4.00%)
   displ. norm   :     0.3577798 α      lambda       -0.3093933E-01
   maximum displ.:     0.0980178 α      in ANC's #24, #57, #23, ...

........................................................................
.............................. CYCLE   19 ..............................
........................................................................

 iter      E             dE          RMSdq      gap      omega  full diag
   1    -42.5381865 -0.425382E+02  0.649E-01    1.12       0.0  T
   2    -42.5322465  0.594009E-02  0.602E-01    0.72       1.0  T
   3    -42.5416323 -0.938584E-02  0.325E-01    1.08       1.0  T
   4    -42.5429968 -0.136449E-02  0.203E-01    0.95       1.0  T
   5    -42.5437114 -0.714571E-03  0.396E-02    0.97       1.0  T
   6    -42.5437300 -0.186921E-04  0.151E-02    0.96       1.3  T
   7    -42.5437294  0.642019E-06  0.144E-02    0.97       1.4  T
   8    -42.5437340 -0.455321E-05  0.434E-03    0.96       4.6  T
   9    -42.5437342 -0.233207E-06  0.204E-03    0.96       9.8  T
  10    -42.5437343 -0.628996E-07  0.720E-04    0.96      27.8  T
  11    -42.5437343 -0.693620E-08  0.209E-04    0.96      95.7  T
     SCC iter.                  ...        0 min,  0.015 sec
     gradient                   ...        0 min,  0.013 sec
 * total energy  :   -72.7045630 Eh     change       -0.1465309E-01 Eh
   gradient norm :     0.4244710 Eh/α   predicted    -0.1744963E-01 (  19.08%)
   displ. norm   :     0.1243980 α      lambda       -0.1118892E-01
   maximum displ.:     0.0494126 α      in ANC's #50, #52, #58, ...

........................................................................
.............................. CYCLE   20 ..............................
........................................................................

 iter      E             dE          RMSdq      gap      omega  full diag
   1    -42.5532670 -0.425533E+02  0.156E-01    1.02       0.0  T
   2    -42.5529185  0.348489E-03  0.150E-01    0.97       1.0  T
   3    -42.5534406 -0.522085E-03  0.780E-02    1.01       1.0  T
   4    -42.5535037 -0.631673E-04  0.214E-02    0.99       1.0  T
   5    -42.5535121 -0.838572E-05  0.114E-02    1.00       1.8  T
   6    -42.5535160 -0.384672E-05  0.319E-03    1.00       6.3  T
   7    -42.5535160 -0.463308E-07  0.114E-03    1.00      17.5  T
   8    -42.5535160 -0.144416E-07  0.330E-04    1.00      60.6  T
   9    -42.5535160 -0.175450E-08  0.174E-04    1.00     114.8  T
     SCC iter.                  ...        0 min,  0.012 sec
     gradient                   ...        0 min,  0.013 sec
 * total energy  :   -72.7122112 Eh     change       -0.7648208E-02 Eh
   gradient norm :     0.3004994 Eh/α   predicted    -0.5681281E-02 ( -25.72%)
   displ. norm   :     0.2622565 α      lambda       -0.2848860E-01
   maximum displ.:     0.0956096 α      in ANC's #67, #66, #12, ...
 * RMSD in coord.:     1.2448340 α      energy gain  -0.2958486E+02 Eh

generating ANC from model Hessian ...
Using Lindh-Hessian (1995)
 Shifting diagonal of input Hessian by    8.3708488058226241E-003
 Lowest  eigenvalues of input Hessian
    0.000000    0.000000    0.000000    0.000000    0.000000    0.000000
    0.010000    0.012028    0.013492    0.013820    0.015451    0.017944
    0.018616    0.020300    0.022195    0.023306    0.026205    0.034173
 Highest eigenvalues
    2.039798    2.159234    2.336696    2.541069   21.886383   26.995229


........................................................................
.............................. CYCLE   21 ..............................
........................................................................

 iter      E             dE          RMSdq      gap      omega  full diag
   1    -42.5786499 -0.425786E+02  0.409E-01    1.36       0.0  T
   2    -42.5785091  0.140818E-03  0.258E-01    1.06       1.0  T
   3    -42.5798720 -0.136288E-02  0.193E-01    1.30       1.0  T
   4    -42.5802576 -0.385622E-03  0.851E-02    1.20       1.0  T
   5    -42.5804019 -0.144327E-03  0.219E-02    1.20       1.0  T
   6    -42.5804103 -0.840258E-05  0.998E-03    1.21       2.0  T
   7    -42.5804114 -0.105789E-05  0.646E-03    1.21       3.1  T
   8    -42.5804121 -0.663770E-06  0.184E-03    1.21      10.9  T
   9    -42.5804121 -0.540808E-07  0.619E-04    1.21      32.3  T
  10    -42.5804121 -0.467099E-08  0.236E-04    1.21      84.8  T
     SCC iter.                  ...        0 min,  0.014 sec
     gradient                   ...        0 min,  0.013 sec
 * total energy  :   -72.7319302 Eh     change       -0.1971902E-01 Eh
   gradient norm :     0.2379596 Eh/α   predicted     0.0000000E+00 (-100.00%)
   displ. norm   :     0.5593876 α      lambda       -0.5007039E-01
   maximum displ.:     0.2271799 α      in ANC's #7, #10, #17, ...

........................................................................
.............................. CYCLE   22 ..............................
........................................................................

 iter      E             dE          RMSdq      gap      omega  full diag
   1    -42.6171152 -0.426171E+02  0.529E-01    1.59       0.0  T
   2    -42.6174041 -0.288941E-03  0.303E-01    1.56       1.0  T
   3    -42.6168776  0.526510E-03  0.162E-01    1.54       1.0  T
   4    -42.6173529 -0.475296E-03  0.731E-02    1.55       1.0  T
   5    -42.6174857 -0.132826E-03  0.157E-02    1.55       1.3  T
   6    -42.6174893 -0.353056E-05  0.853E-03    1.55       2.3  T
   7    -42.6174897 -0.486532E-06  0.283E-03    1.54       7.1  T
   8    -42.6174900 -0.230300E-06  0.107E-03    1.55      18.7  T
   9    -42.6174900 -0.149027E-07  0.404E-04    1.55      49.5  T
  10    -42.6174900 -0.520302E-09  0.125E-04    1.55     159.6  T
     SCC iter.                  ...        0 min,  0.014 sec
     gradient                   ...        0 min,  0.013 sec
 * total energy  :   -72.4622514 Eh     change        0.2696788E+00 Eh
   gradient norm :     7.3367733 Eh/α   predicted    -0.3286934E-01 (-112.19%)
   displ. norm   :     0.1130006 α      lambda       -0.6597365E+00
   maximum displ.:     0.0672529 α      in ANC's #62, #59, #17, ...

........................................................................
.............................. CYCLE   23 ..............................
........................................................................

 iter      E             dE          RMSdq      gap      omega  full diag
   1    -42.6252052 -0.426252E+02  0.129E-01    1.60       0.0  T
   2    -42.6252112 -0.600803E-05  0.858E-02    1.54       1.0  T
   3    -42.6252260 -0.147916E-04  0.601E-02    1.58       1.0  T
   4    -42.6252806 -0.546583E-04  0.112E-02    1.57       1.8  T
   5    -42.6252818 -0.114660E-05  0.490E-03    1.56       4.1  T
   6    -42.6252817  0.977210E-07  0.350E-03    1.56       5.7  T
   7    -42.6252819 -0.215078E-06  0.162E-03    1.56      12.3  T
   8    -42.6252819 -0.532558E-07  0.319E-04    1.56      62.7  T
   9    -42.6252819 -0.376964E-09  0.113E-04    1.56     176.7  T
     SCC iter.                  ...        0 min,  0.012 sec
     gradient                   ...        0 min,  0.013 sec
 * total energy  :   -72.7675287 Eh     change       -0.3052773E+00 Eh
   gradient norm :     0.1596567 Eh/α   predicted    -0.3340804E+00 (   9.44%)
   displ. norm   :     0.6912836 α      lambda       -0.3238232E-01
   maximum displ.:     0.3434842 α      in ANC's #7, #17, #10, ...

........................................................................
.............................. CYCLE   24 ..............................
........................................................................

 iter      E             dE          RMSdq      gap      omega  full diag
   1    -42.6486661 -0.426487E+02  0.667E-01    1.89       0.0  T
   2    -42.6489819 -0.315781E-03  0.395E-01    1.93       1.0  T
   3    -42.6475943  0.138763E-02  0.265E-01    1.89       1.0  T
   4    -42.6491061 -0.151176E-02  0.619E-02    1.90       1.0  T
   5    -42.6491917 -0.856215E-04  0.179E-02    1.91       1.1  T
   6    -42.6491962 -0.453768E-05  0.904E-03    1.91       2.2  T
   7    -42.6491969 -0.660668E-06  0.257E-03    1.91       7.8  T
   8    -42.6491970 -0.156379E-06  0.967E-04    1.91      20.7  T
   9    -42.6491970 -0.125059E-07  0.372E-04    1.91      53.8  T
     SCC iter.                  ...        0 min,  0.012 sec
     gradient                   ...        0 min,  0.013 sec
 * total energy  :   -72.7925862 Eh     change       -0.2505744E-01 Eh
   gradient norm :     0.2766884 Eh/α   predicted    -0.2392898E-01 (  -4.50%)
   displ. norm   :     0.5593240 α      lambda       -0.2391770E-01
   maximum displ.:     0.2978000 α      in ANC's #7, #17, #10, ...

........................................................................
.............................. CYCLE   25 ..............................
........................................................................

 iter      E             dE          RMSdq      gap      omega  full diag
   1    -42.6704911 -0.426705E+02  0.565E-01    2.08       0.0  T
   2    -42.6707461 -0.254991E-03  0.333E-01    2.03       1.0  T
   3    -42.6703681  0.378003E-03  0.148E-01    2.07       1.0  T
   4    -42.6707598 -0.391659E-03  0.494E-02    2.03       1.0  T
   5    -42.6708139 -0.541859E-04  0.196E-02    2.05       1.0  T
   6    -42.6708207 -0.675865E-05  0.674E-03    2.04       3.0  T
   7    -42.6708210 -0.257692E-06  0.218E-03    2.04       9.2  T
   8    -42.6708210 -0.891571E-07  0.602E-04    2.04      33.2  T
   9    -42.6708211 -0.212847E-08  0.276E-04    2.04      72.5  T
     SCC iter.                  ...        0 min,  0.012 sec
     gradient                   ...        0 min,  0.013 sec
 * total energy  :   -72.8074823 Eh     change       -0.1489609E-01 Eh
   gradient norm :     0.8063245 Eh/α   predicted    -0.1570021E-01 (   5.40%)
   displ. norm   :     0.4153432 α      lambda       -0.1639636E-01
   maximum displ.:     0.2295632 α      in ANC's #7, #2, #17, ...

........................................................................
.............................. CYCLE   26 ..............................
........................................................................

 iter      E             dE          RMSdq      gap      omega  full diag
   1    -42.6728761 -0.426729E+02  0.402E-01    2.10       0.0  T
   2    -42.6730858 -0.209763E-03  0.227E-01    2.04       1.0  T
   3    -42.6729400  0.145858E-03  0.975E-02    2.08       1.0  T
   4    -42.6730486 -0.108662E-03  0.496E-02    2.03       1.0  T
   5    -42.6731114 -0.627223E-04  0.948E-03    2.05       2.1  T
   6    -42.6731123 -0.959025E-06  0.500E-03    2.05       4.0  T
   7    -42.6731125 -0.221577E-06  0.130E-03    2.05      15.4  T
   8    -42.6731126 -0.186067E-07  0.369E-04    2.05      54.2  T
   9    -42.6731126 -0.128087E-08  0.178E-04    2.05     112.2  T
     SCC iter.                  ...        0 min,  0.012 sec
     gradient                   ...        0 min,  0.013 sec
 * total energy  :   -72.8196223 Eh     change       -0.1214002E-01 Eh
   gradient norm :     0.3724153 Eh/α   predicted    -0.9612503E-02 ( -20.82%)
   displ. norm   :     0.4500895 α      lambda       -0.1796997E-01
   maximum displ.:     0.2679932 α      in ANC's #17, #38, #42, ...

........................................................................
.............................. CYCLE   27 ..............................
........................................................................

 iter      E             dE          RMSdq      gap      omega  full diag
   1    -42.7014549 -0.427015E+02  0.444E-01    2.05       0.0  T
   2    -42.7014933 -0.384558E-04  0.250E-01    2.06       1.0  T
   3    -42.7007083  0.784991E-03  0.227E-01    1.97       1.0  T
   4    -42.7016450 -0.936650E-03  0.257E-02    2.04       1.0  T
   5    -42.7016609 -0.159365E-04  0.119E-02    2.03       1.7  T
   6    -42.7016621 -0.115214E-05  0.601E-03    2.03       3.3  T
   7    -42.7016624 -0.291255E-06  0.159E-03    2.03      12.6  T
   8    -42.7016624 -0.356645E-07  0.462E-04    2.03      43.3  T
   9    -42.7016624 -0.456552E-09  0.232E-04    2.03      86.2  T
     SCC iter.                  ...        0 min,  0.012 sec
     gradient                   ...        0 min,  0.013 sec
 * total energy  :   -72.8288232 Eh     change       -0.9200935E-02 Eh
   gradient norm :     0.1237455 Eh/α   predicted    -0.1080518E-01 (  17.44%)
   displ. norm   :     0.6022182 α      lambda       -0.1904069E-01
   maximum displ.:     0.3494548 α      in ANC's #7, #17, #38, ...

........................................................................
.............................. CYCLE   28 ..............................
........................................................................

 iter      E             dE          RMSdq      gap      omega  full diag
   1    -42.7163795 -0.427164E+02  0.628E-01    2.17       0.0  T
   2    -42.7164239 -0.444440E-04  0.362E-01    2.09       1.0  T
   3    -42.7150259  0.139807E-02  0.274E-01    2.19       1.0  T
   4    -42.7166200 -0.159414E-02  0.235E-02    2.12       1.0  T
   5    -42.7166254 -0.533189E-05  0.120E-02    2.12       1.7  T
   6    -42.7166267 -0.131324E-05  0.505E-03    2.11       4.0  T
   7    -42.7166268 -0.166100E-06  0.920E-04    2.11      21.7  T
   8    -42.7166268 -0.542580E-08  0.482E-04    2.11      41.5  T
     SCC iter.                  ...        0 min,  0.011 sec
     gradient                   ...        0 min,  0.013 sec
 * total energy  :   -72.8365798 Eh     change       -0.7756594E-02 Eh
   gradient norm :     0.4702401 Eh/α   predicted    -0.1297307E-01 (  67.25%)
   displ. norm   :     0.3672112 α      lambda       -0.1325340E-01
   maximum displ.:     0.2384925 α      in ANC's #17, #7, #18, ...

........................................................................
.............................. CYCLE   29 ..............................
........................................................................

 iter      E             dE          RMSdq      gap      omega  full diag
   1    -42.6988626 -0.426989E+02  0.384E-01    2.11       0.0  T
   2    -42.6989359 -0.732653E-04  0.238E-01    2.12       1.0  T
   3    -42.6986769  0.258984E-03  0.174E-01    2.15       1.0  T
   4    -42.6991188 -0.441884E-03  0.314E-02    2.12       1.0  T
   5    -42.6991422 -0.234705E-04  0.182E-02    2.13       1.1  T
   6    -42.6991463 -0.410476E-05  0.640E-03    2.13       3.1  T
   7    -42.6991465 -0.160671E-06  0.121E-03    2.13      16.5  T
   8    -42.6991465 -0.135736E-07  0.438E-04    2.13      45.7  T
   9    -42.6991465 -0.419597E-09  0.128E-04    2.13     156.1  T
     SCC iter.                  ...        0 min,  0.012 sec
     gradient                   ...        0 min,  0.013 sec
 * total energy  :   -72.8414240 Eh     change       -0.4844203E-02 Eh
   gradient norm :     0.0954750 Eh/α   predicted    -0.7520289E-02 (  55.24%)
   displ. norm   :     0.3123287 α      lambda       -0.8763682E-02
   maximum displ.:     0.1758957 α      in ANC's #7, #2, #11, ...

........................................................................
.............................. CYCLE   30 ..............................
........................................................................

 iter      E             dE          RMSdq      gap      omega  full diag
   1    -42.7194662 -0.427195E+02  0.265E-01    2.08       0.0  T
   2    -42.7196034 -0.137169E-03  0.159E-01    2.15       1.0  T
   3    -42.7195517  0.516460E-04  0.113E-01    2.11       1.0  T
   4    -42.7196971 -0.145414E-03  0.218E-02    2.14       1.0  T
   5    -42.7197033 -0.617222E-05  0.159E-02    2.13       1.3  T
   6    -42.7197076 -0.430452E-05  0.395E-03    2.13       5.1  T
   7    -42.7197076  0.563993E-08  0.175E-03    2.13      11.4  T
   8    -42.7197076 -0.241497E-07  0.475E-04    2.13      42.1  T
   9    -42.7197076 -0.313018E-08  0.194E-04    2.13     103.3  T
     SCC iter.                  ...        0 min,  0.012 sec
     gradient                   ...        0 min,  0.013 sec
 * total energy  :   -72.8460767 Eh     change       -0.4652711E-02 Eh
   gradient norm :     0.0643751 Eh/α   predicted    -0.4809289E-02 (   3.37%)
   displ. norm   :     0.4161459 α      lambda       -0.6497877E-02
   maximum displ.:     0.2082169 α      in ANC's #1, #38, #7, ...

........................................................................
.............................. CYCLE   31 ..............................
........................................................................

 iter      E             dE          RMSdq      gap      omega  full diag
   1    -42.7316857 -0.427317E+02  0.383E-01    2.14       0.0  T
   2    -42.7317314 -0.457506E-04  0.228E-01    2.14       1.0  T
   3    -42.7313183  0.413081E-03  0.174E-01    2.19       1.0  T
   4    -42.7318622 -0.543891E-03  0.188E-02    2.15       1.1  T
   5    -42.7318696 -0.737240E-05  0.981E-03    2.16       2.0  T
   6    -42.7318711 -0.149662E-05  0.391E-03    2.16       5.1  T
   7    -42.7318712 -0.984217E-07  0.930E-04    2.16      21.5  T
   8    -42.7318712 -0.366475E-08  0.265E-04    2.16      75.4  T
     SCC iter.                  ...        0 min,  0.011 sec
     gradient                   ...        0 min,  0.013 sec
 * total energy  :   -72.8475315 Eh     change       -0.1454834E-02 Eh
   gradient norm :     0.4090317 Eh/α   predicted    -0.3811579E-02 ( 161.99%)
   displ. norm   :     0.2681862 α      lambda       -0.6029417E-02
   maximum displ.:     0.1388654 α      in ANC's #17, #2, #18, ...

........................................................................
.............................. CYCLE   32 ..............................
........................................................................

 iter      E             dE          RMSdq      gap      omega  full diag
   1    -42.7250304 -0.427250E+02  0.246E-01    2.19       0.0  T
   2    -42.7250585 -0.281685E-04  0.148E-01    2.15       1.0  T
   3    -42.7248634  0.195157E-03  0.102E-01    2.18       1.0  T
   4    -42.7250977 -0.234324E-03  0.123E-02    2.15       1.6  T
   5    -42.7250987 -0.973328E-06  0.545E-03    2.15       3.7  T
   6    -42.7250990 -0.355415E-06  0.357E-03    2.15       5.6  T
   7    -42.7250991 -0.104503E-06  0.405E-04    2.15      49.3  T
   8    -42.7250991 -0.104740E-08  0.203E-04    2.15      98.7  T
     SCC iter.                  ...        0 min,  0.011 sec
     gradient                   ...        0 min,  0.013 sec
 * total energy  :   -72.8502796 Eh     change       -0.2748063E-02 Eh
   gradient norm :     0.1446424 Eh/α   predicted    -0.3231553E-02 (  17.59%)
   displ. norm   :     0.1718498 α      lambda       -0.2475700E-02
   maximum displ.:     0.0980219 α      in ANC's #1, #10, #11, ...

........................................................................
.............................. CYCLE   33 ..............................
........................................................................

 iter      E             dE          RMSdq      gap      omega  full diag
   1    -42.7294457 -0.427294E+02  0.855E-02    2.12       0.0  T
   2    -42.7294572 -0.115204E-04  0.513E-02    2.14       1.0  T
   3    -42.7294396  0.175595E-04  0.375E-02    2.13       1.0  T
   4    -42.7294640 -0.244147E-04  0.755E-03    2.14       2.6  T
   5    -42.7294648 -0.716881E-06  0.286E-03    2.14       7.0  T
   6    -42.7294649 -0.129570E-06  0.123E-03    2.14      16.3  T
   7    -42.7294649 -0.828747E-08  0.369E-04    2.14      54.2  T
   8    -42.7294649 -0.495547E-09  0.161E-04    2.14     124.4  T
     SCC iter.                  ...        0 min,  0.011 sec
     gradient                   ...        0 min,  0.013 sec
 * total energy  :   -72.8504883 Eh     change       -0.2086575E-03 Eh
   gradient norm :     0.2807011 Eh/α   predicted    -0.1274413E-02 ( 510.77%)
   displ. norm   :     0.3375336 α      lambda       -0.3931826E-02
   maximum displ.:     0.1891841 α      in ANC's #17, #2, #10, ...

........................................................................
.............................. CYCLE   34 ..............................
........................................................................

 iter      E             dE          RMSdq      gap      omega  full diag
   1    -42.7161492 -0.427161E+02  0.302E-01    2.07       0.0  T
   2    -42.7162228 -0.735691E-04  0.174E-01    2.05       1.0  T
   3    -42.7161480  0.747535E-04  0.701E-02    2.04       1.0  T
   4    -42.7162415 -0.934561E-04  0.138E-02    2.04       1.5  T
   5    -42.7162442 -0.270638E-05  0.674E-03    2.04       3.0  T
   6    -42.7162446 -0.383782E-06  0.363E-03    2.04       5.5  T
   7    -42.7162447 -0.102099E-06  0.148E-03    2.04      13.5  T
   8    -42.7162447 -0.303940E-07  0.532E-04    2.04      37.6  T
   9    -42.7162447 -0.504467E-08  0.115E-04    2.04     174.6  T
     SCC iter.                  ...        0 min,  0.012 sec
     gradient                   ...        0 min,  0.013 sec
 * total energy  :   -72.8499671 Eh     change        0.5211644E-03 Eh
   gradient norm :     0.1370278 Eh/α   predicted    -0.2189901E-02 (-520.19%)
   displ. norm   :     0.1325735 α      lambda       -0.4831761E-02
   maximum displ.:     0.0771656 α      in ANC's #17, #1, #10, ...

........................................................................
.............................. CYCLE   35 ..............................
........................................................................

 iter      E             dE          RMSdq      gap      omega  full diag
   1    -42.7274561 -0.427275E+02  0.127E-01    2.11       0.0  T
   2    -42.7274716 -0.154141E-04  0.773E-02    2.10       1.0  T
   3    -42.7274323  0.392773E-04  0.606E-02    2.13       1.0  T
   4    -42.7274931 -0.608154E-04  0.886E-03    2.11       2.3  T
   5    -42.7274940 -0.918687E-06  0.470E-03    2.11       4.3  T
   6    -42.7274944 -0.366165E-06  0.177E-03    2.11      11.3  T
   7    -42.7274944 -0.624051E-08  0.480E-04    2.11      41.6  T
   8    -42.7274944 -0.370407E-08  0.198E-04    2.11     101.2  T
     SCC iter.                  ...        0 min,  0.011 sec
     gradient                   ...        0 min,  0.013 sec
 * total energy  :   -72.8521206 Eh     change       -0.2153538E-02 Eh
   gradient norm :     0.1160320 Eh/α   predicted    -0.2458350E-02 (  14.15%)
   displ. norm   :     0.0877129 α      lambda       -0.6251700E-03
   maximum displ.:     0.0486657 α      in ANC's #1, #10, #18, ...

........................................................................
.............................. CYCLE   36 ..............................
........................................................................

 iter      E             dE          RMSdq      gap      omega  full diag
   1    -42.7296483 -0.427296E+02  0.535E-02    2.10       0.0  T
   2    -42.7296487 -0.437273E-06  0.304E-02    2.10       1.0  T
   3    -42.7296386  0.101464E-04  0.247E-02    2.09       1.0  T
   4    -42.7296508 -0.122405E-04  0.178E-03    2.10      11.3  T
   5    -42.7296508 -0.212131E-07  0.101E-03    2.10      19.8  T
   6    -42.7296508 -0.820992E-08  0.484E-04    2.10      41.3  T
   7    -42.7296508 -0.146227E-08  0.139E-04    2.10     143.5  T
     SCC iter.                  ...        0 min,  0.010 sec
     gradient                   ...        0 min,  0.013 sec
 * total energy  :   -72.8524682 Eh     change       -0.3475460E-03 Eh
   gradient norm :     0.0251383 Eh/α   predicted    -0.3149952E-03 (  -9.37%)
   displ. norm   :     0.1845152 α      lambda       -0.4326437E-03
   maximum displ.:     0.0675461 α      in ANC's #1, #2, #38, ...

........................................................................
.............................. CYCLE   37 ..............................
........................................................................

 iter      E             dE          RMSdq      gap      omega  full diag
   1    -42.7283003 -0.427283E+02  0.148E-01    2.09       0.0  T
   2    -42.7283079 -0.761859E-05  0.861E-02    2.08       1.0  T
   3    -42.7282834  0.244628E-04  0.333E-02    2.09       1.0  T
   4    -42.7283111 -0.276699E-04  0.614E-03    2.08       3.3  T
   5    -42.7283116 -0.466522E-06  0.280E-03    2.08       7.1  T
   6    -42.7283117 -0.105285E-06  0.140E-03    2.08      14.3  T
   7    -42.7283117 -0.166582E-07  0.291E-04    2.08      68.7  T
   8    -42.7283117 -0.597474E-09  0.710E-05    2.08     281.9  T
     SCC iter.                  ...        0 min,  0.011 sec
     gradient                   ...        0 min,  0.013 sec
 * total energy  :   -72.8527531 Eh     change       -0.2848869E-03 Eh
   gradient norm :     0.0483703 Eh/α   predicted    -0.2236878E-03 ( -21.48%)
   displ. norm   :     0.2930925 α      lambda       -0.6058737E-03
   maximum displ.:     0.1563644 α      in ANC's #1, #38, #17, ...

........................................................................
.............................. CYCLE   38 ..............................
........................................................................

 iter      E             dE          RMSdq      gap      omega  full diag
   1    -42.7294228 -0.427294E+02  0.240E-01    2.06       0.0  T
   2    -42.7294312 -0.830481E-05  0.139E-01    2.04       1.0  T
   3    -42.7293711  0.600526E-04  0.538E-02    2.07       1.0  T
   4    -42.7294394 -0.683426E-04  0.738E-03    2.05       2.7  T
   5    -42.7294400 -0.600491E-06  0.379E-03    2.05       5.3  T
   6    -42.7294402 -0.119345E-06  0.162E-03    2.05      12.3  T
   7    -42.7294402 -0.351083E-07  0.270E-04    2.05      74.1  T
   8    -42.7294402 -0.613412E-09  0.114E-04    2.05     175.5  T
     SCC iter.                  ...        0 min,  0.011 sec
     gradient                   ...        0 min,  0.013 sec
 * total energy  :   -72.8529320 Eh     change       -0.1789444E-03 Eh
   gradient norm :     0.0936637 Eh/α   predicted    -0.3289555E-03 (  83.83%)
   displ. norm   :     0.0423945 α      lambda       -0.3747527E-03
   maximum displ.:     0.0270790 α      in ANC's #17, #18, #5, ...

........................................................................
.............................. CYCLE   39 ..............................
........................................................................

 iter      E             dE          RMSdq      gap      omega  full diag
   1    -42.7315849 -0.427316E+02  0.409E-02    2.05       0.0  T
   2    -42.7315860 -0.108695E-05  0.242E-02    2.05       1.0  T
   3    -42.7315834  0.261983E-05  0.118E-02    2.05       1.7  T
   4    -42.7315862 -0.281604E-05  0.310E-03    2.05       6.5  T
   5    -42.7315864 -0.218186E-06  0.935E-04    2.05      21.4  T
   6    -42.7315864 -0.801131E-08  0.349E-04    2.05      57.3  T
     SCC iter.                  ...        0 min,  0.009 sec
     gradient                   ...        0 min,  0.013 sec
 * total energy  :   -72.8531729 Eh     change       -0.2409169E-03 Eh
   gradient norm :     0.0193195 Eh/α   predicted    -0.1877192E-03 ( -22.08%)
   displ. norm   :     0.0799396 α      lambda       -0.2052780E-03
   maximum displ.:     0.0505213 α      in ANC's #1, #4, #2, ...

........................................................................
.............................. CYCLE   40 ..............................
........................................................................

 iter      E             dE          RMSdq      gap      omega  full diag
   1    -42.7314894 -0.427315E+02  0.553E-02    2.05       0.0  T
   2    -42.7314900 -0.612957E-06  0.328E-02    2.04       1.0  T
   3    -42.7314808  0.924080E-05  0.215E-02    2.05       1.0  T
   4    -42.7314915 -0.107338E-04  0.228E-03    2.04       8.8  T
   5    -42.7314916 -0.788588E-07  0.110E-03    2.04      18.2  T
   6    -42.7314916 -0.148099E-07  0.407E-04    2.04      49.1  T
   7    -42.7314916 -0.513545E-09  0.134E-04    2.04     149.6  T
     SCC iter.                  ...        0 min,  0.010 sec
     gradient                   ...        0 min,  0.013 sec
 * total energy  :   -72.8533344 Eh     change       -0.1614444E-03 Eh
   gradient norm :     0.0240545 Eh/α   predicted    -0.1033013E-03 ( -36.01%)
   displ. norm   :     0.1555621 α      lambda       -0.3699167E-03
   maximum displ.:     0.0896451 α      in ANC's #1, #6, #2, ...

........................................................................
.............................. CYCLE   41 ..............................
........................................................................

 iter      E             dE          RMSdq      gap      omega  full diag
   1    -42.7326477 -0.427326E+02  0.999E-02    2.04       0.0  T
   2    -42.7326504 -0.274287E-05  0.598E-02    2.03       1.0  T
   3    -42.7326237  0.267188E-04  0.362E-02    2.05       1.0  T
   4    -42.7326547 -0.310080E-04  0.469E-03    2.03       4.3  T
   5    -42.7326550 -0.318465E-06  0.194E-03    2.03      10.3  T
   6    -42.7326550 -0.420367E-07  0.997E-04    2.03      20.1  T
   7    -42.7326551 -0.678034E-08  0.191E-04    2.03     104.8  T
     SCC iter.                  ...        0 min,  0.010 sec
     gradient                   ...        0 min,  0.013 sec
 * total energy  :   -72.8535769 Eh     change       -0.2425202E-03 Eh
   gradient norm :     0.0158656 Eh/α   predicted    -0.1894610E-03 ( -21.88%)
   displ. norm   :     0.1002421 α      lambda       -0.2022167E-03
   maximum displ.:     0.0551574 α      in ANC's #1, #2, #6, ...

........................................................................
.............................. CYCLE   42 ..............................
........................................................................

 iter      E             dE          RMSdq      gap      omega  full diag
   1    -42.7303711 -0.427304E+02  0.592E-02    2.02       0.0  T
   2    -42.7303730 -0.190007E-05  0.352E-02    2.02       1.0  T
   3    -42.7303638  0.925213E-05  0.234E-02    2.03       1.0  T
   4    -42.7303748 -0.110541E-04  0.375E-03    2.02       5.3  T
   5    -42.7303751 -0.322220E-06  0.109E-03    2.02      18.3  T
   6    -42.7303752 -0.413116E-08  0.505E-04    2.02      39.6  T
   7    -42.7303752 -0.204399E-08  0.133E-04    2.02     150.9  T
     SCC iter.                  ...        0 min,  0.010 sec
     gradient                   ...        0 min,  0.013 sec
 * total energy  :   -72.8536858 Eh     change       -0.1089106E-03 Eh
   gradient norm :     0.0313870 Eh/α   predicted    -0.1021306E-03 (  -6.23%)
   displ. norm   :     0.0536322 α      lambda       -0.1392067E-03
   maximum displ.:     0.0273392 α      in ANC's #5, #1, #38, ...
 * RMSD in coord.:     0.9266809 α      energy gain  -0.1414746E+00 Eh

generating ANC from model Hessian ...
Using Lindh-Hessian (1995)
 Shifting diagonal of input Hessian by    7.2087012291762176E-003
 Lowest  eigenvalues of input Hessian
    0.000000    0.000000    0.000000    0.000000    0.000000    0.000000
    0.010000    0.010761    0.012478    0.013514    0.015630    0.017333
    0.018026    0.019903    0.021301    0.022124    0.023046    0.031767
 Highest eigenvalues
    2.207729    2.374724    2.553189    2.668279   21.270650   27.909314


........................................................................
.............................. CYCLE   43 ..............................
........................................................................

 iter      E             dE          RMSdq      gap      omega  full diag
   1    -42.7309176 -0.427309E+02  0.511E-02    2.04       0.0  T
   2    -42.7309194 -0.176837E-05  0.297E-02    2.04       1.0  T
   3    -42.7309149  0.452452E-05  0.147E-02    2.05       1.4  T
   4    -42.7309199 -0.501538E-05  0.322E-03    2.04       6.2  T
   5    -42.7309201 -0.181525E-06  0.794E-04    2.04      25.2  T
   6    -42.7309201 -0.178954E-08  0.389E-04    2.04      51.4  T
     SCC iter.                  ...        0 min,  0.009 sec
     gradient                   ...        0 min,  0.013 sec
 * total energy  :   -72.8537562 Eh     change       -0.7039633E-04 Eh
   gradient norm :     0.0109647 Eh/α   predicted     0.0000000E+00 (-100.00%)
   displ. norm   :     0.0966784 α      lambda       -0.3471186E-03
   maximum displ.:     0.0396144 α      in ANC's #2, #11, #6, ...

........................................................................
.............................. CYCLE   44 ..............................
........................................................................

 iter      E             dE          RMSdq      gap      omega  full diag
   1    -42.7309333 -0.427309E+02  0.993E-02    2.04       0.0  T
   2    -42.7309347 -0.144427E-05  0.578E-02    2.04       1.0  T
   3    -42.7309335  0.126862E-05  0.993E-03    2.04       2.0  T
   4    -42.7309354 -0.191152E-05  0.298E-03    2.04       6.7  T
   5    -42.7309354  0.236604E-07  0.168E-03    2.04      11.9  T
   6    -42.7309354 -0.596507E-07  0.391E-04    2.04      51.2  T
   7    -42.7309354 -0.200872E-08  0.148E-04    2.04     135.0  T
     SCC iter.                  ...        0 min,  0.010 sec
     gradient                   ...        0 min,  0.013 sec
 * total energy  :   -72.8537305 Eh     change        0.2567415E-04 Eh
   gradient norm :     0.1082764 Eh/α   predicted    -0.1751977E-03 (-782.39%)
   displ. norm   :     0.2973888 α      lambda       -0.1462531E-02
   maximum displ.:     0.1246795 α      in ANC's #2, #11, #6, ...

........................................................................
.............................. CYCLE   45 ..............................
........................................................................

 iter      E             dE          RMSdq      gap      omega  full diag
   1    -42.7250112 -0.427250E+02  0.300E-01    2.01       0.0  T
   2    -42.7250252 -0.139244E-04  0.174E-01    2.01       1.0  T
   3    -42.7250226  0.255154E-05  0.221E-02    2.01       1.0  T
   4    -42.7250302 -0.761729E-05  0.944E-03    2.01       2.1  T
   5    -42.7250304 -0.206451E-06  0.479E-03    2.01       4.2  T
   6    -42.7250308 -0.415637E-06  0.133E-03    2.01      15.0  T
   7    -42.7250309 -0.261222E-07  0.506E-04    2.01      39.5  T
   8    -42.7250309 -0.316746E-09  0.221E-04    2.01      90.4  T
     SCC iter.                  ...        0 min,  0.011 sec
     gradient                   ...        0 min,  0.013 sec
 * total energy  :   -72.8421722 Eh     change        0.1155828E-01 Eh
   gradient norm :     0.9808058 Eh/α   predicted    -0.7959528E-03 (-106.89%)
   displ. norm   :     0.1974870 α      lambda       -0.2189441E-01
   maximum displ.:     0.0882442 α      in ANC's #24, #11, #9, ...

........................................................................
.............................. CYCLE   46 ..............................
........................................................................

 iter      E             dE          RMSdq      gap      omega  full diag
   1    -42.7315339 -0.427315E+02  0.232E-01    2.03       0.0  T
   2    -42.7315419 -0.806239E-05  0.135E-01    2.03       1.0  T
   3    -42.7315309  0.110806E-04  0.262E-02    2.03       1.0  T
   4    -42.7315462 -0.153207E-04  0.703E-03    2.03       2.8  T
   5    -42.7315460  0.155829E-06  0.461E-03    2.03       4.3  T
   6    -42.7315464 -0.410277E-06  0.826E-04    2.03      24.2  T
   7    -42.7315464 -0.728087E-08  0.345E-04    2.03      58.0  T
     SCC iter.                  ...        0 min,  0.010 sec
     gradient                   ...        0 min,  0.013 sec
 * total energy  :   -72.8537808 Eh     change       -0.1160856E-01 Eh
   gradient norm :     0.0141354 Eh/α   predicted    -0.1137403E-01 (  -2.02%)
   displ. norm   :     0.0890430 α      lambda       -0.3100501E-03
   maximum displ.:     0.0347437 α      in ANC's #11, #4, #9, ...

........................................................................
.............................. CYCLE   47 ..............................
........................................................................

 iter      E             dE          RMSdq      gap      omega  full diag
   1    -42.7322831 -0.427323E+02  0.824E-02    2.04       0.0  T
   2    -42.7322844 -0.129376E-05  0.479E-02    2.04       1.0  T
   3    -42.7322823  0.213593E-05  0.112E-02    2.04       1.8  T
   4    -42.7322850 -0.271503E-05  0.307E-03    2.04       6.5  T
   5    -42.7322850 -0.408161E-08  0.176E-03    2.04      11.4  T
   6    -42.7322851 -0.601835E-07  0.357E-04    2.04      56.0  T
   7    -42.7322851 -0.213792E-08  0.133E-04    2.04     150.5  T
     SCC iter.                  ...        0 min,  0.010 sec
     gradient                   ...        0 min,  0.013 sec
 * total energy  :   -72.8539257 Eh     change       -0.1448642E-03 Eh
   gradient norm :     0.0144299 Eh/α   predicted    -0.1563545E-03 (   7.93%)
   displ. norm   :     0.0163537 α      lambda       -0.2103366E-04
   maximum displ.:     0.0084487 α      in ANC's #5, #4, #1, ...

........................................................................
.............................. CYCLE   48 ..............................
........................................................................

 iter      E             dE          RMSdq      gap      omega  full diag
   1    -42.7321927 -0.427322E+02  0.103E-02    2.04       0.0  T
   2    -42.7321927 -0.229933E-07  0.643E-03    2.04       3.1  T
   3    -42.7321923  0.420668E-06  0.444E-03    2.04       4.5  T
   4    -42.7321928 -0.505977E-06  0.464E-04    2.04      43.1  T
   5    -42.7321928 -0.139842E-08  0.209E-04    2.04      95.9  T
     SCC iter.                  ...        0 min,  0.007 sec
     gradient                   ...        0 min,  0.013 sec
 * total energy  :   -72.8539421 Eh     change       -0.1640352E-04 Eh
   gradient norm :     0.0059203 Eh/α   predicted    -0.1053007E-04 ( -35.81%)
   displ. norm   :     0.0468897 α      lambda       -0.3398761E-04
   maximum displ.:     0.0250167 α      in ANC's #1, #5, #4, ...

........................................................................
.............................. CYCLE   49 ..............................
........................................................................

 iter      E             dE          RMSdq      gap      omega  full diag
   1    -42.7321327 -0.427321E+02  0.302E-02    2.04       0.0  T
   2    -42.7321329 -0.152728E-06  0.185E-02    2.04       1.1  T
   3    -42.7321296  0.326045E-05  0.120E-02    2.05       1.7  T
   4    -42.7321334 -0.375753E-05  0.121E-03    2.04      16.6  T
   5    -42.7321334 -0.102661E-07  0.550E-04    2.04      36.3  T
   6    -42.7321334 -0.200800E-08  0.231E-04    2.04      86.7  T
     SCC iter.                  ...        0 min,  0.008 sec
     gradient                   ...        0 min,  0.013 sec
 * total energy  :   -72.8539666 Eh     change       -0.2449319E-04 Eh
   gradient norm :     0.0115154 Eh/α   predicted    -0.1703923E-04 ( -30.43%)
   displ. norm   :     0.0626839 α      lambda       -0.3175189E-04
   maximum displ.:     0.0375119 α      in ANC's #1, #5, #4, ...

........................................................................
.............................. CYCLE   50 ..............................
........................................................................

 iter      E             dE          RMSdq      gap      omega  full diag
   1    -42.7321742 -0.427322E+02  0.408E-02    2.04       0.0  T
   2    -42.7321744 -0.201118E-06  0.247E-02    2.04       1.0  T
   3    -42.7321692  0.519766E-05  0.149E-02    2.05       1.3  T
   4    -42.7321751 -0.585765E-05  0.129E-03    2.04      15.5  T
   5    -42.7321751 -0.136644E-07  0.580E-04    2.04      34.5  T
   6    -42.7321751 -0.148811E-08  0.289E-04    2.04      69.2  T
     SCC iter.                  ...        0 min,  0.008 sec
     gradient                   ...        0 min,  0.013 sec
 * total energy  :   -72.8539916 Eh     change       -0.2503138E-04 Eh
   gradient norm :     0.0102449 Eh/α   predicted    -0.1595624E-04 ( -36.26%)
   displ. norm   :     0.1252985 α      lambda       -0.5823909E-04
   maximum displ.:     0.0776388 α      in ANC's #1, #5, #4, ...

........................................................................
.............................. CYCLE   51 ..............................
........................................................................

 iter      E             dE          RMSdq      gap      omega  full diag
   1    -42.7321787 -0.427322E+02  0.827E-02    2.04       0.0  T
   2    -42.7321792 -0.550358E-06  0.498E-02    2.03       1.0  T
   3    -42.7321579  0.213709E-04  0.303E-02    2.05       1.0  T
   4    -42.7321819 -0.240799E-04  0.217E-03    2.04       9.2  T
   5    -42.7321820 -0.278970E-07  0.111E-03    2.04      18.1  T
   6    -42.7321820 -0.564966E-08  0.578E-04    2.04      34.6  T
   7    -42.7321820 -0.354648E-08  0.101E-04    2.04     198.0  T
[...]
H            2.98941644710207       -1.80536800264345       -0.31287630509920
H           -1.31482089467359        3.01184011031652        0.05208035526419
H           -2.61445194139705        2.18944538899474       -0.85840088079549
H           -2.66104349306575        2.19507945787333        0.90321094884943
H           -1.71208134838499       -3.19773465232763        1.20256138018346
H           -1.70815926350432       -3.33844441545428       -0.57030611547960
H           -3.02547388874785       -2.47429784286296        0.25220046196610
H            0.59373287623465       -2.44996944682361        0.11865665063253

 Bond Distances (Angstroems)
 ---------------------------
C1-N2=1.4589         C1-O8=1.4252         C1-H15=1.0982        C1-H17=1.0995        N2-C1=1.4589         N2-C3=1.3829         
N2-C6=1.3831         C3-N2=1.3829         C3-N4=1.2447         C3-H18=1.0955        N4-C3=1.2447         N4-H16=0.4033        
C5-C6=1.3672         C5-N13=1.3596        C5-H25=1.0776        C6-N2=1.3831         C6-C5=1.3672         C6-C7=1.4126         
C7-C6=1.4126         C7-O8=1.3196         C7-N9=1.3209         O8-C1=1.4252         O8-C7=1.3196         N9-C7=1.3209         
N9-C10=1.4503        N9-C11=1.4237        C10-N9=1.4503        C10-H19=1.0859       C10-H20=1.0905       C10-H21=1.0901       
C11-N9=1.4237        C11-O12=1.1959       C11-N13=1.3839       O12-C11=1.1959       N13-C5=1.3596        N13-C11=1.3839       
N13-C14=1.4529       C14-N13=1.4529       C14-H22=1.0898       C14-H23=1.0894       C14-H24=1.0884       H15-C1=1.0982        
H16-N4=0.4033        H17-C1=1.0995        H18-C3=1.0955        H19-C10=1.0859       H20-C10=1.0905       H21-C10=1.0901       
H22-C14=1.0898       H23-C14=1.0894       H24-C14=1.0884       H25-C5=1.0776        
 C  H  Rav=1.0905 sigma=0.0060  Rmin=1.0776  Rmax=1.0995    10
 C  C  Rav=1.3899 sigma=0.0227  Rmin=1.3672  Rmax=1.4126     2
 N  H  Rav=0.4033 sigma=0.0000  Rmin=0.4033  Rmax=0.4033     1
 N  C  Rav=1.3861 sigma=0.0634  Rmin=1.2447  Rmax=1.4589    10
 O  C  Rav=1.3136 sigma=0.0937  Rmin=1.1959  Rmax=1.4252     3

 selected bond angles (degree)
 --------------------
O8-C1-N2=106.08                H15-C1-N2=111.43               H15-C1-O8=109.61               H17-C1-N2=111.51               
H17-C1-O8=108.94               H17-C1-H15=109.20              C3-N2-C1=122.38                C6-N2-C1=107.49                
C6-N2-C3=129.51                N4-C3-N2=122.67                H18-C3-N2=111.18               H18-C3-N4=126.14               
H16-N4-C3=171.18               N13-C5-C6=118.83               H25-C5-C6=124.01               H25-C5-N13=117.17              
C5-C6-N2=135.30                C7-C6-N2=106.24                C7-C6-C5=118.46                O8-C7-C6=112.39                
N9-C7-C6=122.22                N9-C7-O8=125.38                C7-O8-C1=107.72                C10-N9-C7=122.88               
C11-N9-C7=120.59               C11-N9-C10=116.53              H19-C10-N9=109.28              H20-C10-N9=109.36              
H20-C10-H19=110.41             H21-C10-N9=109.24              H21-C10-H19=110.69             H21-C10-H20=107.83             

 selected dihedral angles (degree)
 ---------------------------------
C3-N2-C1-O8=169.11            C3-N2-C1-H15= 49.88           C3-N2-C1-H17=287.58           C6-N2-C1-O8=357.29            
C6-N2-C1-H15=238.07           C6-N2-C1-H17=115.76           N4-C3-N2-C1=  3.63            N4-C3-N2-C6=173.50            
H18-C3-N2-C1=183.14           H18-C3-N2-C6=353.01           H16-N4-C3-N2=186.75           H16-N4-C3-H18=  7.31          
C5-C6-N2-C1=181.66            C5-C6-N2-C3= 10.62            C7-C6-N2-C1=  2.06            C7-C6-N2-C3=191.02            
N2-C6-C5-N13=180.66           N2-C6-C5-H25=  0.71           C7-C6-C5-N13=  0.21           C7-C6-C5-H25=180.27           
O8-C7-C6-N2=359.35            O8-C7-C6-C5=179.68            N9-C7-C6-N2=178.81            N9-C7-C6-C5=359.13            
C7-O8-C1-N2=  2.31            C7-O8-C1-H15=122.72           C7-O8-C1-H17=242.16           C1-O8-C7-C6=358.90            
C1-O8-C7-N9=179.47            C10-N9-C7-C6=180.94           C10-N9-C7-O8=  0.31           C11-N9-C7-C6=  1.00           
C11-N9-C7-O8=180.37           H19-C10-N9-C7=355.46          H19-C10-N9-C11=175.40         H20-C10-N9-C7=116.43          
H20-C10-N9-C11=296.37         H21-C10-N9-C7=234.23          H21-C10-N9-C11= 54.17         
           -------------------------------------------------
          |                Final Singlepoint                |
           -------------------------------------------------

          ...................................................
          :                      SETUP                      :
          :.................................................:
          :  # basis functions                  67          :
          :  # atomic orbitals                  67          :
          :  # shells                           39          :
          :  # electrons                        74          :
          :  max. iterations                   250          :
          :  Hamiltonian                  GFN2-xTB          :
          :  restarted?                      false          :
          :  GBSA solvation                  false          :
          :  PC potential                    false          :
          :  electronic temp.         2500.0000000     K    :
          :  accuracy                    1.0000000          :
          :  -> integral cutoff          0.2500000E+02      :
          :  -> integral neglect         0.1000000E-07      :
          :  -> SCF convergence          0.1000000E-05 Eh   :
          :  -> wf. convergence          0.1000000E-03 e    :
          :  Broyden damping             0.4000000          :
          ...................................................

 iter      E             dE          RMSdq      gap      omega  full diag
   1    -42.7546358 -0.427546E+02  0.740E-05    1.33       0.0  T
   2    -42.7546358 -0.488214E-10  0.520E-05    1.33     385.0  T
   3    -42.7546358 -0.381561E-10  0.210E-05    1.33     952.0  T

   *** convergence criteria satisfied after 3 iterations ***

         #    Occupation            Energy/Eh            Energy/eV
      -------------------------------------------------------------
         1        2.0000           -0.9396638             -25.5696
       ...           ...                  ...                  ...
        31        2.0000           -0.6255449             -17.0219
        32        2.0000           -0.6240879             -16.9823
        33        2.0000           -0.6046810             -16.4542
        34        2.0000           -0.5914085             -16.0930
        35        2.0000           -0.5898205             -16.0498
        36        1.9973           -0.5340434             -14.5321
        37        1.9149           -0.5062760             -13.7765 (HOMO)
        38        0.0877           -0.4572212             -12.4416 (LUMO)
        39        0.0001           -0.4029116             -10.9638
        40        0.0000           -0.3613556              -9.8330
        41                         -0.3063711              -8.3368
        42                         -0.2253299              -6.1315
       ...                                ...                  ...
        67                          7.1705976             195.1219
      -------------------------------------------------------------
                  HL-Gap            0.0490549 Eh            1.3349 eV
             Fermi-level           -0.4816256 Eh          -13.1057 eV

 SCC (total)                   0 d,  0 h,  0 min,  0.023 sec
 SCC setup                      ...        0 min,  0.000 sec (  0.841%)
 Dispersion                     ...        0 min,  0.000 sec (  0.838%)
 classical contributions        ...        0 min,  0.000 sec (  0.311%)
 integral evaluation            ...        0 min,  0.005 sec ( 21.621%)
 iterations                     ...        0 min,  0.004 sec ( 19.728%)
 molecular gradient             ...        0 min,  0.013 sec ( 56.064%)
 printout                       ...        0 min,  0.000 sec (  0.533%)

         :::::::::::::::::::::::::::::::::::::::::::::::::::::
         ::                     SUMMARY                     ::
         :::::::::::::::::::::::::::::::::::::::::::::::::::::
         :: total energy             -72.905505863548 Eh    ::
         :: gradient norm              0.003816667525 Eh/a0 ::
         :: HOMO-LUMO gap              1.334851081654 eV    ::
         ::.................................................::
         :: SCC energy               -42.754635778844 Eh    ::
         :: -> isotropic ES            0.126559010837 Eh    ::
         :: -> anisotropic ES         -0.002984528240 Eh    ::
         :: -> anisotropic XC          0.013308320631 Eh    ::
         :: -> dispersion             -0.021850491422 Eh    ::
         :: repulsion energy           2.608976748260 Eh    ::
         :: add. restraining         -32.759893355847 Eh    ::
         :: total charge               1.000000000000 e     ::
         :::::::::::::::::::::::::::::::::::::::::::::::::::::

           -------------------------------------------------
          |                Property Printout                |
           -------------------------------------------------

    * Orbital Energies and Occupations

         #    Occupation            Energy/Eh            Energy/eV
      -------------------------------------------------------------
         1        2.0000           -0.9396638             -25.5696
       ...           ...                  ...                  ...
        25        2.0000           -0.6819894             -18.5579
        26        2.0000           -0.6767452             -18.4152
        27        2.0000           -0.6554669             -17.8362
        28        2.0000           -0.6533805             -17.7794
        29        2.0000           -0.6493519             -17.6698
        30        2.0000           -0.6335972             -17.2411
        31        2.0000           -0.6255449             -17.0219
        32        2.0000           -0.6240879             -16.9823
        33        2.0000           -0.6046810             -16.4542
        34        2.0000           -0.5914085             -16.0930
        35        2.0000           -0.5898205             -16.0498
        36        1.9973           -0.5340434             -14.5321
        37        1.9149           -0.5062760             -13.7765 (HOMO)
        38        0.0877           -0.4572212             -12.4416 (LUMO)
        39        0.0001           -0.4029116             -10.9638
        40        0.0000           -0.3613556              -9.8330
        41                         -0.3063711              -8.3368
        42                         -0.2253299              -6.1315
        43                         -0.1753282              -4.7709
        44                         -0.1660136              -4.5175
        45                         -0.1389465              -3.7809
        46                         -0.1153007              -3.1375
        47                         -0.0680784              -1.8525
        48                         -0.0437770              -1.1912
       ...                                ...                  ...
        67                          7.1705976             195.1219
      -------------------------------------------------------------
                  HL-Gap            0.0490549 Eh            1.3349 eV
             Fermi-level           -0.4816256 Eh          -13.1057 eV

     #   Z          covCN         q      C6AA      α(0)
     1   6 C        3.788     0.117    18.680     6.156
     2   7 N        2.790    -0.069    22.576     7.057
     3   6 C        2.801     0.121    25.336     8.246
     4   7 N        1.783    -0.327    29.317     8.019
     5   6 C        2.861     0.003    27.958     8.667
     6   6 C        2.959     0.026    27.432     8.591
     7   6 C        2.969     0.223    23.320     7.921
     8   8 O        1.710    -0.182    17.049     5.575
     9   7 N        2.738    -0.026    21.750     6.926
    10   6 C        3.701    -0.072    22.035     6.713
    11   6 C        2.728     0.309    21.752     7.635
    12   8 O        0.859    -0.349    20.688     6.098
    13   7 N        2.745    -0.010    21.450     6.879
    14   6 C        3.707    -0.080    22.186     6.733
    15   1 H        0.923     0.114     1.664     2.017
    16   1 H        0.911     0.256     0.856     1.447
    17   1 H        0.923     0.111     1.689     2.032
    18   1 H        0.924     0.058     2.217     2.328
    19   1 H        0.925     0.106     1.732     2.058
    20   1 H        0.924     0.117     1.641     2.003
    21   1 H        0.925     0.120     1.614     1.987
    22   1 H        0.925     0.100     1.786     2.090
    23   1 H        0.925     0.099     1.795     2.095
    24   1 H        0.925     0.124     1.578     1.964
    25   1 H        0.926     0.112     1.676     2.025

 Mol. C6AA /au·bohr⁶  :       6535.562775
 Mol. C8AA /au·bohr⁸  :     149899.537167
 Mol. α(0) /au        :        123.262281


Wiberg/Mayer (AO) data.
largest (>0.10) Wiberg bond orders for each atom

 ---------------------------------------------------------------------------
     #   Z sym  total        # sym  WBO       # sym  WBO       # sym  WBO
 ---------------------------------------------------------------------------
     1   6 C    3.895 --     2 N    0.980    15 H    0.949     8 O    0.949
                            17 H    0.948
     2   7 N    3.495 --     3 C    1.106     6 C    1.102     1 C    0.980
                             4 N    0.146
     3   6 C    3.951 --     4 N    1.876     2 N    1.106    18 H    0.919
     4   7 N    3.055 --     3 C    1.876    16 H    0.929     2 N    0.146
     5   6 C    3.912 --     6 C    1.445    13 N    1.230    25 H    0.953
     6   6 C    3.963 --     5 C    1.445     7 C    1.196     2 N    1.102
     7   6 C    3.895 --     9 N    1.329     6 C    1.196     8 O    1.175
     8   8 O    2.352 --     7 C    1.175     1 C    0.949
     9   7 N    3.615 --     7 C    1.329    11 C    1.006    10 C    0.968
                            12 O    0.121
    10   6 C    3.912 --    19 H    0.974     9 N    0.968    21 H    0.958
                            20 H    0.957
    11   6 C    3.956 --    12 O    1.719    13 N    1.122     9 N    1.006
    12   8 O    2.081 --    11 C    1.719    13 N    0.150     9 N    0.121
    13   7 N    3.620 --     5 C    1.230    11 C    1.122    14 C    0.972
                            12 O    0.150
    14   6 C    3.917 --    13 N    0.972    23 H    0.967    24 H    0.967
                            22 H    0.965
    15   1 H    0.985 --     1 C    0.949
    16   1 H    0.934 --     4 N    0.929
    17   1 H    0.986 --     1 C    0.948
    18   1 H    0.982 --     3 C    0.919
    19   1 H    0.988 --    10 C    0.974
    20   1 H    0.984 --    10 C    0.957
    21   1 H    0.984 --    10 C    0.958
    22   1 H    0.987 --    14 C    0.965
    23   1 H    0.987 --    14 C    0.967
    24   1 H    0.984 --    14 C    0.967
    25   1 H    0.987 --     5 C    0.953
 ---------------------------------------------------------------------------

Topologies differ in total number of bonds
Writing topology from bond orders to xtbtopo.mol

molecular dipole:
                 x           y           z       tot (Debye)
 q only:        0.732      -0.124       0.024
   full:        0.988      -0.190       0.002       2.558
molecular quadrupole (traceless):
                xx          xy          yy          xz          yz          zz
 q only:        2.689       3.745      11.884      -1.411      -1.111     -14.573
  q+dip:       -2.794       3.076      12.907      -0.913      -0.905     -10.113
   full:       -3.193       2.936      12.139      -0.718      -0.899      -8.947

           -------------------------------------------------
          |                Geometry Summary                 |
           -------------------------------------------------

      molecular mass/u    :      195.1988581
   center of mass at/Å    :        0.1445387       0.0217726       0.0003767
  moments of inertia/u·Å² :        0.3829504E+03   0.9809036E+03   0.1352102E+04
rotational constants/cm⁻¹ :        0.4402040E-01   0.1718582E-01   0.1246772E-01

 * 26 selected distances

     #   Z          #   Z                                           value/Å
     1   6 C        2   7 N                                       1.4588860 (max)
     2   7 N        3   6 C                                       1.3829317
     3   6 C        4   7 N                                       1.2447401
     2   7 N        6   6 C                                       1.3830952
     5   6 C        6   6 C                                       1.3671735
     6   6 C        7   6 C                                       1.4125836
     1   6 C        8   8 O                                       1.4252396
     7   6 C        8   8 O                                       1.3196333
     7   6 C        9   7 N                                       1.3209483
     9   7 N       10   6 C                                       1.4502891
     9   7 N       11   6 C                                       1.4236651
    11   6 C       12   8 O                                       1.1959111
     5   6 C       13   7 N                                       1.3595617
    11   6 C       13   7 N                                       1.3839475
    13   7 N       14   6 C                                       1.4529417
     1   6 C       15   1 H                                       1.0981762
     4   7 N       16   1 H                                       0.4032820 (min)
     1   6 C       17   1 H                                       1.0994847
     3   6 C       18   1 H                                       1.0954523
    10   6 C       19   1 H                                       1.0859075
    10   6 C       20   1 H                                       1.0905193
    10   6 C       21   1 H                                       1.0900801
    14   6 C       22   1 H                                       1.0898194
    14   6 C       23   1 H                                       1.0893519
    14   6 C       24   1 H                                       1.0884307
     5   6 C       25   1 H                                       1.0776261

 * 5 distinct bonds (by element types)

   Z      Z             #   av. dist./Å        max./Å        min./Å
   1 H    6 C          10     1.0904848     1.0994847     1.0776261
   6 C    6 C           2     1.3898785     1.4125836     1.3671735
   1 H    7 N           1     0.4032820     0.4032820     0.4032820
   6 C    7 N          10     1.3861006     1.4588860     1.2447401
   6 C    8 O           3     1.3135947     1.4252396     1.1959111


optimized geometry written to: xtbopt.xyz


           -------------------------------------------------
          | TOTAL ENERGY              -72.905505863548 Eh   |
          | GRADIENT NORM               0.003816667525 Eh/α |
          | HOMO-LUMO GAP               1.334851081654 eV   |
           -------------------------------------------------

------------------------------------------------------------------------
 * finished run on 2024/06/05 at 19:58:12.541     
------------------------------------------------------------------------
 total:
 * wall-time:     0 d,  0 h,  0 min,  3.701 sec
 *  cpu-time:     0 d,  0 h,  0 min,  3.266 sec
 * ratio c/w:     0.883 speedup
 SCF:
 * wall-time:     0 d,  0 h,  0 min,  0.063 sec
 *  cpu-time:     0 d,  0 h,  0 min,  0.037 sec
 * ratio c/w:     0.588 speedup
 ANC optimizer:
 * wall-time:     0 d,  0 h,  0 min,  3.608 sec
 *  cpu-time:     0 d,  0 h,  0 min,  3.217 sec
 * ratio c/w:     0.891 speedup

