25
 energy: 0.000000000000 xtb: 6.6.1 (8d0f1dd)
C            3.23720163006194        1.16630919979326        0.08434469647475
N            2.29877817382611        0.07527477071623        0.03981603040599
C            2.58028210190900       -1.21425402444508        0.03006176031096
N            1.43813958087363       -1.93419271955128        0.00098261760884
C            0.39035688448383       -1.05887472636071       -0.00790371836672
C            0.93510056364412        0.21347819449412        0.01709077491437
C            0.09450143893243        1.40504303904423       -0.00410947031874
O            0.49712751527797        2.54126714362870       -0.00342325688240
N           -1.25076640035757        1.06271879480407       -0.03085478223738
C           -2.21907211982101        2.15522099834493       -0.05001256985998
C           -1.81739487048744       -0.20012725993278       -0.04692818574614
O           -2.99983886758376       -0.37846417018721       -0.07008878229737
N           -0.92618586207120       -1.30210215599479       -0.03682761578324
C           -1.46982264913417       -2.64643102187190       -0.06029820460571
H            3.71247264356769        1.21471455160235        1.06488849150277
H            4.00791497605742        1.03430808813993       -0.67357694370751
H            2.69910007168542        2.09770118228144       -0.09130154882931
H            3.56654120610678       -1.63682992603973        0.04233140067262
H           -1.67107961066214        3.09322851271934       -0.02552706933167
H           -2.82428953597071        2.09428624779827       -0.95318082946668
H           -2.87644029173232        2.07745725625962        0.81450067533302
H           -1.17061996399332       -3.19584890659852        0.83242232437030
H           -1.14560257411436       -3.17511610292205       -0.95688275822323
H           -2.55549792440841       -2.55659984320617       -0.07459039797972
H            1.38130855184625       -2.94313852034425       -0.01389874181052
25
 energy: -4.721490718936 xtb: 6.6.1 (8d0f1dd)
C            3.26125148797096        1.16320776581660        0.08801109476136
N            2.31789464178351        0.08775998173739        0.03778255132442
C            2.60775176709408       -1.24108580179610        0.02698697192295
N            1.43456369120156       -1.94594198408684       -0.00209616742736
C            0.40492095568995       -1.05809238885221       -0.00741971730134
C            0.93786052861693        0.22065247378143        0.01756991931979
C            0.10422214397591        1.39784813466991        0.00033969004338
O            0.51042680694198        2.55999674590031        0.00216955865594
N           -1.26664396333194        1.06508585248802       -0.02754664907341
C           -2.25616571596360        2.15939425231929       -0.05440106040827
C           -1.81717858859154       -0.19453260128122       -0.04264960441498
O           -3.01233964338025       -0.38333021587703       -0.06568405407515
N           -0.92609377756332       -1.29774799068894       -0.03442794830960
C           -1.46239464296410       -2.64160726648773       -0.05879162923460
H            3.73794486671806        1.20694789617627        1.07103900235636
H            4.03144414978878        1.02275570794491       -0.67221361766100
H            2.72061556794814        2.09035117607319       -0.09016514971187
H            3.58570849473473       -1.67012737374505        0.03629316699627
H           -1.72726882638316        3.11051025630082       -0.03224405592820
H           -2.87180526427092        2.10953715707705       -0.95521463767120
H           -2.92867734168151        2.09811997691374        0.80387706024753
H           -1.15810598922367       -3.19593952997261        0.83147480426844
H           -1.13544182992588       -3.17284024209122       -0.95517269148557
H           -2.54753534837358       -2.55178172059554       -0.07159767572625
H            1.36726049712509       -2.95011165955243       -0.01888526532035
25
 energy: -3.537071677482 xtb: 6.6.1 (8d0f1dd)
C            3.30241966239134        1.14380289358074        0.09361029516960
N            2.33892781367228        0.09292532662890        0.03378414049654
C            2.63039517418203       -1.26833731088860        0.02022441241065
N            1.42870111441052       -1.95132251322584       -0.00822103301466
C            0.42108008541044       -1.05249238903435       -0.00644192782544
C            0.94188524569519        0.23179356502771        0.01972202894330
C            0.11169161360932        1.39207766789294        0.00913548072021
O            0.51460594338943        2.56734698409211        0.01442616444688
N           -1.29303165687223        1.08022448618285       -0.02159266810401
C           -2.31710329929635        2.16948464380295       -0.06326572846398
C           -1.81301374314141       -0.18208722908171       -0.03440166043773
O           -3.01163765352062       -0.39207447269493       -0.05561356253766
N           -0.92232406837619       -1.28402929017600       -0.02897883081812
C           -1.44602792760016       -2.63025043749469       -0.05519529919088
H            3.78367432811397        1.18221087717334        1.07759649479218
H            4.07598138259207        0.99343207002404       -0.66476173156658
H            2.77447414626543        2.07654083811107       -0.08636749756916
H            3.59961812083038       -1.70822934745856        0.02234550480530
H           -1.82560056369881        3.14357737199074       -0.04583446341200
H           -2.94305944572522        2.11809427647998       -0.96186620847034
H           -3.01075618196158        2.11917050437757        0.78440143491186
H           -1.13345982820855       -3.19084639344391        0.83062799797201
H           -1.11610372492040       -3.16253221342666       -0.95213425359049
H           -2.53105152321154       -2.54610252062718       -0.06473095836480
H            1.35192965390690       -2.95334878564051       -0.02943423515541
25
 energy: 1.339119327906 xtb: 6.6.1 (8d0f1dd)
C            3.35520810067162        1.11056292004734        0.10057424318755
N            2.35795392047541        0.09176847726148        0.02863884263619
C            2.64279599409797       -1.28957692384539        0.01039744081445
N            1.42409767936566       -1.95134103320291       -0.01725348043646
C            0.43460834686915       -1.04246705710141       -0.00511767264526
C            0.94761241510147        0.24626481545353        0.02364374885848
C            0.11418372363215        1.39870370924282        0.02110706072285
O            0.51250752455870        2.57692061985207        0.03291434228401
N           -1.32338459571974        1.10727216900996       -0.01448851916506
C           -2.39349969488880        2.18172153495817       -0.07601380125896
C           -1.81025612589872       -0.16534343336592       -0.02316055156659
O           -3.00715026674918       -0.40226569360109       -0.04060105196758
N           -0.91509607520859       -1.26342809903995       -0.02071885252392
C           -1.42296236919561       -2.61461512609223       -0.04934479118449
H            3.83967402997007        1.13503989088594        1.08568252874930
H            4.13384930484036        0.94093438220191       -0.65165428788315
H            2.85973830801849        2.06077517263010       -0.08112875898714
H            3.60552044641080       -1.74272406413480        0.00012402126431
H           -1.95540489303366        3.18543540096985       -0.06541403885918
H           -3.02483539463930        2.11185710141677       -0.97435428126174
H           -3.10784715797426        2.13088505187970        0.75955162234571
H           -1.09800610369222       -3.17850641357834        0.83142161573542
H           -1.08925322200057       -3.14273414880293       -0.94870119009548
H           -2.50842152115074       -2.54272311832014       -0.05354872375710
H            1.34058229407574       -2.95338753255256       -0.04552156885887
25
 energy: 9.388613743269 xtb: 6.6.1 (8d0f1dd)
C            3.41103644353059        1.06782116681909        0.11007158378502
N            2.37606114897645        0.08483926182952        0.02147092672495
C            2.65092824662342       -1.30695562144308       -0.00259325946851
N            1.42496115605962       -1.95114578386939       -0.03015402898300
C            0.44787000937770       -1.03347180172564       -0.00377472756487
C            0.95527346708374        0.25864701594224        0.02900104091305
C            0.11722183015716        1.41172390843041        0.03584653103257
O            0.51553417342840        2.58362317238443        0.05973395914929
N           -1.35704865153866        1.14362946005418       -0.00736174147620
C           -2.48256128092468        2.20180824721551       -0.09336579029523
C           -1.80871993694354       -0.14529289436900       -0.00874294215658
O           -3.00003560958963       -0.41349687402102       -0.01887907487543
N           -0.90461150880255       -1.23963059397458       -0.00911706305872
C           -1.39500110750626       -2.59814886069723       -0.04041636197198
H            3.89193551420112        1.07425376217256        1.09876786854873
H            4.19574479700975        0.87505197442035       -0.63274258783281
H            2.95708013379169        2.03913404719268       -0.07485611349224
H            3.60946523096997       -1.77219777843270       -0.03384946926058
H           -2.10733217639676        3.23534460536518       -0.09255088119838
H           -3.11481985605623        2.10613595954492       -0.99399703894327
H           -3.21719106244595        2.14793226312461        0.72977300192559
H           -1.05390852783266       -3.16365668018103        0.83416565977872
H           -1.05833547115736       -3.11825112845370       -0.94417248734088
H           -2.48105493062643       -2.54424612711942       -0.03650950078399
H            1.33972263654733       -2.95442209803692       -0.06871360700801
25
 energy: 18.820695973422 xtb: 6.6.1 (8d0f1dd)
C            3.46332680049065        1.02172172381288        0.12086910114576
N            2.39140899723920        0.07583018342689        0.01306118754886
C            2.65280025435635       -1.31271544126330       -0.01432764512001
N            1.43057887143077       -1.94786890203139       -0.04412549646193
C            0.45717430966682       -1.02421378102636       -0.00429383145687
C            0.96484066350562        0.26846670639671        0.03274325713950
C            0.12112968890342        1.42934663872647        0.04715209924636
O            0.52539229000553        2.58892625525560        0.08933383500038
N           -1.38737134504432        1.17992510074398       -0.00527309469844
C           -2.57210021698659        2.22297825439953       -0.11107801093521
C           -1.81083277967068       -0.12473911065017        0.00372702564358
O           -2.99369333102771       -0.42019106538050        0.00482037503090
N           -0.89383135663475       -1.21591874151036        0.00208806439973
C           -1.36789076679588       -2.58282638460159       -0.02989378508558
H            3.93185012829690        1.00589499668535        1.11590733510841
H            4.25328411262890        0.79791339525289       -0.60929064492263
H            3.05838746831941        2.01433081422539       -0.07030683234188
H            3.60956833778721       -1.78553135992133       -0.07332068449195
H           -2.25854407101267        3.27937413021330       -0.12081114500100
H           -3.20147707466028        2.10046755482497       -1.01444284732386
H           -3.31940043584637        2.15987965101473        0.70335824362267
H           -1.00792695427559       -3.14605849895043        0.83882504783242
H           -1.02899877041354       -3.09278742925685       -0.93878858740616
H           -2.45420465005883       -2.55053858925692       -0.01597268409938
H            1.34874449773265       -2.95263749895751       -0.09292638622637
25
 energy: 25.292890925975 xtb: 6.6.1 (8d0f1dd)
C            3.49962122010846        0.98731576619408        0.12929639162392
N            2.40069328797572        0.07142505837494        0.00596825814765
C            2.64841634116048       -1.30330316631772       -0.01914423365296
N            1.43588147611133       -1.94015681141410       -0.05332154823248
C            0.45899121324025       -1.01421301980764       -0.00876901156349
C            0.97393022853327        0.27597421722839        0.03136704004517
C            0.12479148408758        1.44510181162550        0.04851642454876
O            0.53715501842347        2.59489540405380        0.11060152724106
N           -1.40363161367954        1.20083203421646       -0.01171069152164
C           -2.63460999674504        2.23442856864636       -0.12175114980815
C           -1.81661803571243       -0.11035457683526        0.00754509930550
O           -2.99201782789236       -0.41925669225004        0.02041945633000
N           -0.88763213793185       -1.19954741426946        0.00645794300957
C           -1.35129200960219       -2.57261232870234       -0.02192166764394
H            3.95132721644005        0.95164629703200        1.13105711633817
H            4.29169327086296        0.72902352642614       -0.58796193575297
H            3.13958221720051        1.99468110166714       -0.07052314000409
H            3.60520916986053       -1.77697915660100       -0.10262054706634
H           -2.36183909646603        3.30020118257459       -0.13758219448955
H           -3.26071053226041        2.09354867294337       -1.02509335063139
H           -3.38121229171856        2.15448808614204        0.69170034611212
H           -0.97559055319217       -3.12949133697559        0.84373833055551
H           -1.01181483653965       -3.07580625948695       -0.93395422138669
H           -2.43700081270771       -2.55723109778366        0.00084391787017
H            1.35889226837953       -2.94558126450910       -0.10612426322665
25
 energy: 25.609274027133 xtb: 6.6.1 (8d0f1dd)
C            3.50787054490839        0.97930646154784        0.13202089348661
N            2.40153000273505        0.07433331883575        0.00298458847774
C            2.64352746491868       -1.29105505562739       -0.01737208984324
N            1.43638286400590       -1.93407777800576       -0.05489270823054
C            0.45572775501069       -1.00801339862336       -0.01450643850294
C            0.97740452357288        0.27980855213533        0.02697808954373
C            0.12589274150383        1.45064055843330        0.04380173553982
O            0.54143384545374        2.59940059299134        0.11529553657355
N           -1.40202363151242        1.19982551679847       -0.01971622027144
C           -2.64615656527541        2.23307882329436       -0.12249393104746
C           -1.82096915186942       -0.10772766446246        0.00442375009155
O           -2.99461023431418       -0.41561161129469        0.02259616620973
N           -0.88791082524123       -1.19669621090344        0.00338637014602
C           -1.35008285410458       -2.57086312051427       -0.01998837916222
H            3.94903013096663        0.93732249247233        1.13709237402736
H            4.29905525581862        0.70249168374344       -0.57808676296552
H            3.16751814858110        1.98929441818221       -0.07408488839854
H            3.60093242008795       -1.76171420386301       -0.11040956875115
H           -2.38054240735230        3.29715601444129       -0.13749193749178
H           -3.27104645837444        2.08732348869188       -1.02386312006951
H           -3.38490863527366        2.14021031783329        0.69502790830636
H           -0.96930922519435       -3.12277837378943        0.84598827896677
H           -1.01236273779130       -3.07458569281301       -0.93196029071327
H           -2.43498316424355       -2.55889049465824        0.00676787191233
H            1.36081486091957       -2.93915003267382       -0.10446333168670
25
 energy: 24.629510658283 xtb: 6.6.1 (8d0f1dd)
C            3.51063692618937        0.97836819118902        0.13368821530221
N            2.39986311919285        0.08029463946356        0.00052107759668
C            2.64019164243190       -1.28278014964417       -0.01490365318426
N            1.43410999649788       -1.92966284704889       -0.05548946615262
C            0.45259161543299       -1.00262325501897       -0.01978472560000
C            0.97751132593747        0.28422666690596        0.02273223657540
C            0.12451212960279        1.45312010216462        0.04066700558540
O            0.53953476460021        2.60420146864675        0.11458896875635
N           -1.39741530203593        1.19418103485610       -0.02515416970616
C           -2.64467285757544        2.22881513120203       -0.12155222005578
C           -1.82344566758214       -0.10817613023249        0.00211412769206
O           -2.99781315897113       -0.41362122271469        0.02239043085158
N           -0.88961717880251       -1.19717587389423       -0.00061048195164
C           -1.35145731784477       -2.57104160158854       -0.01953837842692
H            3.94411173427239        0.93440548368440        1.14153067251073
H            4.30220298587255        0.68809637436707       -0.56975296215290
H            3.18434005919217        1.99025069713520       -0.07884079045596
H            3.59784873219743       -1.75125609398014       -0.11496097216715
H           -2.38052900706976        3.29286089693363       -0.13425772704199
H           -3.26936683073053        2.07954998592807       -1.02103368909580
H           -3.37747650758514        2.12693123416491        0.69917613340657
H           -0.96850913295694       -3.12021309441121        0.84707507967083
H           -1.01635722320087       -3.07741474063185       -0.93098762501495
H           -2.43603590282285       -2.55812086812238        0.01023213258281
H            1.35745572369424       -2.93418742718184       -0.10081532337720
25
 energy: 23.579377984938 xtb: 6.6.1 (8d0f1dd)
C            3.51192182285547        0.97861881151923        0.13548201236174
N            2.39723289304694        0.08625457917550       -0.00216691811022
C            2.63823176083688       -1.27813512835162       -0.01227918561262
N            1.43164037744186       -1.92628136383361       -0.05652980889461
C            0.45057730290889       -0.99834402495899       -0.02366211574606
C            0.97567265588845        0.28842231192600        0.01940164357446
C            0.12077333950232        1.45468068161966        0.03945940291359
O            0.53318374839078        2.60795337056253        0.11167567516113
N           -1.39412661440798        1.18923637107464       -0.02795290990167
C           -2.64049844732536        2.22538719167862       -0.12069130901564
C           -1.82458457153596       -0.10965366600026        0.00134951745745
O           -2.99991214882266       -0.41350120937242        0.02264540949002
N           -0.89094775324856       -1.19845847947269       -0.00369767021951
C           -1.35221908914284       -2.57178365640223       -0.01910269725027
H            3.93819982960753        0.93563713854527        1.14639443074891
H            4.30535333726112        0.67821777007870       -0.56090785376169
H            3.19717657862712        1.99208745906776       -0.08398208031265
H            3.59579823864416       -1.74520436665363       -0.12143041853219
H           -2.37518640443953        3.28870172883172       -0.13149503442552
H           -3.26454017992581        2.07400237920378       -1.01928540053298
H           -3.36983375260151        2.11906416129483        0.70184925005968
H           -0.96801169858667       -3.11973768409369        0.84779209842475
H           -1.02001953488116       -3.08065331182084       -0.93035017897591
H           -2.43687210192086       -2.55702247889577        0.01331485187644
H            1.35320507976363       -2.93045998255053       -0.09879681462931
25
 energy: 22.655433914983 xtb: 6.6.1 (8d0f1dd)
C            3.51267852722814        0.97841111326120        0.13792708478468
N            2.39433761086936        0.09151592223087       -0.00539703136544
C            2.63712348430658       -1.27537756596186       -0.00859928336580
N            1.42966996009787       -1.92321787840852       -0.05822949602747
C            0.44938220921919       -0.99492969858382       -0.02661929348672
C            0.97298197894431        0.29209356695439        0.01655534079856
C            0.11527693916722        1.45615141432457        0.03861829230649
O            0.52411906545927        2.61099060705911        0.10845486832214
N           -1.39228961259324        1.18578545713750       -0.02932651306129
C           -2.63593366646230        2.22297949971443       -0.12009036313362
C           -1.82503755989968       -0.11157949743631        0.00137979009734
O           -3.00095282231508       -0.41440683615928        0.02416414561250
N           -0.89174802887767       -1.19975870963585       -0.00606753963080
C           -1.35211924007849       -2.57264058582893       -0.01823016401987
H            3.93050307098649        0.93865584325143        1.15266165956678
H            4.30941266663524        0.66852253410587       -0.54998972572808
H            3.20909145334402        1.99312384162384       -0.08997358393842
H            3.59409593253665       -1.74099529264412       -0.13222512420670
H           -2.36866148034781        3.28536049413034       -0.12999685728677
H           -3.25910005848138        2.07031879076080       -1.01842485018207
H           -3.36359142875215        2.11502803315732        0.70320547934736
H           -0.96648915837556       -3.11987761562065        0.84858233423439
H           -1.02292648131064       -3.08341548755340       -0.92960061294273
H           -2.43699499139131       -2.55649044006719        0.01689940060026
H            1.34938629802717       -2.92721890763979       -0.09864406114744
25
 energy: 21.714527924921 xtb: 6.6.1 (8d0f1dd)
C            3.51268705606618        0.97777926943365        0.14140900013059
N            2.39125831716026        0.09615423064602       -0.00937988781204
C            2.63648508061204       -1.27351366889000       -0.00231307541337
N            1.42811973624668       -1.92014627888077       -0.06056051067429
C            0.44855908940357       -0.99213659770267       -0.02909886201506
C            0.96980610716701        0.29520017013055        0.01407828679621
C            0.10803075834802        1.45767069845879        0.03732853605717
O            0.51288426140903        2.61352513961503        0.10551388457921
N           -1.39140984901060        1.18350419238248       -0.02989935555009
C           -2.63041814638952        2.22089068225929       -0.11983446411480
C           -1.82526241960296       -0.11398160214950        0.00196657034127
O           -3.00141776637590       -0.41571300983872        0.02723095733151
N           -0.89231523215471       -1.20083064518323       -0.00810010029536
C           -1.35143943233370       -2.57353233663241       -0.01682241316082
H            3.91950244515705        0.94378120141709        1.16107745714306
H            4.31448713819731        0.65730862163531       -0.53535133818157
H            3.22091331685146        1.99318103385597       -0.09767876707217
H            3.59199464414724       -1.73690875486082       -0.15039359602930
H           -2.36040523941045        3.28218747149310       -0.12984518894804
H           -3.25275980092270        2.06776079832609       -1.01830029695489
H           -3.35764674288618        2.11345765436973        0.70353011159949
H           -0.96361220386865       -3.11989903480945        0.84960826431633
H           -1.02533568891734       -3.08565686678922       -0.92855723795592
H           -2.43653206426720       -2.55699012626697        0.02146547774483
H            1.34604130331031       -2.92406363984740       -0.10003955571466
25
 energy: 20.655086692639 xtb: 6.6.1 (8d0f1dd)
C            3.51168441859358        0.97704085829710        0.14621064805064
N            2.38822262032861        0.09991922359677       -0.01399211963650
C            2.63609944725528       -1.27226519454692        0.00850625249359
N            1.42673810344720       -1.91718309236203       -0.06335514689497
C            0.44778728356319       -0.98991525008807       -0.03131152993754
C            0.96657882701600        0.29755838087318        0.01232366115871
C            0.09947419459792        1.45911485179960        0.03534236746440
O            0.50068744616844        2.61544956423806        0.10331684062176
N           -1.39120197049963        1.18229438822083       -0.02994786714597
C           -2.62342388018501        2.21835356661597       -0.12019804447801
C           -1.82557100341429       -0.11672877947624        0.00308452669715
O           -3.00177121523055       -0.41680208069949        0.03200890696447
N           -0.89296172901890       -1.20123878358876       -0.00993820739206
C           -1.35039736020941       -2.57424888089898       -0.01486545161513
H            3.90444410937162        0.95165464434812        1.17191918290498
H            4.32054809406333        0.64426511479575       -0.51594898724695
H            3.23225803380597        1.99225679986363       -0.10752047357077
H            3.58843672808026       -1.73198834936116       -0.17947141766988
H           -2.34999822532977        3.27863020130447       -0.13125815985932
H           -3.24532840168532        2.06557307443127       -1.01903256204957
H           -3.35128978811030        2.11335212790220        0.70274720052132
H           -0.95910402822004       -3.11911375465249        0.85092121866599
H           -1.02718943326276       -3.08705571532881       -0.92714704457924
H           -2.43556735914199       -2.55884682879930        0.02721124789607
H            1.34305975595279       -2.92104748431277       -0.10257114521588
25
 energy: 19.396872061672 xtb: 6.6.1 (8d0f1dd)
C            3.50921058613716        0.97689980259751        0.15213364083402
N            2.38560293666017        0.10219681593179       -0.01855585298990
C            2.63586664279578       -1.27174471753031        0.02527089071522
N            1.42518380294129       -1.91483851875543       -0.06621084953813
C            0.44680841306094       -0.98838699375731       -0.03343659951810
C            0.96401879888576        0.29876114116340        0.01171393999404
C            0.09107306530698        1.46015717161145        0.03281872025049
O            0.49000825311828        2.61636734060306        0.10198475978739
N           -1.39121961048963        1.18199200469986       -0.02972021026275
C           -2.61455755541828        2.21464884585144       -0.12132854682867
C           -1.82608184790625       -0.11949130876602        0.00458702713363
O           -3.00235895328072       -0.41699533104572        0.03806766249727
N           -0.89389508265633       -1.20060093847951       -0.01163303836306
C           -1.34934895798327       -2.57451695188634       -0.01260671267176
H            3.88595516937568        0.96265730174985        1.18421246460359
H            4.32654654193290        0.63129255397705       -0.49276730819373
H            3.24088339735573        1.99058223517160       -0.11877697449796
H            3.58180818615235       -1.72564883940817       -0.22037322413469
H           -2.33715371001691        3.27398951534605       -0.13409018518363
H           -3.23660496616448        2.06295710246777       -1.02063197156886
H           -3.34374819585887        2.11347171107431        0.70099967967772
H           -0.95332533818349       -3.11698338009017        0.85238618502851
H           -1.02840782449972       -3.08721513540820       -0.92552213667424
H           -2.43435336836594       -2.56190405075124        0.03368976242557
H            1.34030428503713       -2.91861877419482       -0.10517722637471
25
 energy: 18.503994643591 xtb: 6.6.1 (8d0f1dd)
C            3.50593682600914        0.97803250305711        0.15591035869302
N            2.38495577434109        0.10111307074372       -0.02031062387418
C            2.63614501522181       -1.27270171074042        0.03998473096816
N            1.42403150896075       -1.91479451806023       -0.06760297542616
C            0.44608936665774       -0.98855532449205       -0.03465390527788
C            0.96401920172350        0.29772054901305        0.01253846581360
C            0.08839787934577        1.45998196572054        0.03117920339674
O            0.48815681594657        2.61537109960100        0.10201576206377
N           -1.39111411776042        1.18274701960541       -0.02935863991986
C           -2.60788980684353        2.21121474224242       -0.12259292650655
C           -1.82636990947900       -0.12063688018015        0.00561472674089
O           -3.00285065413827       -0.41579206579157        0.04204235291788
N           -0.89459976841014       -1.19902825631311       -0.01233486395608
C           -1.34902137044131       -2.57399081414823       -0.01143911951756
H            3.87389078998959        0.97141632957863        1.19077813551053
H            4.32846005039701        0.62710577949209       -0.47870119864312
H            3.23997428413857        1.98932164504312       -0.12494941754427
H            3.57345453056366       -1.72066593895877       -0.25167830674475
H           -2.32810401972322        3.27022467255693       -0.13671157367650
H           -3.23066693654168        2.06071631397338       -1.02214783141500
H           -3.33823052123407        2.11301991752397        0.69935508598669
H           -0.94954072658658       -3.11431511117214        0.85306103730919
H           -1.02832903497286       -3.08570823255837       -0.92472365043125
H           -2.43365789068223       -2.56428061383206        0.03717936538540
H            1.33907738145435       -2.91848753973232       -0.10542029570544
25