72
 energy: 39.396256222551 xtb: 6.6.1 (8d0f1dd)
N           -2.05752880271148        3.10443832143631        2.49061865216982
C           -1.98211855751686        2.32559741707545        1.51144186011223
C           -3.01785267639544        2.16542085254605        0.43400577629953
C           -3.57260781964640        0.75095500828961        0.48439221444016
C           -4.40287988462819        0.28967334625243       -0.53965933307830
C           -4.93521666180106       -0.98515381898478       -0.51635109599465
O           -5.73290793209497       -1.51681236929938       -1.47886735893767
C           -6.18669156210516       -0.68358549314611       -2.51342027738201
C           -4.61959852386966       -1.85731196287584        0.55110782099965
O           -5.15976776822971       -3.10089638430017        0.47459340719168
C           -4.93157020876459       -3.99930841208713        1.53215608450667
C           -3.80492706283362       -1.39568674901590        1.56560887548803
C           -3.29530682331714       -0.10269419164956        1.53405039330702
C           -2.28707880674873        2.40302116634542       -0.91114717028910
C           -1.42914400453294        1.23188288806841       -1.43666502890016
C           -0.21205492950051        0.89682838606602       -0.63453884073184
N            0.19600723348613       -0.32543021205115       -0.32898105257238
C            1.35013844786208       -0.62125135631324        0.23893183886079
C            3.99402355426531       -0.69541879388299       -2.04982850022831
C            5.19187867363359       -0.56537588876535       -1.41852293953330
C            5.94267776341851        0.60647759661023       -1.57847951940412
C            7.15028408470014        0.73769964369960       -0.96165775562716
C            7.64360627228549       -0.26252745510656       -0.13660213735156
O            8.82542791112455       -0.22253157809171        0.52926391255076
C            9.60212655036757        0.94042719253434        0.46492484436154
C            6.90182463171466       -1.46065427028744        0.02461188954172
O            7.50192816130932       -2.41044896008167        0.79061644090465
C            6.80901777166848       -3.61039409240992        1.02264424408970
C            5.70224693127897       -1.59971756370869       -0.59914391602669
C           -0.65850819093214       -1.46231287950762       -0.59179525085161
C           -4.19961218028639        3.15864477523761        0.57346834215683
C           -4.95829068373462        2.92088078377349        1.87682491001805
C           -3.76390440847055        4.61911609976338        0.49208417649482
H           -4.63746409132977        0.94542106961541       -1.36183497129668
H           -6.72395181218643        0.18931392960020       -2.12793477008931
H           -6.86914903862018       -1.29203647670931       -3.10350878365346
H           -5.36183167580245       -0.35007162328411       -3.14870319832190
H           -5.31818148839955       -3.61318144790486        2.47955982389628
H           -5.47024045736047       -4.90852675579830        1.27055893851987
H           -3.86846884725846       -4.23005043700996        1.64782567942155
H           -3.56303162246334       -2.02832163927229        2.40379877230196
H           -2.68355581190372        0.23168810245099        2.35624443644076
H           -3.04159452418559        2.63209316935240       -1.67004486020709
H           -1.65606828051082        3.28563077678137       -0.81110705461648
H           -2.07069756780588        0.35876368944885       -1.53646128101788
H           -1.14039134864852        1.53665033355435       -2.45946917951316
H           -1.10034025749028        1.68867659258725        1.31729355053825
H            0.48318287347076        1.70046717099830       -0.44437028169912
H            1.52233334498280       -1.61093426047455        0.59430279863727
H            1.94923938699615        0.18443942242546        0.63449981865599
H            3.66933345254405        0.06803603544918       -2.72769224325183
H            3.47530038936171       -1.64073298568850       -2.05699632806938
H            5.54854394415823        1.39420676725218       -2.19543485844889
H            7.72013850430446        1.63034272874527       -1.14056832918108
H            9.07954598179169        1.81514990068848        0.86118855413585
H            9.93157323611576        1.15279475263706       -0.55586137064288
H           10.46800430453800        0.73657978367566        1.08964874759470
H            7.44012947715049       -4.17589334702602        1.70484868312916
H            5.83429516443759       -3.43932158467724        1.48828468984772
H            6.66973904048766       -4.18212163226327        0.09928927508493
H            5.12532136198898       -2.50505221780157       -0.49690496901679
H           -0.76473339055619       -1.59886574767168       -1.66521381626868
H           -1.64075099148107       -1.28273728870118       -0.13458102562142
H           -0.17856436493821       -2.35894524771969       -0.17719237081621
H           -4.88476137024639        2.96736133328760       -0.26076633232977
H           -4.31292730613403        3.13526524851248        2.71955748044103
H           -5.30153936744729        1.89177731701793        1.94698455825650
H           -5.82283007813162        3.57830021153598        1.93149475185064
H           -3.06017027168006        4.83868788324732        1.28609915742648
H           -3.30819456575306        4.85065275594728       -0.46646841498566
H           -4.63301199570510        5.26293843470595        0.61675909171956
H           -1.26375419889812        3.14211104491333        3.12873983245831
