25
 energy: 5.788734224525 xtb: 6.6.1 (8d0f1dd)
C            3.11382699674971        1.37553073167049        0.09810660708178
N            2.41264840403907        0.06622909032463        0.06295116423456
C            2.66910534283865       -1.32812008250666        0.05769273630770
N            1.45968625795482       -2.03224481211275        0.02961144164473
C            0.43936006819481       -1.15398931060748       -0.00452415116714
C            1.00219093768880        0.11009364759535        0.00258111770786
C            0.18716817221812        1.23946630009830       -0.08508280650187
O            0.56716224178511        2.39661389050468       -0.26350395658147
N           -1.21842090062041        0.97084359729438       -0.03746724173743
C           -2.10335635130079        2.12085095301205       -0.03762569545440
C           -1.79368196753105       -0.25432863447040       -0.05325759969151
O           -2.99458939403038       -0.42888277047372       -0.06972846840498
N           -0.91977178201445       -1.36179174492489       -0.04646698551271
C           -1.55276461377824       -2.65891828279029       -0.06957255184737
H            3.66333002051485        1.56502102935680        1.03475033406461
H            3.87221122898848        1.48649173579198       -0.70359488750478
H            2.35121302715139        2.15247926308019        0.00096105469105
H            3.60231507165415       -1.83459348058050        0.05929683662491
H           -1.51517088868490        3.02630566429722       -0.02827312269858
H           -2.70120793164740        2.14001497348667       -0.93725727728165
H           -2.70886311278838        2.12678651077993        0.85992189477370
H           -1.31812804965258       -3.23196070021837        0.82893282954943
H           -1.27309893292586       -3.22200246953863       -0.96094239328439
H           -2.62873228674564       -2.46374900674876       -0.09606974106501
H            1.33107012057821       -3.03652420635321        0.03104895460570
