25
 energy: -5.286731560662 xtb: 6.6.1 (8d0f1dd)
C            3.21476252512188        1.24893916167393        0.09156648084246
N            2.34081617613439        0.10069434284121        0.03173961849121
C            2.61862377097258       -1.26329681427390        0.03478023802059
N            1.41968193175541       -1.95909196424776        0.00594653102824
C            0.40593505010094       -1.08025001200111       -0.01085741861124
C            0.94663150603597        0.19458320693134        0.00630733202314
C            0.13652038750728        1.33906012228957       -0.02047375201140
O            0.52867119560987        2.50628734774902       -0.05430331465138
N           -1.25759837402510        1.02481171681896       -0.03124761220931
C           -2.18641432928020        2.13784713548739       -0.04512637715254
C           -1.82167293831020       -0.21270823243826       -0.04869881082099
O           -3.02315202968246       -0.39438831730514       -0.07003081175095
N           -0.94082564319494       -1.31162756232750       -0.04047361546570
C           -1.49948299845315       -2.64147208201282       -0.06330469435694
H            3.72325865073973        1.33377353946113        1.06074029623880
H            3.99166741898284        1.19425560340548       -0.68137462774415
H            2.59332388979472        2.13577758453748       -0.05552440682932
H            3.58390606186237       -1.70686179694191        0.04637500479732
H           -1.61963730109781        3.06381860896147       -0.02581698103942
H           -2.78573556326712        2.10595810491835       -0.95005028654289
H           -2.82454818247047        2.09338901828650        0.83288542332502
H           -1.21762821031455       -3.20134173467337        0.83071623296846
H           -1.18648169303181       -3.18410418825014       -0.95787520279423
H           -2.58273122532241       -2.52142533163443       -0.08079308872556
H            1.32296331716940       -2.95938578805701       -0.00868549429979
