25
 energy: 0.000000000000 xtb: 6.6.1 (8d0f1dd)
C            3.23720132972391        1.16630909158653        0.08434468864950
N            2.29877796055224        0.07527476373246        0.03981602671198
C            2.58028186251803       -1.21425391179017        0.03006175752192
N            1.43813944744728       -1.93419254010258        0.00098261751768
C            0.39035684826767       -1.05887462812143       -0.00790371763344
C            0.93510047688824        0.21347817468824        0.01709077332874
C            0.09450143016486        1.40504290868848       -0.00410946993748
O            0.49712746915594        2.54126690785742       -0.00342325656480
N           -1.25076628431515        1.06271869620815       -0.03085477937476
C           -2.21907191394203        2.15522079838987       -0.05001256521996
C           -1.81739470187490       -0.20012724136556       -0.04692818139228
O           -2.99983858926755       -0.37846413507442       -0.07008877579474
N           -0.92618577614240       -1.30210203518959       -0.03682761236648
C           -1.46982251276835       -2.64643077634382       -0.06029819901142
H            3.71247229913541        1.21471443890471        1.06488839270555
H            4.00791460421487        1.03430799217987       -0.67357688121503
H            2.69909982127087        2.09770098766290       -0.09130154035862
H            3.56654087521359       -1.63682977417947        0.04233139674524
H           -1.67107945562430        3.09322822573871       -0.02552706696334
H           -2.82428927394145        2.09428605349656       -0.95318074103337
H           -2.87644002486466        2.07745706351925        0.81450059976605
H           -1.17061985538665       -3.19584861009707        0.83242224714061
H           -1.14560246782873       -3.17511580834413       -0.95688266944647
H           -2.55549768731684       -2.55659960601237       -0.07459039105944
H            1.38130842369251       -2.94313824728853       -0.01389874052104
25
 energy: -5.679422865170 xtb: 6.6.1 (8d0f1dd)
C            3.26239799342686        1.16284274597399        0.09484688344462
N            2.31185264483481        0.10095122364421        0.03648110639624
C            2.60708885371122       -1.24610353932726        0.02693845564253
N            1.42269291935964       -1.94455148052890       -0.00834591851612
C            0.40591385259541       -1.06006494151573       -0.00368863757003
C            0.92002955681675        0.22948171282091        0.03039145360312
C            0.10475749633312        1.38724611942756        0.01022765756266
O            0.49144499710447        2.56057632672163        0.01640315266876
N           -1.29816187794887        1.06710573397042       -0.02410090040076
C           -2.26743796248723        2.17717758722384       -0.06763617930248
C           -1.82589880682662       -0.19145871231506       -0.02922847823971
O           -3.02176476594840       -0.40076396946275       -0.05215546663919
N           -0.93492556787390       -1.29352004792472       -0.01662851181478
C           -1.45213122626006       -2.64473183329640       -0.05290244137062
H            3.75404564176932        1.19511152645890        1.07318454158689
H            4.02638623224193        1.03128596820180       -0.67536718734873
H            2.72631294515433        2.09359760915566       -0.06507860316011
H            3.58404300335223       -1.66623638125201        0.03196373718116
H           -1.71949950501299        3.11842559570231       -0.04469789768286
H           -2.87485206090015        2.13609326205336       -0.97063226943025
H           -2.93245929358727        2.12471064928448        0.79410860427116
H           -1.13702955578158       -3.20574066114264        0.83083199976456
H           -1.12254978836125       -3.17350888984432       -0.95227172764615
H           -2.53783817469100       -2.57177093456399       -0.06050899879421
H            1.36152881937521       -2.94947852511568       -0.03377003826671
25
 energy: -3.541289292249 xtb: 6.6.1 (8d0f1dd)
C            3.28251420891676        1.14997879162243        0.10293669121298
N            2.32005314800324        0.09832099681093        0.03647154101520
C            2.61320617761722       -1.25443645232341        0.01996475305186
N            1.42355384564889       -1.94837786239659       -0.02487752207518
C            0.41253962988365       -1.05794906379254        0.00134569809781
C            0.92029734577719        0.23342968007920        0.04714509792354
C            0.09235252978737        1.38764714006012        0.02920736712634
O            0.48169731944935        2.55944001147760        0.04690817512175
N           -1.32836285479964        1.08525799905770       -0.01867605951542
C           -2.31485375130579        2.20661544894566       -0.09022528548096
C           -1.83485702242200       -0.18499173701238       -0.01141915510937
O           -3.02621641519192       -0.41839912696387       -0.02641820976476
N           -0.93084768141303       -1.28413585504824        0.00234890247748
C           -1.43280244006106       -2.64444880343635       -0.04481503273160
H            3.78716713751130        1.16670312100051        1.07641785363851
H            4.04124895798654        1.02326056309342       -0.67459368561499
H            2.75443015423901        2.08645379632882       -0.04002759498061
H            3.58887043393507       -1.68522266154456        0.01417062910820
H           -1.77585481134286        3.15423705958859       -0.06893681925511
H           -2.92106023857470        2.17279415257237       -0.99482735541954
H           -2.98745706805415        2.17178207776255        0.76746453702442
H           -1.10365864729454       -3.21215734890559        0.83032067761451
H           -1.10034955118702       -3.16677317637809       -0.94844908302653
H           -2.51925611896538       -2.58900389440608       -0.04575742187486
H            1.35610864241882       -2.95346834658498       -0.06145679935771
25
 energy: 0.016207717488 xtb: 6.6.1 (8d0f1dd)
C            3.30184655490958        1.13514860179340        0.11003040094639
N            2.32895225745258        0.09256821045175        0.03180854601039
C            2.61885823702227       -1.26422740192841        0.01011348676462
N            1.42414957112614       -1.95192472731619       -0.04466753929425
C            0.41860818680542       -1.05579960798777       -0.00283795865310
C            0.92392706058877        0.23508552731235        0.04947205170434
C            0.08027370749961        1.38912311669155        0.04647633890711
O            0.47269496991217        2.55888282641951        0.07731079653681
N           -1.35775099342570        1.10421799486809       -0.01520080686670
C           -2.36455552154119        2.23632055399940       -0.11593397676375
C           -1.84394577428946       -0.17713179323857        0.00667790053001
O           -3.03024863464480       -0.43395431223366       -0.00021997644673
N           -0.92665171875767       -1.27378015729543        0.01985505989067
C           -1.41354173078748       -2.64314656544047       -0.03666135427666
H            3.81609997404676        1.13358518326364        1.07970420736214
H            4.05618226217159        1.01261745900589       -0.67333873556497
H            2.78488849359838        2.07942588662830       -0.01528345256636
H            3.59241139263741       -1.70349458974069       -0.00789422118585
H           -1.83148792808883        3.18811581343232       -0.09483249998558
H           -2.96911247894319        2.20956008279884       -1.02415675825824
H           -3.04281603804991        2.21485327853208        0.73823568337795
H           -1.06907124744482       -3.21445309496191        0.83095064334383
H           -1.07816781166577       -3.15893075313243       -0.94440757709915
H           -2.50067139284356       -2.60690851598256       -0.03031774833657
H            1.35337368637089       -2.95693903899828       -0.08980452642534
25
 energy: 4.934539361913 xtb: 6.6.1 (8d0f1dd)
C            3.31855282538047        1.11898490072642        0.11629482351306
N            2.33518009095391        0.08491871980877        0.02287073971892
C            2.62227355845614       -1.27467821588573       -0.00316861380843
N            1.42363485416515       -1.95586523826149       -0.06772068131751
C            0.42199770117102       -1.05539744027254       -0.02096274731010
C            0.92603825691756        0.23495382692170        0.03846910061972
C            0.06828770241079        1.39128598096047        0.06275087241677
O            0.46544437080781        2.55797114563106        0.11067974469434
N           -1.38770679504595        1.12380902532239       -0.01023029863550
C           -2.41530290608842        2.26844709673800       -0.14259255207224
C           -1.85361096710607       -0.16832962777899        0.02374412129823
O           -3.03420455565360       -0.44812405341327        0.02558662366119
N           -0.92199638679103       -1.26571478577669        0.02282047745649
C           -1.39369153893156       -2.64362390680016       -0.03009461049015
H            3.84130709071748        1.09778214437512        1.08234522719076
H            4.06889273633579        1.00194559474066       -0.67251539013899
H            2.81417293553978        2.07182243515752        0.01037987835899
H            3.59358063342901       -1.72115418006834       -0.03424598464407
H           -1.88343168150444        3.22112485695802       -0.12051900581222
H           -3.01590620666256        2.24742247751861       -1.05650392053564
H           -3.09935574926705        2.25748754316682        0.70682846994199
H           -1.03147725675535       -3.21341721830956        0.83210281159986
H           -1.05474626908102       -3.15592124574730       -0.93934475000576
H           -2.48128463645676       -2.62955087756696       -0.01446626187241
H            1.35172857284833       -2.96076004953095       -0.11749166759394
25
 energy: 11.160534475519 xtb: 6.6.1 (8d0f1dd)
C            3.33519635307709        1.10204089051140        0.12350298083869
N            2.34077139770042        0.07706103963994        0.01604159081724
C            2.62625214167307       -1.28373212443156       -0.01807251961131
N            1.42638675763998       -1.95962299064811       -0.08972786975401
C            0.42604928133428       -1.05734520177869       -0.03835138630675
C            0.92775258304385        0.23368615210212        0.02754211513404
C            0.05939666336337        1.39541557517756        0.06710783503554
O            0.46115035103460        2.55723381120449        0.14030779941870
N           -1.41686307647765        1.14252168363187       -0.01312317407049
C           -2.46824611003445        2.30305176671185       -0.16616079717262
C           -1.86242864668756       -0.16041154859917        0.03398914597136
O           -3.03653832428669       -0.46314949095636        0.05374298449404
N           -0.91729080903693       -1.26348442038455        0.00992615968499
C           -1.37595545166209       -2.64588478690399       -0.02463132239284
H            3.86724341786060        1.06111971538637        1.08510112943515
H            4.08101360812855        0.98820834210731       -0.67069526426886
H            2.84474283771880        2.06363033338755        0.03586762320582
H            3.59528958419436       -1.73538549835817       -0.06259532517555
H           -1.94228209932646        3.25978860907136       -0.14562633746204
H           -3.06462137159621        2.28070072884000       -1.08536702491958
H           -3.15721937669570        2.30084267720740        0.67795489016245
H           -0.99638630338931       -3.21342436171097        0.83299434396550
H           -1.03494100257306       -3.15230030186409       -0.93632258093903
H           -2.46352670245655       -2.64868716736503        0.00176104654599
H            1.35460264283533       -2.96415823480100       -0.14666266186500
25
 energy: 18.878550213258 xtb: 6.6.1 (8d0f1dd)
C            3.35270320133620        1.08527781235225        0.13053897387388
N            2.34969258930146        0.06873692321986        0.00816762097357
C            2.63260213674847       -1.29199693712191       -0.03494806029429
N            1.43469993603256       -1.96426935542241       -0.10715677808474
C            0.43292001006560       -1.06317563294907       -0.05352390407159
C            0.93383572630982        0.22824326448318        0.01751176153979
C            0.06505720014831        1.39270726032398        0.06042539036282
O            0.46762966669271        2.54999222494004        0.16675628750240
N           -1.44107308732012        1.16061986971156       -0.02457204672034
C           -2.52172009922425        2.33991633623863       -0.18971411448352
C           -1.86601647887505       -0.15129230739586        0.03415656322671
O           -3.03345396349765       -0.47638289857851        0.08070364030099
N           -0.90959442120754       -1.26348548710099       -0.00023386864591
C           -1.35811874592670       -2.64854558500889       -0.01844666932285
H            3.89227421234177        1.02383939499873        1.08783153510815
H            4.09366937320154        0.97443433374834       -0.66880661549013
H            2.87553914877534        2.05487466773922        0.06093593191408
H            3.59872827682677       -1.74786872637167       -0.09333720785883
H           -1.99959174428947        3.29816321804479       -0.16880171195758
H           -3.11675170567358        2.31712346666876       -1.11250819361053
H           -3.21425954002194        2.34111918010019        0.64930998058428
H           -0.96154947667737       -3.21359283513885        0.83432040353510
H           -1.01545782146046       -3.14845385502355       -0.93291013868093
H           -2.44546529213241       -2.66709588442162        0.01843022031000
H            1.36470177615308       -2.96802089230845       -0.17536175217878
25
 energy: 27.860274077813 xtb: 6.6.1 (8d0f1dd)
C            3.37037378239126        1.06860649987741        0.13741450603226
N            2.36022558723660        0.06069097114205        0.00041681950349
C            2.63977701641224       -1.29893846301480       -0.05486322680389
N            1.44608271693280       -1.97177536437285       -0.11883999629595
C            0.44307556349410       -1.07183638632372       -0.06495345672834
C            0.94288934228088        0.21993983372772        0.01082002420800
C            0.07572405604118        1.38638620332191        0.05810369825556
O            0.48076034552982        2.53923368025501        0.19149898756289
N           -1.44947595916514        1.16957961915950       -0.05348079771988
C           -2.57337552854303        2.38076193132988       -0.21148804640890
C           -1.85909481401748       -0.14830927954791        0.03839441248132
O           -3.02253312017233       -0.48719501824226        0.11053554762849
N           -0.89814706111859       -1.26714812384886       -0.00572617598165
C           -1.33970696291634       -2.65251326237891       -0.01136772123198
H            3.91507159004003        0.98583574854824        1.09085101922806
H            4.10656140300628        0.96062578867390       -0.66659300023237
H            2.90626495500821        2.04547876635462        0.08526033148278
H            3.60311212703948       -1.75639070072101       -0.12561597880821
H           -2.05543570198082        3.33897912909477       -0.18835456049812
H           -3.16967309065677        2.35605981045046       -1.13488331321141
H           -3.26989468979175        2.37832461067568        0.62177386799323
H           -0.92644384172170       -3.21385900605521        0.83630624390093
H           -0.99556572952587       -3.14412579281824       -0.92920601944690
H           -2.42674478260463       -2.68496968761938        0.03549107870444
H            1.38158771092411       -2.97373295566918       -0.19883378327866
25
 energy: 39.176596259096 xtb: 6.6.1 (8d0f1dd)
C            3.39000282174630        1.05102081595453        0.14510759080629
N            2.37179287116691        0.05361352649235       -0.00721244642413
C            2.64625660276019       -1.30168253341346       -0.06727127289371
N            1.45895062054171       -1.97992358116724       -0.12530476594795
C            0.45484267690113       -1.08179401048562       -0.07263694150044
C            0.95611404990513        0.20947855735475        0.00532079466014
C            0.09287702876094        1.37874140538030        0.06095755092386
O            0.50384028967724        2.52813451706351        0.20705112865748
N           -1.43164923858242        1.16330311452211       -0.06321144677138
C           -2.63598440226791        2.42981642443561       -0.22826130445351
C           -1.84422998752108       -0.15160318723787        0.04595547737078
O           -3.00706191345054       -0.49285068009398        0.13636253613754
N           -0.88414927167942       -1.27510666285239       -0.00950074767052
C           -1.32073353883463       -2.65794723681771       -0.00365012868833
H            3.93920779134548        0.94567355943134        1.09490646586870
H            4.12177205655024        0.94337025977084       -0.66278999773265
H            2.94053700861843        2.03465735929251        0.10933331776623
H            3.60594262474914       -1.76184051082424       -0.15611726249724
H           -2.11906831948317        3.38449508701702       -0.20266595863303
H           -3.22646642162767        2.39619255785071       -1.15275810095663
H           -3.33318540689455        2.41449672737877        0.59890316880799
H           -0.89079778852006       -3.21347470975413        0.83928648863034
H           -0.97524938359069       -3.14144561037423       -0.92453633031789
H           -2.40759969164326       -2.70200931516643        0.05223318918604
H            1.40448137122888       -2.98026601464643       -0.21221696654043
25
 energy: 54.542500334303 xtb: 6.6.1 (8d0f1dd)
C            3.40600473183427        1.03285246887322        0.15107119467805
N            2.38766005773224        0.02781781024564       -0.00581197636819
C            2.66249739938368       -1.29634190609110       -0.07557685294192
N            1.49163882004401       -1.99939312615058       -0.12968683856488
C            0.47003260993957       -1.09983288815477       -0.07415917093409
C            0.99487225898090        0.17427485645815        0.00118571947524
C            0.08711261947234        1.35313540900998        0.07413635585294
O            0.52585473891018        2.48640931437464        0.22138442551526
N           -1.30413448666733        1.08316162212863       -0.01496586764546
C           -2.82161203497752        2.61760433294496       -0.26626075698585
C           -1.80261592440296       -0.16203492450440        0.06280270111250
O           -2.96578485576994       -0.49182349237564        0.16647367210087
N           -0.84571108516761       -1.31569844904598       -0.01376199226410
C           -1.29702406457276       -2.68215134189713        0.00488520892586
H            3.95479901041029        0.90758771553937        1.09702586957970
H            4.13212034990639        0.92968998843927       -0.65973426722663
H            2.96528564358993        2.02157803109457        0.13157223311568
H            3.61954294027317       -1.75247322776170       -0.18221789929505
H           -2.18774694527503        3.46967536078401       -0.21831973618359
H           -3.32831497305081        2.48522711244388       -1.19735831999177
H           -3.43462004990307        2.47725773099978        0.58564691381552
H           -0.85635631090919       -3.22476217802969        0.84661829767844
H           -0.96584529837856       -3.16392645243402       -0.91706879653297
H           -2.38583821280868       -2.71686517948123        0.07050680880631
H            1.43899818214847       -2.99749888176964       -0.21417477671254
25
 energy: 56.822123026433 xtb: 6.6.1 (8d0f1dd)
C            3.42299929637886        1.01338321175748        0.15712319690092
N            2.39919762647130        0.01199050821278       -0.00367566155456
C            2.67680851457902       -1.29928917230681       -0.07325005154069
N            1.51613736047471       -2.01108748452166       -0.12983901958667
C            0.48503536139024       -1.11618895680136       -0.07309883638192
C            1.01543659941504        0.15680340173433        0.00491399618530
C            0.10268686366536        1.33914077534700        0.08154051816613
O            0.55130910315138        2.46826895536834        0.23405849780030
N           -1.26592602540372        1.06321107928179       -0.00062637058682
C           -2.91372990979146        2.70000464503972       -0.27991755592948
C           -1.78056763281238       -0.16446616028851        0.07206581364228
O           -2.94102268363659       -0.49482833421356        0.19107673537828
N           -0.82432092027549       -1.33540062943213       -0.01839360606227
C           -1.28033284292022       -2.69550130687118        0.01338121906491
H            3.96945212753569        0.86468060945807        1.09993474123139
H            4.14471549342284        0.91260831394288       -0.65693889186679
H            2.99510955992121        2.00705062292786        0.15236683607893
H            3.63567477838352       -1.73871439353080       -0.20354913217905
H           -2.24849162432478        3.52083230591430       -0.22394549992143
H           -3.39377549745075        2.54394977261280       -1.21575458393492
H           -3.50978996054248        2.51739566582494        0.57094950710221
H           -0.82371658916276       -3.22574119273745        0.85270447827008
H           -0.97406367711956       -3.18696837058947       -0.91170706279476
H           -2.36829816359342       -2.73084080990107        0.09169703340465
H            1.46721034237689       -3.00965052250737       -0.20837431511690
25
 energy: 58.081098814241 xtb: 6.6.1 (8d0f1dd)
C            3.43720990220815        0.99484906862940        0.16400358772819
N            2.41014430428808       -0.00323601441258       -0.00094998029856
C            2.69349926833481       -1.30491577085477       -0.06981530730948
N            1.54045234139678       -2.02457856433658       -0.12831438060400
C            0.50084216329673       -1.13545068215990       -0.07190378050974
C            1.03354749942941        0.13840892836260        0.00739208496451
C            0.12072155495005        1.32231260818639        0.08970769487788
O            0.57756794723586        2.44867248997297        0.24508217074159
N           -1.23490109485856        1.04589920662731        0.01348526570606
C           -2.99626058092993        2.77686912876397       -0.28843744512265
C           -1.75921100607043       -0.16967267954642        0.08019870131036
O           -2.91715566553080       -0.50175898557432        0.21281841507543
N           -0.80458090978487       -1.35606745531733       -0.02194744159781
C           -1.26796665821131       -2.71205680632213        0.02145832234398
H            3.98007874123688        0.82397737455219        1.10399212535329
H            4.15490824614565        0.89837779722396       -0.65330128512400
H            3.02006352379678        1.99180096074005        0.17376793676866
H            3.65872023057334       -1.72283241361599       -0.21499231798493
H           -2.30644359105588        3.57323138635093       -0.22539462701363
H           -3.45480207905202        2.60355061114995       -1.22923354507819
H           -3.58013193675329        2.56429160047921        0.56301590289248
H           -0.79388558302500       -3.22641027603371        0.85923140692949
H           -0.98433957259481       -3.21059736164257       -0.90705122963447
H           -2.35372080016715       -2.74505607604877        0.11311436964235
H            1.49602354471353       -3.02356322882504       -0.20656292221882
25
 energy: 58.834663579928 xtb: 6.6.1 (8d0f1dd)
C            3.44997802166290        0.97512280967259        0.17237097104878
N            2.42064386379422       -0.01973693394010        0.00152348518579
C            2.71048595438073       -1.31510093263003       -0.07262067000337
N            1.56228352381013       -2.03934381087159       -0.12875296846413
C            0.51637314690065       -1.15506740108795       -0.06964445973452
C            1.04928688631125        0.11972459926657        0.01108063753973
C            0.13387097247070        1.30396535280886        0.09757187735696
O            0.59811929742404        2.42756156276117        0.25480299063769
N           -1.21026740872116        1.02829368241386        0.02444629990290
C           -3.07041147943880        2.85112777066317       -0.29856557073452
C           -1.73867335492853       -0.17799880888145        0.08866210386003
O           -2.89499332520564       -0.50935113917945        0.23025054300280
N           -0.78610087639238       -1.37669020402516       -0.02344196288096
C           -1.25350784498888       -2.73019824461876        0.02749785322770
H            3.98890237841852        0.78290593531639        1.10964466047283
H            4.16398904527618        0.88281876904793       -0.64782362891129
H            3.04250778613021        1.97485281302606        0.19845405411683
H            3.68333149511319       -1.71066977859520       -0.22559373979919
H           -2.36005896771083        3.62613585181924       -0.23090095122561
H           -3.51301177649851        2.66359125346544       -1.24222493571067
H           -3.64411345500149        2.61672425646826        0.55276405683557
H           -0.76065081547055       -3.23250939981746        0.86194882402820
H           -0.98863949837682       -3.23277712756393       -0.90446031789465
H           -2.33753661200772       -2.76091476172915        0.13558142536165
H            1.52243724361068       -3.03845331336208       -0.20488193981534
25
 energy: 58.968483280280 xtb: 6.6.1 (8d0f1dd)
C            3.46144837898858        0.95399594140032        0.18094194448312
N            2.43073012824174       -0.03706960818207        0.00321931609849
C            2.72559704051101       -1.32787246719048       -0.07851485385786
N            1.58144344165117       -2.05475743034829       -0.12892749360863
C            0.53035341534538       -1.17416505093904       -0.06515887449652
C            1.06317478238339        0.10134664897016        0.01597215190531
C            0.14516495406661        1.28636203765118        0.10586383972199
O            0.61870503985819        2.40683998140195        0.26088147187914
N           -1.18786992866152        1.01099863189207        0.03760328010961
C           -3.14113778139767        2.92115074989192       -0.30517291191343
C           -1.71944932765903       -0.18798843202938        0.09529627058828
O           -2.87331878909547       -0.51726809705088        0.24509404160828
N           -0.76975632927605       -1.39877183019241       -0.02266427983192
C           -1.24556479877766       -2.74982835355247        0.02842061638756
H            3.98934205295939        0.74018858642388        1.11753276642299
H            4.17403401396715        0.86718642128551       -0.64047525254109
H            3.06015764513656        1.95409066918397        0.22518810449654
H            3.70767509819361       -1.70753386143925       -0.22042644651801
H           -2.41461328168938        3.67921409525440       -0.23599982248406
H           -3.57073027352827        2.72147017978907       -1.25122480110888
H           -3.70571493032017        2.67168648496092        0.54845564394986
H           -0.74570616944966       -3.26025217658011        0.85362283872322
H           -0.99903734102341       -3.25367539817861       -0.90729112890984
H           -2.32689187338530       -2.77282597042816        0.15872778590534
H            1.54740217587723       -3.05392339485641       -0.20128089595707
25
 energy: 58.766223808884 xtb: 6.6.1 (8d0f1dd)
C            3.47180648684765        0.93196445598199        0.18895330581372
N            2.43993067543677       -0.05614057888975        0.00713261421463
C            2.73871274517934       -1.34367912455838       -0.08786502927331
N            1.59758390448478       -2.07132960556991       -0.12900963323241
C            0.54281158497268       -1.19281422675338       -0.05547258113657
C            1.07628280482972        0.08283645391740        0.02505581177984
C            0.16051405456026        1.26990577980227        0.11663229015002
O            0.64114969158840        2.38762682801285        0.26864792306936
N           -1.16510018654577        0.99298827926419        0.05305426489682
C           -3.20859734770766        2.99241813696418       -0.30977745113767
C           -1.70213974072817       -0.19961498328833        0.10753720133753
O           -2.85398650929080       -0.52701536119523        0.26001304467810
N           -0.75504596143313       -1.42140780300513       -0.01964443214124
C           -1.23950356006501       -2.76999972367285        0.02818901125672
H            3.99240276234372        0.69920013615026        1.12248161505515
H            4.18371768732829        0.85267308722806       -0.63268007544737
H            3.06999638906860        1.92903420688783        0.24509711066131
H            3.72724356447848       -1.72053268048047       -0.20616251798997
H           -2.46862772445412        3.73645386523393       -0.23878587642433
H           -3.62527710733909        2.77829493829560       -1.25857135231864
H           -3.76604949698918        2.72994306207316        0.54553641738716
H           -0.74170454774451       -3.29302315778722        0.84645688175640
H           -1.00739278743545       -3.27537202148091       -0.91031512701346
H           -2.31825398215407       -2.78254467481279        0.18017844048842
H            1.57012688953829       -3.07072485623774       -0.19959143403571
25