25
 energy: 0.000000000000 xtb: 6.6.1 (8d0f1dd)
C            3.23720163006194        1.16630919979326        0.08434469647475
N            2.29877817382611        0.07527477071623        0.03981603040599
C            2.58028210190900       -1.21425402444508        0.03006176031096
N            1.43813958087363       -1.93419271955128        0.00098261760884
C            0.39035688448383       -1.05887472636071       -0.00790371836672
C            0.93510056364412        0.21347819449412        0.01709077491437
C            0.09450143893243        1.40504303904423       -0.00410947031874
O            0.49712751527797        2.54126714362870       -0.00342325688240
N           -1.25076640035757        1.06271879480407       -0.03085478223738
C           -2.21907211982101        2.15522099834493       -0.05001256985998
C           -1.81739487048744       -0.20012725993278       -0.04692818574614
O           -2.99983886758376       -0.37846417018721       -0.07008878229737
N           -0.92618586207120       -1.30210215599479       -0.03682761578324
C           -1.46982264913417       -2.64643102187190       -0.06029820460571
H            3.71247264356769        1.21471455160235        1.06488849150277
H            4.00791497605742        1.03430808813993       -0.67357694370751
H            2.69910007168542        2.09770118228144       -0.09130154882931
H            3.56654120610678       -1.63682992603973        0.04233140067262
H           -1.67107961066214        3.09322851271934       -0.02552706933167
H           -2.82428953597071        2.09428624779827       -0.95318082946668
H           -2.87644029173232        2.07745725625962        0.81450067533302
H           -1.17061996399332       -3.19584890659852        0.83242232437030
H           -1.14560257411436       -3.17511610292205       -0.95688275822323
H           -2.55549792440841       -2.55659984320617       -0.07459039797972
H            1.38130855184625       -2.94313852034425       -0.01389874181052
25
 energy: -4.577279673823 xtb: 6.6.1 (8d0f1dd)
C            3.25509433076933        1.16491781341738        0.08989542507403
N            2.31443463718999        0.08733892758785        0.03832040092505
C            2.60721068866195       -1.24067702316466        0.02396467519114
N            1.43549976002135       -1.94795664679635       -0.00493989967130
C            0.40369216254542       -1.06213797806319       -0.00679938080664
C            0.93423548560451        0.21734235804530        0.02000368849892
C            0.09960327221747        1.39358862696785        0.00394622308641
O            0.50545662903487        2.55574758952804        0.00483471681822
N           -1.27134569268980        1.06284670604032       -0.02528242244328
C           -2.24948492308781        2.17103356259329       -0.05947316281990
C           -1.82029771794103       -0.19942498119799       -0.03797562574999
O           -3.01502621845928       -0.39105964351407       -0.05958190214597
N           -0.92722638033970       -1.30320491321178       -0.03215724318940
C           -1.45865560897622       -2.64987104639121       -0.05727298820855
H            3.73676425184174        1.20392316889977        1.07071665606816
H            4.02154964857110        1.03109018699263       -0.67523419525427
H            2.71079883946650        2.09154701485664       -0.07985063447784
H            3.58628457822493       -1.66718068813001        0.03148253005150
H           -1.71072175295664        3.11754487060602       -0.03737645795507
H           -2.86449559459638        2.13293219887383       -0.96178839741692
H           -2.92600249941795        2.12346593520502        0.79669899112576
H           -1.14988479690838       -3.20535547219028        0.83097919597688
H           -1.13203861023061       -3.17973713714715       -0.95480128582151
H           -2.54413175128173       -2.56542438185746       -0.06715807069541
H            1.37090193067260       -2.95226044577780       -0.02411694001270
25
 energy: -2.514094960432 xtb: 6.6.1 (8d0f1dd)
C            3.28549996197034        1.14821077732536        0.10069480387914
N            2.32983220185919        0.09164122039942        0.03578855786299
C            2.63035356272214       -1.26953394458159        0.00922645790135
N            1.43076701780513       -1.95843738752161       -0.01816569660746
C            0.41805292015895       -1.06445794514534       -0.00443794681109
C            0.93128320305720        0.22207664657768        0.02791257299773
C            0.09876159444040        1.37889738508098        0.02046789169831
O            0.50259333265418        2.55518253382031        0.02472742478280
N           -1.30898509764717        1.07504166199899       -0.01512361663966
C           -2.30183382329613        2.20382393470583       -0.07995364266713
C           -1.82330250537410       -0.19451603918434       -0.02006573044804
O           -3.02103263308467       -0.41393698402369       -0.03455112044758
N           -0.92629120761905       -1.29863626438177       -0.02102918367032
C           -1.43352638915915       -2.65375284401931       -0.04934226902103
H            3.78392938320149        1.17027365916436        1.07721209342723
H            4.04629689672383        1.02004734404162       -0.67462797129845
H            2.74515515313154        2.07908965891516       -0.05090256948392
H            3.60249890929676       -1.70275963122694        0.00493772145205
H           -1.77813684474777        3.16249332623669       -0.06324704147806
H           -2.92330572424336        2.18799121131009       -0.98477964714723
H           -3.00995143488389        2.19887481729648        0.75987886644994
H           -1.10438623821657       -3.21818534053759        0.82934038340346
H           -1.10376690117994       -3.18088524108281       -0.95029828068499
H           -2.51969600461529       -2.58876834874350       -0.04879356850612
H            1.36140533498215       -2.96074560425243       -0.04783459279669
25
 energy: 5.000618608773 xtb: 6.6.1 (8d0f1dd)
C            3.32492173426466        1.11674375576560        0.11670090791655
N            2.34144329214285        0.08806542873793        0.03253788735204
C            2.64288134701989       -1.29454486664368       -0.01363702155516
N            1.42662368907227       -1.96595387351142       -0.03918305963734
C            0.42899702159371       -1.06514298229968       -0.00137360201695
C            0.92756548936446        0.22776397159930        0.04015618016909
C            0.08972357097975        1.37359276189753        0.04326740770059
O            0.49144480361594        2.55365881046890        0.05709789276171
N           -1.35618720506637        1.09981099559894       -0.00339519794495
C           -2.37066774923110        2.24824690779886       -0.11132094844580
C           -1.83068400176922       -0.18617808415097        0.00522109573022
O           -3.02516813866186       -0.44256531715956        0.00462594307637
N           -0.92318774216241       -1.28891357471686       -0.00361128530849
C           -1.39630783570289       -2.65791235220675       -0.03538712159733
H            3.84632701652516        1.10447874256552        1.08537193643715
H            4.07660700010570        0.99523838458549       -0.67159220144132
H            2.80449747427530        2.06397911237762       -0.00283754486975
H            3.61075938572122       -1.73619568998190       -0.03854829570782
H           -1.86838414815439        3.22218502925817       -0.10212961192863
H           -2.99032881170467        2.24451092550124       -1.02358536583577
H           -3.11539152120659        2.28747485165049        0.70578871715505
H           -1.03381915908716       -3.22846897453701        0.82992767752267
H           -1.06261534544099       -3.17396335811026       -0.94380970115037
H           -2.48387520891580       -2.62826717893184       -0.01690676105340
H            1.35703971035875       -2.96861482338353       -0.08634403118105
25
 energy: 18.944827048293 xtb: 6.6.1 (8d0f1dd)
C            3.37602276463691        1.06819368344610        0.13938045930345
N            2.35158979249380        0.07831307163738        0.02708847008615
C            2.64825539360734       -1.31611373536015       -0.04303964760496
N            1.42496031586453       -1.97193797258454       -0.06868927701206
C            0.43833150344761       -1.06475560849787        0.00074061830294
C            0.92418946867103        0.23389542386572        0.05438525457469
C            0.07499692022470        1.37682001528928        0.06915249103484
O            0.47748088755026        2.55157485290497        0.10353783634818
N           -1.41455367985560        1.13685641212945        0.00579062385665
C           -2.46397431590619        2.30881742716794       -0.15415700938513
C           -1.84293286983502       -0.17406429232007        0.03586648949170
O           -3.02798500443480       -0.47725889154549        0.06011164153195
N           -0.91741718714826       -1.27456843523125        0.01907742912466
C           -1.34569695336086       -2.66292362154447       -0.01404037828649
H            3.92317809764417        0.99898117430981        1.09703934760330
H            4.11400469107947        0.95277803391126       -0.66524336661359
H            2.89285231035007        2.04263739425120        0.06724325703533
H            3.61365903013406       -1.76631277377388       -0.09994902823149
H           -1.99238139170346        3.30328509132352       -0.15360747496311
H           -3.07672695471353        2.31019874987976       -1.07815712110421
H           -3.24816249748404        2.39173137862604        0.63376369641075
H           -0.93500465511338       -3.23464610673890        0.83379835645101
H           -1.00919962047371       -3.16037512021881       -0.93421992861010
H           -2.43384544006817       -2.68600910713900        0.03187318526849
H            1.36057406232927       -2.97608844161585       -0.14071202846563
25
 energy: 34.839882192178 xtb: 6.6.1 (8d0f1dd)
C            3.42161397300360        1.01605022900744        0.16128532803314
N            2.35876539306799        0.06399774616225        0.01957627589886
C            2.64538549730947       -1.32291708066759       -0.06461423068398
N            1.43082781791730       -1.97425565012568       -0.09553016881999
C            0.44404644036431       -1.06546846541825       -0.00225782796906
C            0.92553239192841        0.23530263348103        0.06135538529641
C            0.06363750807492        1.38617833086773        0.08347413067959
O            0.47235811085119        2.54562781457172        0.14860940227308
N           -1.46247791379858        1.17256995700972        0.00300581539630
C           -2.55730653376236        2.37074870723280       -0.19184100100073
C           -1.85485550065448       -0.16279756769067        0.05695250727046
O           -3.02453744757829       -0.50524567598970        0.11312073856534
N           -0.90878119029836       -1.26267501198466        0.03546596342738
C           -1.29994974969204       -2.66796570812824        0.00773518638561
H            3.98040989766098        0.88687032910657        1.10814820321907
H            4.14729877778556        0.90495738067252       -0.65496993982330
H            2.98189688846536        2.01501583110509        0.13376730896919
H            3.61133797918313       -1.77592666204385       -0.15623552958506
H           -2.11670409105687        3.38434397070000       -0.19630100331709
H           -3.16416234705865        2.37138046694843       -1.12585918973037
H           -3.36471013104677        2.47406003633707        0.57224173896780
H           -0.84462446189017       -3.23090718742566        0.84064126076241
H           -0.96672304426752       -3.14871435209765       -0.92330645845074
H           -2.38417909867018       -2.74118931828017        0.08185024935115
H            1.37811550209820       -2.98001215117805       -0.18928024896816
25
 energy: 47.333388831350 xtb: 6.6.1 (8d0f1dd)
C            3.44777499472739        0.97652780852511        0.17606070144783
N            2.36455905404433        0.04907608289364        0.01174396972320
C            2.63958588229248       -1.31236975492788       -0.07102218423328
N            1.44532197092355       -1.97420042997246       -0.11111389806198
C            0.44686711881798       -1.06964339097436       -0.01370778275162
C            0.93438857889511        0.22885152877536        0.05655085905238
C            0.06417832707562        1.39435459436131        0.08103303557999
O            0.48454004979397        2.53535253491368        0.18286598993073
N           -1.48274462538044        1.19289194931830       -0.01230396302123
C           -2.62861126207242        2.42109130191940       -0.21287529756223
C           -1.86124729044485       -0.15661120613386        0.06101170501995
O           -3.01403385416621       -0.51818745264891        0.14886456840630
N           -0.89847822950726       -1.25994919003662        0.03669000535581
C           -1.27489189415840       -2.67325298314683        0.02285154603574
H            3.99684894275382        0.80478584956847        1.11520074903782
H            4.16765949733061        0.86747707772855       -0.64279547644979
H            3.04128662681788        1.98442426203246        0.17409290215524
H            3.60860574815306       -1.75942900396841       -0.18990991267767
H           -2.20951847669185        3.44590961017273       -0.21643501901650
H           -3.23373997311999        2.41976405326481       -1.15129841267906
H           -3.43821113090038        2.51515120272396        0.54133290982470
H           -0.79296705497374       -3.21889551177691        0.84800971123695
H           -0.95257333736204       -3.14877329345751       -0.91321671152220
H           -2.35017475129241       -2.77472027780244        0.11853848495285
H            1.40778975638035       -2.98059675917935       -0.21313458363663
25
 energy: 56.992367031314 xtb: 6.6.1 (8d0f1dd)
C            3.45987300224041        0.95800799543223        0.18539980600390
N            2.37167246119195        0.04214150387919        0.00575991204919
C            2.64300227705843       -1.30484002928098       -0.07425990570893
N            1.45819380262958       -1.97854527449617       -0.11984478567741
C            0.45158412244677       -1.07562934585072       -0.02968149977575
C            0.94380572313033        0.22131392734482        0.04719677780446
C            0.07286141558673        1.39318489347087        0.07565262803002
O            0.50538423540123        2.52761806614355        0.20913822347759
N           -1.48454863259879        1.19729565826391       -0.02624313217255
C           -2.67621829739032        2.45780598929591       -0.22547462406679
C           -1.86156726413067       -0.15403840477843        0.05949879304565
O           -3.00665108359445       -0.52331580820603        0.17247954217186
N           -0.89081486077249       -1.26401399415862        0.02870692774765
C           -1.26587541362424       -2.67936061579322        0.03111071437276
H            3.99999876466214        0.75778198064266        1.12080420692127
H            4.17773738245973        0.84880777204524       -0.63498288480446
H            3.06841291445371        1.96739876317353        0.19841650048917
H            3.61400401499585       -1.74393511476646       -0.20700932777796
H           -2.26967075766370        3.48846916959086       -0.22584899940331
H           -3.28217266539607        2.45996079483035       -1.16477091248376
H           -3.48844057150333        2.54173561538170        0.52758236590264
H           -0.76697633770493       -3.21335948627830        0.85224791517070
H           -0.95560664324667       -3.16040302217615       -0.90568670853842
H           -2.33589291549165       -2.79063137844959        0.14521498022775
H            1.43011999479658       -2.98442105308791       -0.21837261685799
25
 energy: 72.489656278170 xtb: 6.6.1 (8d0f1dd)
C            3.46675967269104        0.94299715300749        0.19443662829873
N            2.38469802440469        0.03198361564025       -0.00252282840837
C            2.65622315281726       -1.29620508405739       -0.07175384039991
N            1.48419491664742       -1.99321973333847       -0.12558648928090
C            0.46305961011618       -1.09243346073562       -0.05673308964569
C            0.96289324800685        0.20189643232988        0.02932685614754
C            0.09690133065040        1.38150169448157        0.06712259424133
O            0.55133725626259        2.50633657599786        0.24016742055457
N           -1.46818267576322        1.19061478496645       -0.04687779646243
C           -2.74913173528808        2.52421315732570       -0.23979109624140
C           -1.85327196652134       -0.15383030281682        0.05655424270818
O           -2.98878565969040       -0.52554592740255        0.20156412960596
N           -0.87527973749117       -1.28097894403093        0.00870359637753
C           -1.26288182366799       -2.69354173511209        0.03693674631930
H            3.99018777674884        0.71533428764511        1.12433228176931
H            4.18593128084047        0.83694877816070       -0.62552595087231
H            3.08423277982681        1.94676180589132        0.22208165200005
H            3.63128572578660       -1.72014783524259       -0.21959289333257
H           -2.35107970177549        3.55672294641909       -0.23060998619703
H           -3.35725489551496        2.53155403890611       -1.17790401212189
H           -3.55728245859940        2.58310168474380        0.52160740560537
H           -0.75131883367480       -3.21459969770135        0.85363959154168
H           -0.97576242868530       -3.19197618132186       -0.89838952015003
H           -2.32507599313446       -2.80000670347197        0.17656821168090
H            1.46981780294363       -2.99845274811144       -0.21071995759062
25
 energy: 86.939572967046 xtb: 6.6.1 (8d0f1dd)
C            3.47707824300479        0.92466392268353        0.20113259366059
N            2.40025062646478        0.01533901297909       -0.01150526556874
C            2.67278186550035       -1.29580506808917       -0.06808919310913
N            1.51357890095531       -2.01356563736974       -0.12968403788970
C            0.47886441980170       -1.11488819129047       -0.07533856492045
C            0.98442425275880        0.17647697036422        0.01658892659048
C            0.11990130402006        1.36504220157919        0.07122621388002
O            0.59496550306849        2.47566070618205        0.26486091583486
N           -1.45151923831553        1.18310250303102       -0.05021814220174
C           -2.84436714415515        2.61446003032490       -0.25871684884036
C           -1.83923243297772       -0.15451128402564        0.06307094292080
O           -2.96360848130125       -0.53486229742730        0.23442587500773
N           -0.85266571384804       -1.30235651490156       -0.00566301782646
C           -1.25271555951175       -2.71219384439196        0.04004882987334
H            3.99001386251913        0.67301790699728        1.12445259756123
H            4.19608582299231        0.82626362799473       -0.62021752289527
H            3.10116177472825        1.92530614133539        0.24538891660502
H            3.65168742165181       -1.70729717468904       -0.23212534633866
H           -2.45023929938896        3.64681407126968       -0.24154128906561
H           -3.45043567428598        2.62236278698497       -1.19804857475876
H           -3.64934559509583        2.65593920856794        0.50864286282800
H           -0.73138044538069       -3.22714357366742        0.85040126962698
H           -0.98677916649465       -3.22188174797584       -0.89629791147025
H           -2.30874412602333       -2.81231431607285        0.20176195226626
H            1.51245354724924       -3.01860083822074       -0.20752228562289
25
 energy: 91.938894716725 xtb: 6.6.1 (8d0f1dd)
C            3.47848930543303        0.91165438334589        0.20125625359092
N            2.41730953007749       -0.01092461164608       -0.01479885078422
C            2.68639716004970       -1.28993946077102       -0.05870198567491
N            1.54943395713326       -2.03741078231987       -0.12695040619234
C            0.49359320373333       -1.14226428768265       -0.08324098602298
C            1.01651993743344        0.13945992160159        0.00906273863682
C            0.14454960650024        1.34433474328670        0.07664847597997
O            0.63789090444554        2.43393621955253        0.27622115112007
N           -1.40745608310684        1.15651202410707       -0.04020448415872
C           -2.95268893087350        2.72693975803191       -0.27320335839885
C           -1.81517320498432       -0.15923859110126        0.06967337856187
O           -2.92472025853265       -0.54035832945863        0.25652434274671
N           -0.81977824608945       -1.33589554967033       -0.01800085983724
C           -1.24706063267044       -2.73635916308850        0.03675899839211
H            3.97741718843534        0.65285243183174        1.11608510271012
H            4.19777052803289        0.82226430785325       -0.61950647980093
H            3.10155984274845        1.90243938877821        0.25230971069941
H            3.66940973716537       -1.69061386934235       -0.23346972304734
H           -2.53862583010247        3.74285886272324       -0.24724958528482
H           -3.54616417691676        2.71910531825033       -1.21517406590025
H           -3.73737249482768        2.73496927159626        0.50898731539124
H           -0.73129496428483       -3.24630819588062        0.84358577298731
H           -1.00027837088436       -3.25320493017620       -0.90000004511822
H           -2.29591391535106       -2.81451350879009        0.20997434213706
H            1.55840087537244       -3.04126674885885       -0.19955285658552
25
 energy: 91.042850501478 xtb: 6.6.1 (8d0f1dd)
C            3.47982310699653        0.90299169720011        0.19841986124802
N            2.43267830280398       -0.03760990346815       -0.01196846053372
C            2.70335668928622       -1.29592910662841       -0.05753150303406
N            1.58435561902241       -2.06365890192293       -0.12432398265560
C            0.51117943268188       -1.17016181525176       -0.08183998649018
C            1.04569717442933        0.10475993024706        0.00880434973115
C            0.16082129203337        1.32192901442299        0.07964920529752
O            0.67024689016964        2.39835185310157        0.28464713288240
N           -1.35946827988475        1.12693083967781       -0.02373960648481
C           -3.05944595080940        2.84127985337078       -0.28666705792390
C           -1.78649414914078       -0.16348825426368        0.07484848449192
O           -2.88792673129310       -0.55050288279345        0.27573987247395
N           -0.78595819736703       -1.37149337302287       -0.02319448266692
C           -1.23895558081289       -2.76189528358281        0.03170092024710
H            3.97531417882732        0.64233556391793        1.10946670744547
H            4.19856641933367        0.82130680226340       -0.62304455600147
H            3.09493069578268        1.88841292071149        0.25368848583056
H            3.68881733154504       -1.69085381415284       -0.22811355078000
H           -2.62128885194854        3.84095651378456       -0.25465369882850
H           -3.64144530493302        2.81877499494001       -1.23002225793872
H           -3.82573091745769        2.82428031200730        0.50838859274307
H           -0.73094356070830       -3.27468361107764        0.83744702421318
H           -1.00579463811057       -3.28117396833458       -0.90612649839872
H           -2.28693682544208       -2.81594920305451        0.21023204629443
H            1.59681652293220       -3.06588157591909       -0.19477314501488
25
 energy: 87.623335349287 xtb: 6.6.1 (8d0f1dd)
C            3.48014178875933        0.89729676657278        0.19303822447858
N            2.44759592493544       -0.06409572508292       -0.00493980244764
C            2.72456888877544       -1.31045831905129       -0.06062338218691
N            1.61965026663231       -2.09030471705233       -0.12105778729482
C            0.53194663640447       -1.20000865658159       -0.07470427552178
C            1.07179896762758        0.07261379329221        0.01513217437577
C            0.17258772358663        1.29803187325120        0.08568950861799
O            0.69632111747657        2.36689821857244        0.28776540712796
N           -1.31254232570674        1.09835207330987       -0.00385410680532
C           -3.15947981436334        2.95229650515772       -0.29739681431487
C           -1.75678302050841       -0.16928300143449        0.08386610057620
O           -2.85242334406027       -0.56121826253431        0.28415645050964
N           -0.75403446436590       -1.40884056286540       -0.02237186289702
C           -1.23069406099359       -2.78868738442474        0.02531510956998
H            3.97680450647257        0.64689332294475        1.10297073637309
H            4.19801176769554        0.82255605695408       -0.62916408351448
H            3.07865066319873        1.87510021126718        0.24524323681691
H            3.71284547658429       -1.70193435326601       -0.21726831395708
H           -2.69720891869924        3.93742299885907       -0.26095528739838
H           -3.73448720580873        2.92098090940907       -1.24011747697308
H           -3.91013247663131        2.91972884675251        0.50839032579079
H           -0.73653371449358       -3.31044881660155        0.83177688342200
H           -1.00684248460657       -3.30769913566718       -0.91379421030199
H           -2.27994560499255       -2.81458216915446        0.20138383682277
H            1.63239837501749       -3.09158187045431       -0.19144669472106
25
 energy: 63.755819187143 xtb: 6.6.1 (8d0f1dd)
C            3.47009253415913        0.92351347301138        0.16982225488081
N            2.44825173363780       -0.09176047991258        0.02184743787049
C            2.75484062313228       -1.36374643508968       -0.09386285461935
N            1.64890182935094       -2.11767991334171       -0.11280499830891
C            0.55630494344944       -1.22726410348810       -0.03857907159289
C            1.09940897708298        0.04306548882613        0.03349476347260
C            0.15621570954356        1.25320567607817        0.10407521759139
O            0.67421391536637        2.33832068065644        0.24196786657405
N           -1.14401044791830        0.97563230125723        0.07203288768569
C           -3.30880872560057        3.13245872363411       -0.30643166879780
C           -1.69049888968041       -0.17995816418605        0.09159386503660
O           -2.81175101902354       -0.55906719042032        0.24998901689275
N           -0.70776490566604       -1.48119408158177       -0.01474531863910
C           -1.22767627208463       -2.82383349387497        0.00534856568655
H            3.99280125132421        0.72191434440626        1.10993144032419
H            4.19372875201484        0.84840632456977       -0.64317616194855
H            3.01196320216471        1.91052666761275        0.19756935098104
H            3.74471281656838       -1.76116063664950       -0.17255396458100
H           -2.70521789920699        4.02697561157593       -0.25396784834008
H           -3.81479544072734        3.00901242084231       -1.25192567383606
H           -3.97039177338003        3.01146063674257        0.54096732186575
H           -0.77008853394813       -3.37168335937601        0.83681605344158
H           -1.00242726576701       -3.32984202914281       -0.93163545669126
H           -2.31044204530808       -2.78149436692862        0.15768981643219
H            1.62465159845261       -3.11677949304866       -0.18642894523339
25
 energy: 61.731647606487 xtb: 6.6.1 (8d0f1dd)
C            3.47165693103269        0.92983839359148        0.15699170641032
N            2.48435905383866       -0.12682058351411        0.03474439186651
C            2.78542206635123       -1.38947313614747       -0.08826742528196
N            1.67583000013119       -2.14368909118963       -0.10582509841376
C            0.58235173274349       -1.26148419240696       -0.01559053958799
C            1.14202071027078        0.00634019719951        0.06098672501939
C            0.19361482351644        1.22205993878066        0.13247336849427
O            0.70794550091970        2.31522530756675        0.22346298712925
N           -1.06376620400737        0.91683050432213        0.11655332112681
C           -3.44829045506360        3.29621141773087       -0.31007718780599
C           -1.66483909496638       -0.21239695509885        0.12296441166174
O           -2.78121686779049       -0.57014977763922        0.21066054608676
N           -0.68124778875686       -1.53989690248750        0.00178938557050
C           -1.22319521203112       -2.86662647791449       -0.00429058829875
H            3.99193886217378        0.80715664191975        1.09531121752589
H            4.19608784066330        0.86750667046421       -0.65375145090421
H            2.97542345710815        1.89030108644659        0.14210966590584
H            3.77347528727524       -1.79925189340968       -0.14945636122672
H           -2.74985198564102        4.12671060134354       -0.25182284122472
H           -3.91817499200388        3.12243659745131       -1.26497282619772
H           -4.05664371859882        3.11901928357474        0.56662983556581
H           -0.81222070003916       -3.43316562063032        0.83204391776530
H           -0.99275988267016       -3.36199742711097       -0.94599570296200
H           -2.30260340240897       -2.78330761315195        0.10967397074347
H            1.62689870588941       -3.14234836751812       -0.18931153282077
25