25
 energy: 0.000000000000 xtb: 6.6.1 (8d0f1dd)
C            3.23720163006194        1.16630919979326        0.08434469647475
N            2.29877817382611        0.07527477071623        0.03981603040599
C            2.58028210190900       -1.21425402444508        0.03006176031096
N            1.43813958087363       -1.93419271955128        0.00098261760884
C            0.39035688448383       -1.05887472636071       -0.00790371836672
C            0.93510056364412        0.21347819449412        0.01709077491437
C            0.09450143893243        1.40504303904423       -0.00410947031874
O            0.49712751527797        2.54126714362870       -0.00342325688240
N           -1.25076640035757        1.06271879480407       -0.03085478223738
C           -2.21907211982101        2.15522099834493       -0.05001256985998
C           -1.81739487048744       -0.20012725993278       -0.04692818574614
O           -2.99983886758376       -0.37846417018721       -0.07008878229737
N           -0.92618586207120       -1.30210215599479       -0.03682761578324
C           -1.46982264913417       -2.64643102187190       -0.06029820460571
H            3.71247264356769        1.21471455160235        1.06488849150277
H            4.00791497605742        1.03430808813993       -0.67357694370751
H            2.69910007168542        2.09770118228144       -0.09130154882931
H            3.56654120610678       -1.63682992603973        0.04233140067262
H           -1.67107961066214        3.09322851271934       -0.02552706933167
H           -2.82428953597071        2.09428624779827       -0.95318082946668
H           -2.87644029173232        2.07745725625962        0.81450067533302
H           -1.17061996399332       -3.19584890659852        0.83242232437030
H           -1.14560257411436       -3.17511610292205       -0.95688275822323
H           -2.55549792440841       -2.55659984320617       -0.07459039797972
H            1.38130855184625       -2.94313852034425       -0.01389874181052
25
 energy: -4.829528976834 xtb: 6.6.1 (8d0f1dd)
C            3.25316420333779        1.16718194875875        0.08937587765687
N            2.31328621784412        0.08886501036509        0.03821351983130
C            2.60575864676383       -1.23923352861333        0.02500172249520
N            1.43389786322627       -1.94648122172963       -0.00395582987417
C            0.40229076064175       -1.06090638881256       -0.00705779143189
C            0.93348780088994        0.21841487572604        0.01916513756520
C            0.09990983882428        1.39412531989049        0.00232289034911
O            0.50401152732754        2.55700290556446        0.00315530257654
N           -1.26940696013462        1.06061772739536       -0.02631614696258
C           -2.24419065559494        2.16649147732931       -0.05778089151684
C           -1.82104134630933       -0.19960542143905       -0.03961164226748
O           -3.01613310152003       -0.38955996811903       -0.06148664082584
N           -0.92856627443944       -1.30266759581624       -0.03299865744846
C           -1.46098169743411       -2.64853816747331       -0.05776823945620
H            3.73428620226067        1.20735538426151        1.07040098489368
H            4.01987402236051        1.03318132515476       -0.67541532063444
H            2.70846652144295        2.09349471017086       -0.08133953428791
H            3.58464660166798       -1.66584368132008        0.03339988305006
H           -1.70121097923397        3.11016219131484       -0.03528483859351
H           -2.85736031066072        2.12552558591446       -0.96050306885608
H           -2.91730659308786        2.11489588698229        0.80010101992287
H           -1.15303138608074       -3.20322620988468        0.83114839470715
H           -1.13393847056412       -3.17848560008860       -0.95498986330209
H           -2.54643599445933       -2.56306283062182       -0.06843115214201
H            1.36873823086781       -2.95067513273790       -0.02231121930122
25
 energy: -4.214076646756 xtb: 6.6.1 (8d0f1dd)
C            3.27773028290776        1.15547017560783        0.09833018914111
N            2.32556148981475        0.09457734529855        0.03558225165920
C            2.62397077762071       -1.26300673301273        0.01329199039622
N            1.42698343727403       -1.95321073647096       -0.01438297999040
C            0.41301091060210       -1.06090923962454       -0.00530386001233
C            0.93006283073318        0.22428092073133        0.02491952243569
C            0.09979535046100        1.38127035883186        0.01489226198710
O            0.49810258052663        2.55748820454555        0.01816811216214
N           -1.30005902362585        1.06769438734365       -0.01849539566883
C           -2.28303602878830        2.18890971865037       -0.07374205344790
C           -1.82437566423975       -0.19585699399367       -0.02567817881487
O           -3.02226075227777       -0.40796251217351       -0.04202181628306
N           -0.92950841778343       -1.29784227983545       -0.02421861503899
C           -1.44168094794156       -2.65012969465219       -0.05139065259912
H            3.77346056918181        1.18248903023914        1.07556916182731
H            4.03981264969816        1.02732535636983       -0.67515688544955
H            2.73602289957090        2.08534209844984       -0.05697944283565
H            3.59620437336843       -1.69620395681602        0.01237676644051
H           -1.74744196860613        3.13937869968678       -0.05554825655001
H           -2.90002189216214        2.16463656693958       -0.97893664237900
H           -2.98013466515598        2.17061948943606        0.77174272190122
H           -1.11700197601890       -3.21170429595148        0.82997411691828
H           -1.11146423798229       -3.17781788800000       -0.95123255541798
H           -2.52773932864937       -2.58027791618342       -0.05385158815541
H            1.35622141940822       -2.95553150324437       -0.04087427607840
25
 energy: -0.848553854166 xtb: 6.6.1 (8d0f1dd)
C            3.30659763122473        1.13327783936808        0.11085612957925
N            2.33284334618085        0.09339880062793        0.03251850398938
C            2.62999581232315       -1.28012125530992       -0.00459971662580
N            1.42032563540574       -1.95562712773676       -0.03047167034278
C            0.41872488762792       -1.05850287989044       -0.00302820780201
C            0.92621329453817        0.23117232315122        0.03392673997194
C            0.09249409691621        1.37856950449015        0.03187950655108
O            0.48371742922093        2.55835170105118        0.04173320493198
N           -1.33451430682172        1.08359188368928       -0.00959991469707
C           -2.32842817408250        2.21606684465067       -0.09738256636638
C           -1.83146867382940       -0.19001126433758       -0.00658388534625
O           -3.02679790320076       -0.42877602955056       -0.01305181454324
N           -0.92907269627040       -1.28891792702630       -0.01079382233925
C           -1.41473890145692       -2.65143713106769       -0.04049552394250
H            3.82117519981347        1.13312891504250        1.08155253609802
H            4.06125423660005        1.01190006912621       -0.67323833713511
H            2.78110695832749        2.07687227670091       -0.01795582512199
H            3.59831145465343       -1.72116116296025       -0.02127854604554
H           -1.80353750371592        3.17441915332640       -0.08501123838270
H           -2.94094175032143        2.19702085596450       -1.00920722378458
H           -3.05139240589039        2.22892800697419        0.73179425037047
H           -1.06419612909553       -3.21657740193594        0.83106309054539
H           -1.08099191264767       -3.16966705637499       -0.94621817344057
H           -2.50204754827767       -2.60864619087249       -0.02932460878276
H            1.34758259071435       -2.95822414492821       -0.07004899119166
25
 energy: 6.196378739692 xtb: 6.6.1 (8d0f1dd)
C            3.35014551814302        1.09314264868416        0.13256065412052
N            2.33857725898223        0.08837438407628        0.02702006563267
C            2.62816920673640       -1.29505905264534       -0.03412504165959
N            1.41200460626455       -1.95471984650833       -0.05852694367462
C            0.42159644474217       -1.05172112151352       -0.00083677233067
C            0.92088091180639        0.24227996597635        0.04746997447291
C            0.07745241582911        1.38512357571773        0.05650689608510
O            0.46035892570012        2.56269585606588        0.08283637413317
N           -1.38304033333982        1.11123620588878        0.00021972109906
C           -2.39662593044246        2.25574226208294       -0.13703209804268
C           -1.84575419153049       -0.17996877360473        0.02232644606401
O           -3.03374177176564       -0.45685820319293        0.03608111509324
N           -0.92810178051699       -1.27307817726170        0.01112055846255
C           -1.37170961789535       -2.65276519578247       -0.02012821312891
H            3.89118041608693        1.03702172543940        1.09240599142760
H            4.09044530107910        0.97927246784238       -0.66869506726135
H            2.85990664880652        2.06364096165531        0.05149331676613
H            3.59298617581850       -1.74627954210837       -0.08004734500052
H           -1.89138274355853        3.22730455688323       -0.13317451471245
H           -2.99648866896739        2.23346974576030       -1.06157754313631
H           -3.15430994949326        2.30604437718941        0.66664741390602
H           -0.97570506980600       -3.21760438852792        0.83594117406610
H           -1.03441484815638       -3.15174283626755       -0.93723534504544
H           -2.46027018037848       -2.65814278424226        0.01643420417903
H            1.34005592379190       -2.95838020943491       -0.12065112536829
25
 energy: 14.064839136148 xtb: 6.6.1 (8d0f1dd)
C            3.39204421819632        1.04830095652374        0.15708807883768
N            2.34044333548754        0.08285836454027        0.01968303975595
C            2.61801033838373       -1.29670588837163       -0.06292363129575
N            1.40618463432239       -1.94851232554342       -0.08920702639002
C            0.41947648282813       -1.04155399229727       -0.00282155092531
C            0.91720742427177        0.25373739256822        0.05672731295240
C            0.06165841500213        1.39936380294658        0.07450578779466
O            0.43989976652973        2.56953108103827        0.12690950875329
N           -1.42429055222236        1.13787555159768        0.00135314288406
C           -2.46178593332282        2.29086467761881       -0.17720496892679
C           -1.86236339314972       -0.16963822858425        0.04659262533451
O           -3.03995484181407       -0.47830210558882        0.08747764512616
N           -0.92719089894323       -1.25673037088349        0.03095217680857
C           -1.33023278217733       -2.65305261192627        0.00391759623495
H            3.95052535517294        0.92417253175385        1.10528717269751
H            4.11668309921967        0.93967615774105       -0.65991924367510
H            2.94607159276296        2.04599597616311        0.12788969162153
H            3.58096473086152       -1.75424809445741       -0.14295558832245
H           -1.97981745796732        3.27685096441316       -0.18014197109146
H           -3.04729560441163        2.25817951522591       -1.11434744765794
H           -3.24550951804213        2.36368228240669        0.60224969192309
H           -0.88560226725107       -3.20928185603139        0.84480148456571
H           -0.99455606432043       -3.13217206438101       -0.92526912936705
H           -2.41680990011025       -2.70911733459929        0.07025619421858
H            1.33845448862966       -2.95274577970092       -0.17386669570950
25
 energy: 17.528841260373 xtb: 6.6.1 (8d0f1dd)
C            3.41516383253398        1.01757775470406        0.17600660413333
N            2.33907019608301        0.08117988789435        0.01255238123862
C            2.60546971718389       -1.28288460992354       -0.07949353224784
N            1.40503388827995       -1.93861951951218       -0.11091028989537
C            0.41393732419018       -1.03162228456861       -0.01227095150799
C            0.91756313098708        0.26135779506222        0.05475334694727
C            0.05325319106873        1.41345285913337        0.07564945133923
O            0.43173895826988        2.57622088920923        0.15712732644247
N           -1.43940892101162        1.14976560393848       -0.01045572443710
C           -2.49641998877329        2.30506278702113       -0.20068616485695
C           -1.87369016850808       -0.16362357226873        0.05383690062371
O           -3.04236697920126       -0.48288896014898        0.11972406305084
N           -0.92693583974029       -1.24749516317882        0.03749686292557
C           -1.30944467860048       -2.65167071057562        0.02291037337389
H            3.96946323685127        0.84288830721898        1.11591465913951
H            4.13160733977914        0.91114483604301       -0.64654542835760
H            3.00407714609891        2.02715231735840        0.17940949358817
H            3.56835894823167       -1.73890599639355       -0.18513799353798
H           -2.03121942740517        3.29991568810928       -0.20493830667858
H           -3.07300715512336        2.26167383757037       -1.14385893781202
H           -3.28604362352267        2.37291481701438        0.56714687140161
H           -0.83383429618906       -3.19184150398398        0.85546183394606
H           -0.98321347576195       -3.12280470425118       -0.91256492104292
H           -2.38955673674882       -2.73679927273056        0.11255216138926
H            1.34261904896452       -2.94212248056932       -0.20664618301792
25
 energy: 17.083957300830 xtb: 6.6.1 (8d0f1dd)
C            3.42249952067237        1.00510747710994        0.19031369857644
N            2.33648426022516        0.08619148215049        0.00572987896272
C            2.59723474321415       -1.26591861697473       -0.09009177430450
N            1.40404623904251       -1.92939054266837       -0.12524889249599
C            0.40842914178888       -1.02281992305899       -0.02749536075730
C            0.91854062106618        0.26743495066842        0.04562294840244
C            0.05090101513706        1.42189374145875        0.06831773738163
O            0.43049956223628        2.58291158081778        0.17341014193198
N           -1.43552826537591        1.14805587919871       -0.02757292777881
C           -2.50344545575171        2.30141417724682       -0.21196712979526
C           -1.87884472332349       -0.16114656705750        0.05087963847604
O           -3.04428409301583       -0.47657179615128        0.13481386065205
N           -0.92862055386551       -1.24428934902537        0.03339941863337
C           -1.30646753331912       -2.64937848023000        0.03668707083000
H            3.96488462495189        0.79569918738502        1.12566095962867
H            4.13734737938974        0.89974600621383       -0.63246805786255
H            3.03283403632576        2.01792511273038        0.21330400610806
H            3.56050658690975       -1.71643271496580       -0.21067493612700
H           -2.04570954531163        3.29873097748681       -0.21345482153119
H           -3.07466443546360        2.25156161561439       -1.15709100794338
H           -3.29101626023305        2.35236053683441        0.55478026451159
H           -0.81262739354245       -3.17394834335943        0.86583985516512
H           -0.99399287266367       -3.12479402600118       -0.90012085120547
H           -2.38090100429687       -2.74379415033151        0.14576635365553
H            1.34410907313924       -2.93151961291935       -0.22130617696692
25
 energy: 15.872975139865 xtb: 6.6.1 (8d0f1dd)
C            3.42898694399712        0.99667413017910        0.21047743696142
N            2.33259428836581        0.09741138713617       -0.00497338360236
C            2.59091050283912       -1.25035959956664       -0.10744743069952
N            1.39966843592777       -1.91943267019993       -0.14492954987058
C            0.40280394174444       -1.01145773286553       -0.04877187135058
C            0.91684108755480        0.27705919992175        0.03267785031018
C            0.04740511362430        1.42888149179922        0.06106037935865
O            0.42558972254172        2.59141333989047        0.18676621656120
N           -1.42878185651516        1.14265938401966       -0.04821867996714
C           -2.50453426895675        2.29187458767617       -0.22717346725569
C           -1.88275757648064       -0.15842890722209        0.04857289768017
O           -3.04821675048278       -0.46748502605380        0.15067655798470
N           -0.93219645299733       -1.24106568173893        0.02625937762939
C           -1.30589073547163       -2.64632790749412        0.05500401741595
H            3.96130496447694        0.74277415915079        1.14085164136040
H            4.14389629504098        0.89697141006832       -0.61350376039375
H            3.06233594475452        2.01630797092364        0.26263842653140
H            3.55418352370128       -1.69488358960936       -0.24465484522786
H           -2.05231372856737        3.29019108342881       -0.22305538481053
H           -3.06852960338601        2.23637974396823       -1.17501667284870
H           -3.29249100572314        2.32411338105283        0.54011039292662
H           -0.78806940390832       -3.15507581002001        0.87943321015205
H           -1.01379267733774       -3.13233743685916       -0.88307838430414
H           -2.37618610884425       -2.74653876094590        0.19275489392648
H            1.33945407203845       -2.92028954446742       -0.23942597232046
25
 energy: 12.382549115465 xtb: 6.6.1 (8d0f1dd)
C            3.43056365884596        0.99304962954767        0.24084768499135
N            2.32558800153478        0.11661295172945       -0.02313917183065
C            2.58448474100719       -1.23222461624890       -0.13265940367329
N            1.39221156978710       -1.90562355208745       -0.17372641857884
C            0.39557400744518       -0.99611243523344       -0.07967341965474
C            0.91239802942256        0.29067564724880        0.01141455869357
C            0.04158648143155        1.43618807883528        0.05018837399397
O            0.41399588747819        2.60160039131352        0.19084537989451
N           -1.41365036500100        1.13090532982640       -0.07696482666136
C           -2.49071702414840        2.26944448504182       -0.24560208217198
C           -1.88360259749709       -0.15664292366315        0.04453178117250
O           -3.05173075921479       -0.45101002071969        0.16493272039604
N           -0.93742852785878       -1.23869330334170        0.01311879401202
C           -1.31104011469837       -2.64097075841826        0.08170963326260
H            3.94514256122310        0.68765409336018        1.16409816345936
H            4.15168399725981        0.91079688190410       -0.58047570738103
H            3.08771181657057        2.01633501528580        0.33142300017355
H            3.54735283627645       -1.66851699522326       -0.29179111117402
H           -2.04023211288021        3.26564521759078       -0.22958940338173
H           -3.04428673836603        2.20731190490700       -1.19653562095256
H           -3.27621199110576        2.27260498545852        0.52526990688705
H           -0.76599071377590       -3.13043613910216        0.89941108319634
H           -1.05393124134773       -3.14890159580431       -0.85639739130521
H           -2.37575216335821       -2.73523920486296        0.26077495568840
H            1.32849542890596       -2.90542446517177       -0.26497758290859
25
 energy: 8.793939730158 xtb: 6.6.1 (8d0f1dd)
C            3.43104461087883        0.98845317051297        0.28272719549582
N            2.31760969533676        0.13947241744689       -0.05129091486098
C            2.57834898996767       -1.21618920396848       -0.16793989215676
N            1.38205478808389       -1.88852768484184       -0.21490333240118
C            0.38829863182881       -0.97844937998994       -0.11483678248373
C            0.90529385791017        0.30737769966048       -0.01447030643114
C            0.03107836842597        1.44444136086405        0.03833177647576
O            0.39117093172742        2.61370380000952        0.18789867455479
N           -1.40065200667096        1.11938170559717       -0.10809542423196
C           -2.47115155663828        2.24121414034593       -0.27115843649307
C           -1.88283280838124       -0.15605110872121        0.04219470585346
O           -3.05439898893567       -0.43535736163998        0.18265974950345
N           -0.94283622721151       -1.23508530686155       -0.00069425166283
C           -1.31485582821442       -2.63321660871686        0.11945387331604
H            3.92606815943334        0.61803629297443        1.19644646766049
H            4.16327539652587        0.93906885847684       -0.53329536785770
H            3.11242977272341        2.01601153916286        0.42844833243189
H            3.53920856723281       -1.64455713829080       -0.35978364966532
H           -2.02053991695491        3.23456401910407       -0.23957839523818
H           -3.00961531523622        2.17244627182825       -1.22777936878870
H           -3.25695131756274        2.21641548680165        0.49976779986185
H           -0.73417964485993       -3.10235137472451        0.92590284744193
H           -1.10442205809569       -3.16854302062534       -0.81775660751433
H           -2.37311835347781       -2.71561722653005        0.35179803537531
H            1.31188692010047       -2.88761274570227       -0.30701283203770
25
 energy: 4.312720074712 xtb: 6.6.1 (8d0f1dd)
C            3.42095898922823        0.98732897117882        0.33371687960532
N            2.31003735636360        0.16471325211588       -0.08829495092149
C            2.57363991069983       -1.20158789659515       -0.20799424708290
N            1.37145874811042       -1.86844062955266       -0.26620487848087
C            0.38151613181082       -0.96077782068781       -0.15118116726251
C            0.89803341260642        0.32412934493567       -0.04348455919378
C            0.01884676985733        1.45198544770583        0.02285469166782
O            0.35952699252186        2.62597392211555        0.17250366555222
N           -1.38427893280240        1.10502410236966       -0.13942036206496
C           -2.43382111531296        2.20102156450448       -0.29770580997056
C           -1.87747603063143       -0.15942673264095        0.03879968175657
O           -3.05318018927321       -0.41868014309344        0.19539217720092
N           -0.94745917768605       -1.23233829944071       -0.01626302437482
C           -1.32257544890122       -2.62143744284112        0.16642802889168
H            3.88669743758868        0.55883550332062        1.23413694063200
H            4.17482191897310        0.98794378587731       -0.46655851724931
H            3.11371957707119        2.00610015157888        0.53775198797841
H            3.52973774638919       -1.62104158066853       -0.44603736013426
H           -1.97677750302827        3.18825164700274       -0.24570679197686
H           -2.95276289396684        2.12755683502797       -1.26188999924767
H           -3.21965096815065        2.14831026841576        0.47083931971140
H           -0.70905615117977       -3.07039312686752        0.95790166212022
H           -1.17001190718675       -3.19176752881125       -0.76432640840199
H           -2.37085205000244       -2.67542694875348        0.45577727064200
H            1.29112204483730       -2.86682804402422       -0.36400033324934
25
 energy: 2.448583883323 xtb: 6.6.1 (8d0f1dd)
C            3.40984278066304        0.98003334441576        0.38374430824489
N            2.30825719302626        0.18206401799153       -0.12692499229675
C            2.57184097727776       -1.19448937865209       -0.24907487178721
N            1.36433869376346       -1.85148676370117       -0.32112116679270
C            0.37886101426601       -0.94854105558290       -0.17686991269118
C            0.89421533769033        0.33628794427781       -0.06266504656058
C            0.00890671392384        1.45757010430636        0.01165073353147
O            0.32836161348077        2.63512477112703        0.16124743207720
N           -1.38100200291881        1.09863313714268       -0.15897719298409
C           -2.40793440350824        2.17204143861841       -0.32831121315097
C           -1.87242887417217       -0.16483858401819        0.03971980945374
O           -3.04918940936779       -0.41485649731273        0.21131020518179
N           -0.94846475477051       -1.22838369907893       -0.02333571627149
C           -1.32183415849540       -2.60899967844080        0.21626451718322
H            3.85394875741047        0.49174815171116        1.26910412013779
H            4.18484554030526        1.03538681364527       -0.39720972346983
H            3.10301205577646        1.98880098502271        0.65226595140237
H            3.51923503139957       -1.60675064817789       -0.54560102987526
H           -1.94516381930002        3.15554477430297       -0.25932655509889
H           -2.90535394656342        2.09791608560162       -1.30340519321300
H           -3.20275178398970        2.11055844853224        0.42777276495528
H           -0.67465485980504       -3.04178800284976        0.99029041336202
H           -1.22057672171510       -3.20562491520610       -0.70444506850351
H           -2.35853705309320       -2.63820099880880        0.55460650730892
H            1.27444074665210       -2.84872119269384       -0.43367518399598
25
 energy: 1.255631238857 xtb: 6.6.1 (8d0f1dd)
C            3.38293585885417        0.97603262144826        0.41675232207129
N            2.31599186613485        0.18332790052922       -0.15429959551687
C            2.57758607596964       -1.20134478062825       -0.27306062882430
N            1.36639244102805       -1.84469364204323       -0.36408014477271
C            0.38413389176263       -0.95124531848569       -0.17838130020524
C            0.89885800859046        0.33365584640528       -0.06162057625864
C            0.01091414838152        1.45477885671186        0.00638646733600
O            0.31127446304791        2.63308380780115        0.14514626973866
N           -1.38454160187447        1.09858577514992       -0.15096618546856
C           -2.38235245712273        2.15599559428448       -0.34595721845112
C           -1.86218327403860       -0.17547822955418        0.04177007873363
O           -3.03763026703880       -0.42448802192740        0.21299172165020
N           -0.94225515988354       -1.22803564251374       -0.02144259091933
C           -1.31875766918545       -2.59684696602170        0.25266696894336
H            3.81206642639691        0.48051150909227        1.28583710531425
H            4.18240857407187        1.08199319175216       -0.33066959137656
H            3.03659505133825        1.95272469274180        0.71391645517932
H            3.50924721738301       -1.60729148980293       -0.62984475677543
H           -1.90862986533619        3.13556495854751       -0.26570100297345
H           -2.85984573094450        2.08952758632999       -1.33294898967099
H           -3.19267940993594        2.11114045909371        0.38925370770807
H           -0.66223336194535       -3.02670103850847        1.01172198510712
H           -1.24980050644650       -3.20754541468517       -0.64982270056810
H           -2.34331107816522       -2.59405699726564        0.60896985910033
H            1.26803102689395       -2.84016665627886       -0.49958376295375
25
 energy: 1.361207744128 xtb: 6.6.1 (8d0f1dd)
C            3.36784235289169        0.96402794045096        0.46133513302589
N            2.31918120387231        0.18972356658137       -0.18974323974634
C            2.57552064256072       -1.19158879458455       -0.31261548877490
N            1.36677716179265       -1.83275088497644       -0.41740744425160
C            0.38439922296260       -0.94605452215945       -0.20261918018504
C            0.90361591215092        0.33623903135379       -0.07447655571474
C            0.01530683688224        1.45830955213324       -0.00656591826506
O            0.30454278099592        2.63600106326357        0.14752738946095
N           -1.38196232944642        1.09573132693664       -0.15784899239109
C           -2.37226194412779        2.14571469767127       -0.37581461550610
C           -1.85956325407594       -0.18009554593064        0.04056090412538
O           -3.03268974638395       -0.42673800899883        0.23294739406797
N           -0.93821472174310       -1.22514476231432       -0.02809527668498
C           -1.31237934220359       -2.58789150825325        0.29791975109503
H            3.78116089711585        0.39996716178606        1.31883051712837
H            4.18215834572664        1.12348590694368       -0.26375851121495
H            3.00810496981456        1.92806919694061        0.81860894478854
H            3.49263046830547       -1.58472831683063       -0.72725533426467
H           -1.89625626732396        3.12376335707832       -0.28517842001185
H           -2.82381334788510        2.07689227593303       -1.37684615520090
H           -3.19947697072092        2.10058205843379        0.33957055176985
H           -0.61613899207811       -2.99589798445052        1.04374527989375
H           -1.29467923855289       -3.21968168723950       -0.59800334015275
H           -2.32653886382831       -2.57400703928028        0.70722576173686
H            1.26494889123439       -2.82489947831556       -0.56500925858042
25