25
 energy: -42.488370525715 xtb: 6.6.1 (8d0f1dd)
C            3.01078439351794        1.21616396781281        0.09501502314457
N            2.19564216215912        0.02941457942887        0.02380829024923
C            2.62806156356350       -1.24682871531458        0.06276444972581
N            1.53083772010050       -2.08078573520006        0.00332536372671
C            0.40552832775483       -1.29042761146857       -0.01122391911713
C            0.82443941293832        0.01929390640153        0.01930587838426
C           -0.13964887882749        1.11738578127177       -0.07621265616646
O            0.29148876471302        2.25507969171249       -0.19934583021478
N           -1.42965432004858        0.75939993203902       -0.03167713010340
C           -2.19710675020439        3.23122877038544        0.03653403604786
C           -1.88597342010217       -0.48961522051902       -0.02761169339818
O           -3.04011846244757       -0.84223572883123       -0.03414953138540
N           -0.88453197294265       -1.61248480025579       -0.04179613698721
C           -1.29440681493784       -2.98733602954443       -0.07276500776077
H            3.14316605310113        1.53012508268691        1.13138309267242
H            3.99086518463354        1.01850082369780       -0.30959410844897
H            2.47627901991788        2.01569911016877       -0.42750702351938
H            3.62044963478689       -1.54895047893181       -0.19156949369189
H           -1.20939305785992        3.60796457025113        0.12673794807019
H           -2.64995142107847        3.18899935316181       -0.91802012416622
H           -2.80000866989518        3.11851027320297        0.89926706484266
H           -0.91654012952976       -3.49791691254077        0.81524591249957
H           -0.87900449400674       -3.46981724451682       -0.95984121621186
H           -2.39255162147280       -2.98809061774417       -0.08653990975432
H            1.57709374258231       -3.08963310278444       -0.00781572353731
