25
 energy: -42.456447635229 xtb: 6.6.1 (8d0f1dd)
C            3.61806741432138        0.93964087805003        0.18363888670628
N            2.55063632764543       -0.01466926612910        0.13238869931306
C            2.76771732159737       -1.33281262216056       -0.02856533148803
N            1.59444933621239       -2.00162909074057       -0.09431925060874
C            0.54826521287756       -1.09944617937604       -0.01942766594028
C            1.14639354610239        0.20391761600472        0.11239045412226
C            0.44647183230457        1.34864083007687        0.09811413573373
O            0.32925258321306        2.50869381591953        0.37450521484951
N           -2.18452389970020        1.34703188267746       -0.06698990023610
C           -3.00483426508976        2.47954775349560       -0.29258853689943
C           -2.52122582595880        0.26061539560702        0.31106684358265
O           -3.05962808910336       -0.62761263091861        0.82579989418423
N           -0.70927885432811       -1.27580072681297       -0.02203405385142
C           -1.24295690665154       -2.60179407059397       -0.14249325497808
H            3.53399009861774        1.56574039716934        1.07318146256188
H            4.53481869972283        0.33925619032054        0.04422051262341
H            3.60805104236872        1.74473240277852       -0.55998038783868
H            3.70762532027136       -1.77769006927191       -0.15440041844658
H           -2.29998090324640        3.26329153468240       -0.55187244491809
H           -3.64244941046889        2.28962935101897       -1.14537078393810
H           -3.63309840563080        2.69396557299554        0.57207354929968
H           -0.51403531060283       -3.29903423259214        0.27139673901494
H           -1.46904500575283       -2.79253517793824       -1.19445852278752
H           -2.19055172275582       -2.72550916850748        0.40148882171512
H            1.48378364309616       -2.98429432552154       -0.20322404269563
