25
 energy: 38.342809375327 xtb: 6.6.1 (8d0f1dd)
C            3.48825247789147        1.62324492105148        0.05767720022436
N            2.67074560574787        0.44274584873331        0.10136020010574
C            3.10239385561723       -0.80925093169666        0.16314489430966
N            2.05063742870368       -1.65721229348147        0.14350042153261
C            0.88980954998254       -0.91111659321074        0.07076691980650
C            1.30645533407506        0.42954195425157        0.03334957021032
C            0.33888004574911        1.50224498650149       -0.00813849910420
O            0.61873474200914        2.69632138734699       -0.00535421072110
N           -0.93241384061263        0.99044162313326       -0.04255979424790
C           -2.05184083797483        1.91510880802777       -0.07691524694525
C           -1.30682245507615       -0.41751189879745        0.00142117530100
O           -2.49011378593495       -0.66300551124490       -0.01353452278398
N           -0.33624857027632       -1.35732353083907        0.04714103903886
C           -3.41171546186251       -3.60569202381662       -0.24313260419289
H            4.19994597987213        1.63029923672038        0.88439991582342
H            4.02231148362601        1.66315001802102       -0.89149847633684
H            2.83627433954263        2.49684658283530        0.11662927291699
H            4.13385191474819       -1.09483459910052        0.20786801672177
H           -1.67174120774805        2.93155908371988       -0.12698852000063
H           -2.66952110503458        1.70973920809869       -0.94927795821877
H           -2.66831369696543        1.78800151595147        0.81428729741206
H           -3.37163104243617       -4.23404964667751        0.60646135367640
H           -3.61896116370269       -3.99301619083761       -1.21017615518973
H           -3.22474034621223       -2.56140577204162       -0.13006290161830
H            2.11778665469622       -2.65907855317464        0.18555109167717
