25
 energy: 51.987011469039 xtb: 6.6.1 (8d0f1dd)
C            3.29873268336878        1.43627516042841        0.06176747783801
N            2.49386111534176        0.23624375054641        0.08317971039339
C            2.87921347493762       -1.03885757593931        0.18940030187432
N            1.79775278929568       -1.87178390056241        0.14913189229820
C            0.65376570433396       -1.11343595923633       -0.00506972730704
C            1.13689872053510        0.21780958295451       -0.03388542471546
C            0.24974326375604        1.34776269969329       -0.04171983842737
O            0.63086387193161        2.51457569952769       -0.00834791165221
N           -1.04280398959127        0.93288449020452       -0.05369322318732
C           -2.06481008710817        1.97290834850629       -0.06179877577910
C           -1.51325744901469       -0.39396014922773        0.00275381709622
O           -2.72001142890818       -0.42106044123395        0.12073229808127
N           -0.64465866300020       -1.45940012580808       -0.05138902152367
C           -2.62287059788796       -3.02819820032038       -0.22577623677709
H            4.05496548974774        1.39580145863581        0.83840500301932
H            3.80649749477478        1.56431663490628       -0.89376898616717
H            2.66314350603653        2.30212457421961        0.24940339194374
H            3.89669657682043       -1.36118375243450        0.26863814127236
H           -1.49906360642484        2.89941956832932       -0.12410554886435
H           -2.72277329053353        1.81803689932753       -0.91705103791928
H           -2.65487532185854        1.92787879525119        0.85122508564776
H           -2.40328609535008       -3.67910091412172        0.55313224154083
H           -2.60850024050874       -3.30556099272045       -1.22897520278802
H           -3.20456376619803       -2.19598254990891        0.03018415953118
H            1.87778651066198       -2.87718717118848        0.23253822558701
