25
 energy: -42.107659270312 gnorm: 0.033872297656 xtb: 6.6.1 (8d0f1dd)
C            3.05789117908051        0.62869736480735        0.06652252735145
N            2.42307047330870       -0.69634314961246       -0.01415244551500
C            3.38047816885821       -1.77017466371824       -0.03348120574750
N            3.36385883269049       -3.01877345109343       -0.06156861292178
C           -0.06847567691224       -0.08934093239769       -0.02561224947645
C            1.11194366634511       -0.71265216605603       -0.03221725795306
C           -0.51828822262028        1.44218519142107       -0.04751655068283
O            0.23574125078185        2.37005246789200       -0.07251164851279
N           -1.86220409238183        1.38780821748674       -0.02109399545687
C           -2.72416059123180        2.54899527154844       -0.02178748163315
C           -2.36382123771505        0.08471348842636        0.00989882103733
O           -3.51378813602190       -0.23675277518039        0.03395925549709
N           -1.26802323280668       -0.76434403791304        0.00933145848919
C           -1.41649284304237       -2.19283891672502        0.03231235392503
H            3.61336608132760        0.71889531040513        1.00149336509750
H            3.73813309511088        0.76024174341169       -0.77653236498097
H            2.30121650050230        1.41354219938220        0.02928346166019
H            4.37464997735631       -1.32892307539243       -0.00683984807450
H           -2.10609612736272        3.44439349845985       -0.02678012680574
H           -3.36506567972476        2.53069552432732       -0.90443864856221
H           -3.35756505760087        2.53429147533701        0.86636656609782
H           -0.94945394932016       -2.61195459206061        0.92534337226301
H           -0.95779163958244       -2.63625536088395       -0.85355141213736
H           -2.48285554190727       -2.41699998438118        0.04105071681324
H            2.51416431697058       -3.57092010584567       -0.08630643181573
25
 energy: -42.112832955787 gnorm: 0.022991470615 xtb: 6.6.1 (8d0f1dd)
C            3.05067338134471        0.65763034067922        0.06931850982226
N            2.42107372047772       -0.66650734080464       -0.01323963014327
C            3.36002349425381       -1.73520729204469       -0.03509853802792
N            3.28739738593927       -2.97420520289817       -0.06570259729800
C           -0.06582387417641       -0.11795254500378       -0.02474782434662
C            1.11626703372401       -0.71824263891161       -0.03033454716684
C           -0.48341876375736        1.40007871775567       -0.04963365573270
O            0.28032955448388        2.32008608909319       -0.07399749088598
N           -1.83294839618844        1.36889346885634       -0.02254500878180
C           -2.69145620798755        2.53627317671197       -0.02311750083239
C           -2.35360527268614        0.07312842100067        0.00981281113523
O           -3.50753589161005       -0.23455461880194        0.03419146341407
N           -1.26688598576748       -0.78646349889798        0.01004421332690
C           -1.42261307291540       -2.21202196698118        0.03370922021459
H            3.60841840234267        0.74172904556794        1.00333661675030
H            3.72983370262244        0.78664810130710       -0.77470471985768
H            2.29133206798175        1.43881513134675        0.03436433585217
H            4.36762920472636       -1.32422701871776       -0.00992087494398
H           -2.07621440357692        3.43319617136398       -0.02828547561238
H           -3.33630666171468        2.52113520995169       -0.90371387824313
H           -3.32841228098857        2.52494989739304        0.86326114168181
H           -0.95624475362595       -2.62942762670085        0.92770584873677
H           -0.96421264426904       -2.65499611555909       -0.85226768019815
H           -2.49024370715108       -2.42878522850891        0.04230765058487
H            2.42337548262066       -3.50173413555200       -0.08957077149221
25
 energy: -42.117099293233 gnorm: 0.013979932494 xtb: 6.6.1 (8d0f1dd)
C            3.04580969514897        0.70677500961377        0.07493669598718
N            2.42691499725438       -0.61808043602718       -0.01174757684197
C            3.33623979648925       -1.68578309752996       -0.03874211765297
N            3.16943215819948       -2.91854789066377       -0.07376394067947
C           -0.06588584167091       -0.15866880590955       -0.02399781577253
C            1.12769408464624       -0.72867418139468       -0.02845589003217
C           -0.43855023625447        1.33771384624654       -0.05243528880410
O            0.33454865630110        2.25315833186899       -0.07743666216853
N           -1.79542971864202        1.34293183635658       -0.02489375575471
C           -2.64340608070031        2.51831876546028       -0.02588696760568
C           -2.34218918251183        0.05781233535974        0.00996897529119
O           -3.50144418797999       -0.22954024146890        0.03492027024884
N           -1.26957838833416       -0.81937647028702        0.01159334487598
C           -1.43420271454238       -2.24272342778188        0.03663885600586
H            3.60612038628630        0.78507289523027        1.00738963790018
H            3.72269706314216        0.83652527203994       -0.77014557341287
H            2.28331193799887        1.48366620258191        0.04416351526708
H            4.36532251597037       -1.32576895178845       -0.01563418015452
H           -2.02448329471587        3.41226864565071       -0.03126373499170
H           -3.28963652023016        2.50523303207204       -0.90617507266381
H           -3.28131330061224        2.50933739803991        0.86047147072989
H           -0.97038740436449       -2.66173774663206        0.93125389607476
H           -0.97804042029699       -2.68915574040003       -0.84872455969507
H           -2.50299925825532       -2.45177032837565        0.04514074511589
H            2.27988677177631       -3.40074771061663       -0.09600265331081
25
 energy: -42.118211278615 gnorm: 0.012612166616 xtb: 6.6.1 (8d0f1dd)
C            3.04515599851184        0.73943943302610        0.08178118493639
N            2.43398307132108       -0.58770995278129       -0.00845253701188
C            3.32437254427457       -1.66299306022495       -0.04451525496343
N            3.09949057735644       -2.88871677596896       -0.08469109330963
C           -0.06607768875466       -0.18169419241367       -0.02165688687224
C            1.13701103910106       -0.73756807226885       -0.02265083059434
C           -0.41965475557751        1.30429670702603       -0.05589499686805
O            0.35209036274209        2.22308815985495       -0.08333668756891
N           -1.77801665607534        1.32647103288685       -0.02760592847105
C           -2.61239885810194        2.50816316394131       -0.02937231522230
C           -2.33525097200811        0.04650661906394        0.00979739165361
O           -3.49675896083447       -0.23075897768759        0.03535947538914
N           -1.26999952949968       -0.84131672924107        0.01365502023487
C           -1.44231686432730       -2.26454939270411        0.04041524136173
H            3.60793949166565        0.81843962193030        1.01255500181387
H            3.71951456365321        0.87696318531353       -0.76411709877103
H            2.28038605881126        1.51439475719868        0.05586517817567
H            4.36471343148901       -1.33901192099223       -0.02438158413974
H           -1.98176414350137        3.39413528057203       -0.03532089625810
H           -3.25656846399873        2.49903642334375       -0.91080885159071
H           -3.24801702604115        2.50398807949668        0.85829888219261
H           -0.98283225045111       -2.68747317614889        0.93563914623742
H           -0.98968068432508       -2.71687715435467       -0.84400399497205
H           -2.51229142640935       -2.46900362608219        0.04853778625678
H            2.18740265508199       -3.32901089114088       -0.10392373368269
25
 energy: -42.118631165770 gnorm: 0.008535240002 xtb: 6.6.1 (8d0f1dd)
C            3.04483392384412        0.75528959709327        0.09012449883745
N            2.43786513884945       -0.57244766892555       -0.00453224812243
C            3.31998148217143       -1.65609118555366       -0.05125255054374
N            3.06868781132930       -2.87457343579362       -0.09786685196810
C           -0.06482922805652       -0.19230042018654       -0.01924925918237
C            1.14251118521151       -0.74480836798987       -0.01777645240932
C           -0.41626054846432        1.29066887271161       -0.05909839491034
O            0.34955957026791        2.21535419441435       -0.09087984762878
N           -1.77365019332542        1.31616694495687       -0.03021443908095
C           -2.59525423845159        2.50384884909571       -0.03374513957002
C           -2.33163666346161        0.03777988047827        0.01036772892502
O           -3.49349873575522       -0.23737985114049        0.03634573744114
N           -1.26776498217524       -0.85366481301540        0.01675284263853
C           -1.44628454656858       -2.27690906522630        0.04527454993416
H            3.60966760135566        0.83492053416586        1.01977967543480
H            3.71727362393584        0.90071906485930       -0.75629384721804
H            2.27809596483931        1.52899725075867        0.06856951866258
H            4.36336717160470       -1.35136021145336       -0.03526353999107
H           -1.95122542114617        3.38080293322956       -0.04064038345991
H           -3.23741629462335        2.50130773056458       -0.91614775289007
H           -3.22903350615894        2.50804693287009        0.85475859530323
H           -0.99071822290931       -2.70302406519008        0.94112751514090
H           -0.99718805243315       -2.73434687384234       -0.83853409938426
H           -2.51750286411409       -2.47718190487703        0.05316125932216
H            2.14085153833680       -3.28157638035921       -0.11359549732461
