      -----------------------------------------------------------      
     |                   =====================                   |     
     |                           x T B                           |     
     |                   =====================                   |     
     |                         S. Grimme                         |     
     |          Mulliken Center for Theoretical Chemistry        |     
     |                    University of Bonn                     |     
      -----------------------------------------------------------      

   * xtb version 6.6.1 (8d0f1dd) compiled by 'conda@1efc2f54142f' on 2023-08-01

   xtb is free software: you can redistribute it and/or modify it under
   the terms of the GNU Lesser General Public License as published by
   the Free Software Foundation, either version 3 of the License, or
   (at your option) any later version.
   
   xtb is distributed in the hope that it will be useful,
   but WITHOUT ANY WARRANTY; without even the implied warranty of
   MERCHANTABILITY or FITNESS FOR A PARTICULAR PURPOSE.  See the
   GNU Lesser General Public License for more details.
   
   Cite this work as:
   * C. Bannwarth, E. Caldeweyher, S. Ehlert, A. Hansen, P. Pracht,
     J. Seibert, S. Spicher, S. Grimme, WIREs Comput. Mol. Sci., 2020, 11,
     e01493. DOI: 10.1002/wcms.1493
   
   for GFN2-xTB:
   * C. Bannwarth, S. Ehlert and S. Grimme., J. Chem. Theory Comput., 2019,
     15, 1652-1671. DOI: 10.1021/acs.jctc.8b01176
   for GFN1-xTB:
   * S. Grimme, C. Bannwarth, P. Shushkov, J. Chem. Theory Comput., 2017,
     13, 1989-2009. DOI: 10.1021/acs.jctc.7b00118
   for GFN0-xTB:
   * P. Pracht, E. Caldeweyher, S. Ehlert, S. Grimme, ChemRxiv, 2019, preprint.
     DOI: 10.26434/chemrxiv.8326202.v1
   for GFN-FF:
   * S. Spicher and S. Grimme, Angew. Chem. Int. Ed., 2020, 59, 15665-15673.
     DOI: 10.1002/anie.202004239
   
   for ALPB and GBSA implicit solvation:
   * S. Ehlert, M. Stahn, S. Spicher, S. Grimme, J. Chem. Theory Comput.,
     2021, 17, 4250-4261. DOI: 10.1021/acs.jctc.1c00471
   
   for DFT-D4:
   * E. Caldeweyher, C. Bannwarth and S. Grimme, J. Chem. Phys., 2017,
     147, 034112. DOI: 10.1063/1.4993215
   * E. Caldeweyher, S. Ehlert, A. Hansen, H. Neugebauer, S. Spicher,
     C. Bannwarth and S. Grimme, J. Chem. Phys., 2019, 150, 154122.
     DOI: 10.1063/1.5090222
   * E. Caldeweyher, J.-M. Mewes, S. Ehlert and S. Grimme, Phys. Chem. Chem. Phys.
     2020, 22, 8499-8512. DOI: 10.1039/D0CP00502A
   
   for sTDA-xTB:
   * S. Grimme and C. Bannwarth, J. Chem. Phys., 2016, 145, 054103.
     DOI: 10.1063/1.4959605
   
   in the mass-spec context:
   * V. Asgeirsson, C. Bauer and S. Grimme, Chem. Sci., 2017, 8, 4879.
     DOI: 10.1039/c7sc00601b
   * J. Koopman and S. Grimme, ACS Omega 2019, 4, 12, 15120-15133.
     DOI: 10.1021/acsomega.9b02011
   
   for metadynamics refer to:
   * S. Grimme, J. Chem. Theory Comput., 2019, 155, 2847-2862
     DOI: 10.1021/acs.jctc.9b00143
   
   for SPH calculations refer to:
   * S. Spicher and S. Grimme, J. Chem. Theory Comput., 2021, 17, 1701-1714
     DOI: 10.1021/acs.jctc.0c01306
   
   with help from (in alphabetical order)
   P. Atkinson, C. Bannwarth, F. Bohle, G. Brandenburg, E. Caldeweyher
   M. Checinski, S. Dohm, S. Ehlert, S. Ehrlich, I. Gerasimov, C. Hölzer
   A. Katbashev, J. Koopman, C. Lavigne, S. Lehtola, F. März, M. Müller,
   F. Musil, H. Neugebauer, J. Pisarek, C. Plett, P. Pracht, F. Pultar,
   J. Seibert, P. Shushkov, S. Spicher, M. Stahn, M. Steiner, T. Strunk,
   J. Stückrath, T. Rose, and J. Unsleber
   
 * started run on 2024/04/06 at 11:15:38.171     

           -------------------------------------------------
          |                Calculation Setup                |
           -------------------------------------------------

          program call               : xtb struc.xyz --opt loose --input .xc1 --gfn2
          hostname                   : n-62-30-23
          coordinate file            : struc.xyz
          omp threads                :                     1

   ID    Z sym.   atoms
    1    7 N      1, 17
    2    6 C      2-6, 8, 9, 11-16, 18-23, 25, 26, 28-33
    3    8 O      7, 10, 24, 27
    4    1 H      34-72
constraining bond 4 44 to    3.7133300 Å, actual value:    3.4498419 Å

           -------------------------------------------------
          |                 G F N 2 - x T B                 |
           -------------------------------------------------

        Reference                      10.1021/acs.jctc.8b01176
      * Hamiltonian:
        H0-scaling (s, p, d)           1.850000    2.230000    2.230000
        zeta-weighting                 0.500000
      * Dispersion:
        s8                             2.700000
        a1                             0.520000
        a2                             5.000000
        s9                             5.000000
      * Repulsion:
        kExp                           1.500000    1.000000
        rExp                           1.000000
      * Coulomb:
        alpha                          2.000000
        third order                    shell-resolved
        anisotropic                    true
        a3                             3.000000
        a5                             4.000000
        cn-shift                       1.200000
        cn-exp                         4.000000
        max-rad                        5.000000


          ...................................................
          :                      SETUP                      :
          :.................................................:
          :  # basis functions                 171          :
          :  # atomic orbitals                 171          :
          :  # shells                          105          :
          :  # electrons                       180          :
          :  max. iterations                   250          :
          :  Hamiltonian                  GFN2-xTB          :
          :  restarted?                      false          :
          :  GBSA solvation                  false          :
          :  PC potential                    false          :
          :  electronic temp.         5000.0000000     K    :
          :  accuracy                    1.0000000          :
          :  -> integral cutoff          0.2500000E+02      :
          :  -> integral neglect         0.1000000E-07      :
          :  -> SCF convergence          0.1000000E-05 Eh   :
          :  -> wf. convergence          0.1000000E-03 e    :
          :  Broyden damping             0.4000000          :
          ...................................................

 iter      E             dE          RMSdq      gap      omega  full diag
   1   -100.5973919 -0.100597E+03  0.374E+00    3.20       0.0  T
   2   -100.7362642 -0.138872E+00  0.221E+00    1.08       1.0  T
   3   -100.7049001  0.313641E-01  0.141E+00    3.29       1.0  T
   4   -100.7721690 -0.672689E-01  0.526E-01    1.50       1.0  T
   5   -100.7894292 -0.172602E-01  0.190E-01    1.98       1.0  T
   6   -100.7911978 -0.176856E-02  0.792E-02    1.77       1.0  T
   7   -100.7914750 -0.277198E-03  0.375E-02    1.83       1.0  T
   8   -100.7914914 -0.164582E-04  0.140E-02    1.83       1.0  T
   9   -100.7914976 -0.616739E-05  0.474E-03    1.82       2.5  T
  10   -100.7914988 -0.118227E-05  0.172E-03    1.82       6.8  T
  11   -100.7914989 -0.139928E-06  0.766E-04    1.82      15.4  T
  12   -100.7914989 -0.773143E-08  0.318E-04    1.82      37.0  T

   *** convergence criteria satisfied after 12 iterations ***

         #    Occupation            Energy/Eh            Energy/eV
      -------------------------------------------------------------
         1        2.0000           -0.8078051             -21.9815
       ...           ...                  ...                  ...
        84        1.9966           -0.5157491             -14.0342
        85        1.9959           -0.5128261             -13.9547
        86        1.9840           -0.4911498             -13.3649
        87        1.9795           -0.4872543             -13.2589
        88        1.9640           -0.4782114             -13.0128
        89        1.8920           -0.4602041             -12.5228
        90        1.8557           -0.4553147             -12.3897 (HOMO)
        91        0.3166           -0.3884132             -10.5693 (LUMO)
        92        0.0218           -0.3434697              -9.3463
        93        0.0041           -0.3169887              -8.6257
        94        0.0034           -0.3139726              -8.5436
        95        0.0029           -0.3112618              -8.4699
       ...           ...                  ...                  ...
       171                          0.5822580              15.8440
      -------------------------------------------------------------
                  HL-Gap            0.0669015 Eh            1.8205 eV
             Fermi-level           -0.4148687 Eh          -11.2892 eV

 SCC (total)                   0 d,  0 h,  0 min,  0.190 sec
 SCC setup                      ...        0 min,  0.001 sec (  0.579%)
 Dispersion                     ...        0 min,  0.002 sec (  0.985%)
 classical contributions        ...        0 min,  0.000 sec (  0.247%)
 integral evaluation            ...        0 min,  0.018 sec (  9.727%)
 iterations                     ...        0 min,  0.098 sec ( 51.710%)
 molecular gradient             ...        0 min,  0.069 sec ( 36.395%)
 printout                       ...        0 min,  0.001 sec (  0.349%)

         :::::::::::::::::::::::::::::::::::::::::::::::::::::
         ::                     SUMMARY                     ::
         :::::::::::::::::::::::::::::::::::::::::::::::::::::
         :: total energy             -99.416527147587 Eh    ::
         :: gradient norm              0.082566884624 Eh/a0 ::
         :: HOMO-LUMO gap              1.820481192090 eV    ::
         ::.................................................::
         :: SCC energy              -100.791498925389 Eh    ::
         :: -> isotropic ES            0.109302908418 Eh    ::
         :: -> anisotropic ES          0.005415138735 Eh    ::
         :: -> anisotropic XC          0.042392697176 Eh    ::
         :: -> dispersion             -0.075527661009 Eh    ::
         :: repulsion energy           1.386151658689 Eh    ::
         :: add. restraining          -0.012396233393 Eh    ::
         :: total charge               1.000000000108 e     ::
         :::::::::::::::::::::::::::::::::::::::::::::::::::::

      ----------------------------------------------------------- 
     |                   =====================                   |
     |                        A N C O P T                        |
     |                   =====================                   |
     |               Approximate Normal Coordinate               |
     |                Rational Function Optimizer                |
      ----------------------------------------------------------- 

          ...................................................
          :                      SETUP                      :
          :.................................................:
          :   optimization level             loose          :
          :   max. optcycles                   200          :
          :   ANC micro-cycles                  20          :
          :   degrees of freedom               210          :
          :.................................................:
          :   RF solver                   davidson          :
          :   write xtbopt.log                true          :
          :   linear?                        false          :
          :   energy convergence         0.5000000E-04 Eh   :
          :   grad. convergence          0.4000000E-02 Eh/α :
          :   maxmium RF displ.          1.0000000          :
          :   Hlow (freq-cutoff)         0.1000000E-01      :
          :   Hmax (freq-cutoff)         5.0000000          :
          :   S6 in model hess.         20.0000000          :
          ...................................................

generating ANC from model Hessian ...
Using Lindh-Hessian (1995)
 Shifting diagonal of input Hessian by    3.0917045806284883E-002
 Lowest  eigenvalues of input Hessian
    0.010000    0.000000    0.000000    0.000000    0.000000    0.000000
    0.000000    0.030985    0.031025    0.031087    0.031198    0.031286
    0.031622    0.031700    0.031972    0.032152    0.032770    0.033039
 Highest eigenvalues
    2.056880    2.064990    2.072498    2.199969    2.205416    2.207259


........................................................................
.............................. CYCLE    1 ..............................
........................................................................

 iter      E             dE          RMSdq      gap      omega  full diag
   1   -100.7914989 -0.100791E+03  0.114E-04    1.82       0.0  T
   2   -100.7914989 -0.678995E-10  0.713E-05    1.82     165.2  T
   3   -100.7914989  0.665210E-10  0.496E-05    1.82     237.5  T
     SCC iter.                  ...        0 min,  0.026 sec
     gradient                   ...        0 min,  0.069 sec
 * total energy  :   -99.4165272 Eh     change       -0.4035485E-08 Eh
   gradient norm :     0.0825691 Eh/α   predicted     0.0000000E+00 (-100.00%)
   displ. norm   :     0.8457667 α      lambda       -0.4777176E-01
   maximum displ.:     0.8163754 α      in ANC's #1, #18, #38, ...

........................................................................
.............................. CYCLE    2 ..............................
........................................................................

 iter      E             dE          RMSdq      gap      omega  full diag
   1   -100.7631667 -0.100763E+03  0.448E-01    1.69       0.0  T
   2   -100.7633226 -0.155878E-03  0.271E-01    1.83       1.0  T
   3   -100.7597149  0.360772E-02  0.201E-01    1.52       1.0  T
   4   -100.7635295 -0.381464E-02  0.469E-02    1.81       1.0  T
   5   -100.7637483 -0.218781E-03  0.116E-02    1.76       1.0  T
   6   -100.7637532 -0.496290E-05  0.542E-03    1.76       2.2  T
   7   -100.7637537 -0.450685E-06  0.185E-03    1.76       6.4  T
   8   -100.7637538 -0.145644E-06  0.771E-04    1.76      15.3  T
   9   -100.7637539 -0.233216E-07  0.311E-04    1.76      37.9  T
     SCC iter.                  ...        0 min,  0.072 sec
     gradient                   ...        0 min,  0.070 sec
 * total energy  :   -99.4654497 Eh     change       -0.4892251E-01 Eh
   gradient norm :     0.0859303 Eh/α   predicted    -0.4097350E-01 ( -16.25%)
   displ. norm   :     0.9696271 α      lambda       -0.5855029E-01
   maximum displ.:     0.9094402 α      in ANC's #1, #38, #40, ...

........................................................................
.............................. CYCLE    3 ..............................
........................................................................

 iter      E             dE          RMSdq      gap      omega  full diag
   1   -100.6048521 -0.100605E+03  0.562E-01    0.95       0.0  T
   2   -100.6010625  0.378956E-02  0.552E-01    1.72       1.0  T
   3   -100.6203315 -0.192690E-01  0.257E-01    1.21       1.0  T
   4   -100.6182011  0.213041E-02  0.161E-01    1.38       1.0  T
   5   -100.6208887 -0.268754E-02  0.480E-02    1.27       1.0  T
   6   -100.6210586 -0.169956E-03  0.199E-02    1.30       1.0  T
   7   -100.6210748 -0.162068E-04  0.799E-03    1.29       1.5  T
   8   -100.6210796 -0.480496E-05  0.278E-03    1.29       4.2  T
   9   -100.6210799 -0.252042E-06  0.103E-03    1.29      11.4  T
  10   -100.6210799 -0.317694E-07  0.465E-04    1.29      25.4  T
  11   -100.6210799 -0.892940E-08  0.180E-04    1.29      65.3  T
     SCC iter.                  ...        0 min,  0.088 sec
     gradient                   ...        0 min,  0.072 sec
 * total energy  :   -99.5310588 Eh     change       -0.6560918E-01 Eh
   gradient norm :     0.1894155 Eh/α   predicted    -0.5679899E-01 ( -13.43%)
   displ. norm   :     0.9225678 α      lambda       -0.1058242E+00
   maximum displ.:     0.8377832 α      in ANC's #1, #82, #79, ...

........................................................................
.............................. CYCLE    4 ..............................
........................................................................

 iter      E             dE          RMSdq      gap      omega  full diag
   1   -100.4519864 -0.100452E+03  0.933E-01    0.26       0.0  T
   2   -100.4380409  0.139454E-01  0.878E-01    1.35       1.0  T
   3   -100.4855733 -0.475324E-01  0.482E-01    0.35       1.0  T
   4   -100.4881207 -0.254734E-02  0.332E-01    0.88       1.0  T
   5   -100.4971918 -0.907110E-02  0.857E-02    0.62       1.0  T
   6   -100.4977663 -0.574518E-03  0.279E-02    0.65       1.0  T
   7   -100.4977996 -0.332959E-04  0.122E-02    0.64       1.0  T
   8   -100.4978069 -0.729827E-05  0.560E-03    0.65       2.1  T
   9   -100.4978086 -0.176032E-05  0.191E-03    0.64       6.2  T
  10   -100.4978088 -0.205850E-06  0.779E-04    0.64      15.1  T
  11   -100.4978089 -0.248931E-07  0.335E-04    0.64      35.2  T
     SCC iter.                  ...        0 min,  0.089 sec
     gradient                   ...        0 min,  0.069 sec
 * total energy  :   -99.7134880 Eh     change       -0.1824291E+00 Eh
   gradient norm :     0.3359896 Eh/α   predicted    -0.9794733E-01 ( -46.31%)
   displ. norm   :     0.9047645 α      lambda       -0.2496198E+00
   maximum displ.:     0.7820955 α      in ANC's #1, #82, #79, ...

........................................................................
.............................. CYCLE    5 ..............................
........................................................................

 iter      E             dE          RMSdq      gap      omega  full diag
   1   -100.4051361 -0.100405E+03  0.648E-01    0.47       0.0  T
   2   -100.4085048 -0.336875E-02  0.338E-01    0.36       1.0  T
   3   -100.4043844  0.412042E-02  0.324E-01    0.64       1.0  T
   4   -100.4046976 -0.313145E-03  0.274E-01    0.24       1.0  T
   5   -100.4111752 -0.647765E-02  0.679E-02    0.48       1.0  T
   6   -100.4116836 -0.508415E-03  0.127E-02    0.44       1.0  T
   7   -100.4116876 -0.391785E-05  0.570E-03    0.44       2.1  T
   8   -100.4116887 -0.112016E-05  0.187E-03    0.44       6.3  T
   9   -100.4116888 -0.116976E-06  0.916E-04    0.44      12.9  T
  10   -100.4116888 -0.506669E-07  0.408E-04    0.44      28.9  T
     SCC iter.                  ...        0 min,  0.081 sec
     gradient                   ...        0 min,  0.075 sec
 * total energy  :   -99.9690683 Eh     change       -0.2555803E+00 Eh
   gradient norm :     0.4856444 Eh/α   predicted    -0.2269792E+00 ( -11.19%)
   displ. norm   :     0.8066873 α      lambda       -0.3397112E+00
   maximum displ.:     0.3540410 α      in ANC's #1, #82, #54, ...

........................................................................
.............................. CYCLE    6 ..............................
........................................................................

 iter      E             dE          RMSdq      gap      omega  full diag
   1   -100.3195788 -0.100320E+03  0.807E-01    0.24       0.0  T
   2   -100.2939139  0.256649E-01  0.657E-01    0.41       1.0  T
   3   -100.3362540 -0.423401E-01  0.402E-01    0.35       1.0  T
   4   -100.3462209 -0.996691E-02  0.246E-01    0.35       1.0  T
   5   -100.3481758 -0.195484E-02  0.150E-01    0.58       1.0  T
   6   -100.3505661 -0.239033E-02  0.302E-02    0.44       1.0  T
   7   -100.3506381 -0.720398E-04  0.147E-02    0.46       1.0  T
   8   -100.3506484 -0.102953E-04  0.715E-03    0.46       1.6  T
   9   -100.3506507 -0.232133E-05  0.249E-03    0.46       4.7  T
  10   -100.3506510 -0.306823E-06  0.990E-04    0.46      11.9  T
  11   -100.3506511 -0.469707E-07  0.390E-04    0.46      30.2  T
     SCC iter.                  ...        0 min,  0.088 sec
     gradient                   ...        0 min,  0.069 sec
 * total energy  :  -100.1753866 Eh     change       -0.2063183E+00 Eh
   gradient norm :     0.5245695 Eh/α   predicted    -0.2803882E+00 (  35.90%)
   displ. norm   :     0.8753227 α      lambda       -0.3351890E+00
   maximum displ.:     0.5983945 α      in ANC's #1, #82, #79, ...

........................................................................
.............................. CYCLE    7 ..............................
........................................................................

 iter      E             dE          RMSdq      gap      omega  full diag
   1   -100.2615620 -0.100262E+03  0.852E-01    0.61       0.0  T
   2   -100.2120814  0.494806E-01  0.796E-01    0.39       1.0  T
   3   -100.2585570 -0.464757E-01  0.589E-01    0.57       1.0  T
   4   -100.2856744 -0.271174E-01  0.247E-01    0.48       1.0  T
   5   -100.2856641  0.102962E-04  0.197E-01    0.63       1.0  T
   6   -100.2897292 -0.406508E-02  0.602E-02    0.53       1.0  T
   7   -100.2900742 -0.344971E-03  0.131E-02    0.56       1.0  T
   8   -100.2900733  0.878262E-06  0.129E-02    0.55       1.0  T
   9   -100.2900853 -0.120135E-04  0.691E-03    0.56       1.7  T
  10   -100.2900900 -0.463221E-05  0.149E-03    0.56       7.9  T
  11   -100.2900901 -0.181392E-06  0.601E-04    0.56      19.6  T
  12   -100.2900902 -0.335206E-07  0.216E-04    0.56      54.6  T
     SCC iter.                  ...        0 min,  0.096 sec
     gradient                   ...        0 min,  0.069 sec
 * total energy  :   -99.8935246 Eh     change        0.2818621E+00 Eh
   gradient norm :     3.3262219 Eh/α   predicted    -0.2960038E+00 (-205.02%)
   displ. norm   :     0.4851901 α      lambda       -0.1530371E+01
   maximum displ.:     0.2972636 α      in ANC's #1, #115, #123, ...

........................................................................
.............................. CYCLE    8 ..............................
........................................................................

 iter      E             dE          RMSdq      gap      omega  full diag
   1   -100.3170785 -0.100317E+03  0.488E-01    0.20       0.0  T
   2   -100.2843959  0.326826E-01  0.641E-01    0.83       1.0  T
   3   -100.3243810 -0.399851E-01  0.254E-01    0.28       1.0  T
   4   -100.3282470 -0.386601E-02  0.149E-01    0.38       1.0  T
   5   -100.3285920 -0.344936E-03  0.107E-01    0.42       1.0  T
   6   -100.3297857 -0.119371E-02  0.285E-02    0.39       1.0  T
   7   -100.3298524 -0.666999E-04  0.950E-03    0.40       1.2  T
   8   -100.3298499  0.247753E-05  0.826E-03    0.40       1.4  T
   9   -100.3298560 -0.609167E-05  0.312E-03    0.40       3.8  T
  10   -100.3298568 -0.793597E-06  0.110E-03    0.40      10.7  T
  11   -100.3298569 -0.538499E-07  0.512E-04    0.40      23.0  T
  12   -100.3298569 -0.208203E-07  0.240E-04    0.40      49.1  T
     SCC iter.                  ...        0 min,  0.096 sec
     gradient                   ...        0 min,  0.069 sec
 * total energy  :  -100.3404853 Eh     change       -0.4469608E+00 Eh
   gradient norm :     0.3228803 Eh/α   predicted    -0.9453179E+00 ( 111.50%)
   displ. norm   :     0.6651905 α      lambda       -0.9361422E-01
   maximum displ.:     0.1579934 α      in ANC's #42, #66, #154, ...

........................................................................
.............................. CYCLE    9 ..............................
........................................................................

 iter      E             dE          RMSdq      gap      omega  full diag
   1   -100.3430059 -0.100343E+03  0.452E-01    0.05       0.0  T
   2   -100.2924828  0.505231E-01  0.737E-01    0.38       1.0  T
   3   -100.3567761 -0.642933E-01  0.212E-01    0.18       1.0  T
   4   -100.3538926  0.288353E-02  0.188E-01    0.20       1.0  T
   5   -100.3569156 -0.302298E-02  0.880E-02    0.24       1.0  T
   6   -100.3575826 -0.667023E-03  0.380E-02    0.23       1.0  T
   7   -100.3577401 -0.157537E-03  0.145E-02    0.21       1.0  T
   8   -100.3577524 -0.123075E-04  0.849E-03    0.22       1.4  T
   9   -100.3577581 -0.567096E-05  0.315E-03    0.22       3.7  T
  10   -100.3577587 -0.614934E-06  0.112E-03    0.22      10.5  T
  11   -100.3577588 -0.753549E-07  0.563E-04    0.22      20.9  T
  12   -100.3577588 -0.149943E-07  0.202E-04    0.22      58.4  T
     SCC iter.                  ...        0 min,  0.097 sec
     gradient                   ...        0 min,  0.069 sec
 * total energy  :  -100.3939045 Eh     change       -0.5341923E-01 Eh
   gradient norm :     0.2560540 Eh/α   predicted    -0.6751824E-01 (  26.39%)
   displ. norm   :     0.8962182 α      lambda       -0.1173961E+00
   maximum displ.:     0.3838671 α      in ANC's #1, #136, #116, ...

........................................................................
.............................. CYCLE   10 ..............................
........................................................................

 iter      E             dE          RMSdq      gap      omega  full diag
   1   -100.3706712 -0.100371E+03  0.620E-01    0.34       0.0  T
   2   -100.3689027  0.176855E-02  0.450E-01    0.22       1.0  T
   3   -100.3573669  0.115357E-01  0.440E-01    0.51       1.0  T
   4   -100.3710444 -0.136775E-01  0.218E-01    0.19       1.0  T
   5   -100.3745409 -0.349644E-02  0.115E-01    0.33       1.0  T
   6   -100.3759160 -0.137507E-02  0.240E-02    0.31       1.0  T
   7   -100.3759550 -0.389955E-04  0.147E-02    0.30       1.0  T
   8   -100.3759655 -0.105035E-04  0.674E-03    0.31       1.7  T
   9   -100.3759685 -0.307908E-05  0.288E-03    0.30       4.1  T
  10   -100.3759692 -0.715465E-06  0.145E-03    0.30       8.1  T
  11   -100.3759694 -0.198587E-06  0.566E-04    0.30      20.8  T
  12   -100.3759695 -0.238885E-07  0.208E-04    0.30      56.7  T
     SCC iter.                  ...        0 min,  0.096 sec
     gradient                   ...        0 min,  0.069 sec
 * total energy  :  -100.4382006 Eh     change       -0.4429609E-01 Eh
   gradient norm :     0.2347439 Eh/α   predicted    -0.1058449E+00 ( 138.95%)
   displ. norm   :     0.7168407 α      lambda       -0.8127207E-01
   maximum displ.:     0.2304830 α      in ANC's #38, #154, #40, ...

........................................................................
.............................. CYCLE   11 ..............................
........................................................................

 iter      E             dE          RMSdq      gap      omega  full diag
   1   -100.3808633 -0.100381E+03  0.514E-01    0.55       0.0  T
   2   -100.3573651  0.234983E-01  0.585E-01    0.21       1.0  T
   3   -100.3829675 -0.256024E-01  0.354E-01    0.56       1.0  T
   4   -100.3925434 -0.957594E-02  0.132E-01    0.46       1.0  T
   5   -100.3924139  0.129589E-03  0.855E-02    0.43       1.0  T
   6   -100.3930326 -0.618708E-03  0.288E-02    0.46       1.0  T
   7   -100.3931105 -0.779210E-04  0.800E-03    0.45       1.5  T
   8   -100.3931118 -0.127695E-05  0.430E-03    0.45       2.7  T
   9   -100.3931134 -0.159368E-05  0.124E-03    0.45       9.5  T
  10   -100.3931135 -0.108493E-06  0.565E-04    0.45      20.8  T
  11   -100.3931135 -0.577968E-08  0.283E-04    0.45      41.6  T
     SCC iter.                  ...        0 min,  0.087 sec
     gradient                   ...        0 min,  0.069 sec
 * total energy  :  -100.4580756 Eh     change       -0.1987497E-01 Eh
   gradient norm :     0.3956834 Eh/α   predicted    -0.6151747E-01 ( 209.52%)
   displ. norm   :     0.6165503 α      lambda       -0.5916960E-01
   maximum displ.:     0.2391801 α      in ANC's #51, #42, #79, ...

........................................................................
.............................. CYCLE   12 ..............................
........................................................................

 iter      E             dE          RMSdq      gap      omega  full diag
   1   -100.4145307 -0.100415E+03  0.367E-01    0.35       0.0  T
   2   -100.4027089  0.118218E-01  0.417E-01    0.45       1.0  T
   3   -100.4145334 -0.118245E-01  0.237E-01    0.33       1.0  T
   4   -100.4152345 -0.701153E-03  0.157E-01    0.43       1.0  T
   5   -100.4180740 -0.283949E-02  0.417E-02    0.40       1.0  T
   6   -100.4181676 -0.935626E-04  0.179E-02    0.41       1.0  T
   7   -100.4181955 -0.279122E-04  0.972E-03    0.40       1.2  T
   8   -100.4182025 -0.701318E-05  0.405E-03    0.41       2.9  T
   9   -100.4182026 -0.924114E-07  0.250E-03    0.40       4.7  T
  10   -100.4182033 -0.727372E-06  0.111E-03    0.41      10.7  T
  11   -100.4182034 -0.116761E-06  0.322E-04    0.41      36.7  T
  12   -100.4182034 -0.288998E-08  0.112E-04    0.41     105.0  T
     SCC iter.                  ...        0 min,  0.096 sec
     gradient                   ...        0 min,  0.069 sec
 * total energy  :  -100.4759385 Eh     change       -0.1786294E-01 Eh
   gradient norm :     0.1481411 Eh/α   predicted    -0.4083101E-01 ( 128.58%)
   displ. norm   :     0.5930204 α      lambda       -0.3874074E-01
   maximum displ.:     0.1837597 α      in ANC's #38, #32, #40, ...

........................................................................
.............................. CYCLE   13 ..............................
........................................................................

 iter      E             dE          RMSdq      gap      omega  full diag
   1   -100.4101707 -0.100410E+03  0.327E-01    0.54       0.0  T
   2   -100.4061711  0.399957E-02  0.278E-01    0.45       1.0  T
   3   -100.4097752 -0.360407E-02  0.216E-01    0.48       1.0  T
   4   -100.4121384 -0.236329E-02  0.140E-01    0.57       1.0  T
   5   -100.4130902 -0.951772E-03  0.779E-02    0.48       1.0  T
   6   -100.4137910 -0.700835E-03  0.238E-02    0.55       1.0  T
   7   -100.4138365 -0.454748E-04  0.608E-03    0.54       1.9  T
   8   -100.4138323  0.418157E-05  0.896E-03    0.54       1.3  T
   9   -100.4138386 -0.622003E-05  0.214E-03    0.54       5.5  T
  10   -100.4138387 -0.126331E-06  0.128E-03    0.54       9.2  T
  11   -100.4138388 -0.117575E-06  0.381E-04    0.54      31.0  T
  12   -100.4138388 -0.498589E-08  0.105E-04    0.54     112.5  T
     SCC iter.                  ...        0 min,  0.096 sec
     gradient                   ...        0 min,  0.069 sec
 * total energy  :  -100.4810741 Eh     change       -0.5135571E-02 Eh
   gradient norm :     0.3019723 Eh/α   predicted    -0.2618248E-01 ( 409.83%)
   displ. norm   :     0.7263575 α      lambda       -0.7551859E-01
   maximum displ.:     0.2115220 α      in ANC's #38, #40, #136, ...

........................................................................
.............................. CYCLE   14 ..............................
........................................................................

 iter      E             dE          RMSdq      gap      omega  full diag
   1   -100.4225440 -0.100423E+03  0.477E-01    0.80       0.0  T
   2   -100.4042306  0.183134E-01  0.529E-01    0.31       1.0  T
   3   -100.4223770 -0.181464E-01  0.324E-01    0.80       1.0  T
   4   -100.4269149 -0.453794E-02  0.157E-01    0.60       1.0  T
   5   -100.4290340 -0.211906E-02  0.504E-02    0.65       1.0  T
   6   -100.4292552 -0.221252E-03  0.181E-02    0.65       1.0  T
   7   -100.4292758 -0.205905E-04  0.612E-03    0.65       1.9  T
   8   -100.4292750  0.784916E-06  0.422E-03    0.65       2.8  T
   9   -100.4292765 -0.142815E-05  0.151E-03    0.64       7.8  T
  10   -100.4292767 -0.224170E-06  0.922E-04    0.64      12.8  T
  11   -100.4292768 -0.850358E-07  0.306E-04    0.65      38.5  T
     SCC iter.                  ...        0 min,  0.088 sec
     gradient                   ...        0 min,  0.069 sec
 * total energy  :  -100.4851033 Eh     change       -0.4029188E-02 Eh
   gradient norm :     0.2247927 Eh/α   predicted    -0.5768116E-01 (1331.58%)
   displ. norm   :     0.3792811 α      lambda       -0.4507463E-01
   maximum displ.:     0.1185490 α      in ANC's #1, #136, #154, ...

........................................................................
.............................. CYCLE   15 ..............................
........................................................................

 iter      E             dE          RMSdq      gap      omega  full diag
   1   -100.4614501 -0.100461E+03  0.281E-01    0.67       0.0  T
   2   -100.4623837 -0.933571E-03  0.207E-01    0.61       1.0  T
   3   -100.4633583 -0.974640E-03  0.124E-01    0.72       1.0  T
   4   -100.4618275  0.153083E-02  0.150E-01    0.53       1.0  T
   5   -100.4638050 -0.197749E-02  0.493E-02    0.68       1.0  T
   6   -100.4640478 -0.242833E-03  0.799E-03    0.65       1.5  T
   7   -100.4640508 -0.299160E-05  0.508E-03    0.65       2.3  T
   8   -100.4640523 -0.149340E-05  0.231E-03    0.65       5.1  T
   9   -100.4640527 -0.386483E-06  0.783E-04    0.65      15.0  T
  10   -100.4640527 -0.256954E-07  0.430E-04    0.65      27.4  T
     SCC iter.                  ...        0 min,  0.080 sec
     gradient                   ...        0 min,  0.069 sec
 * total energy  :  -100.5108023 Eh     change       -0.2569896E-01 Eh
   gradient norm :     0.2437463 Eh/α   predicted    -0.2577936E-01 (   0.31%)
   displ. norm   :     0.6021019 α      lambda       -0.4760538E-01
   maximum displ.:     0.1574907 α      in ANC's #37, #51, #80, ...

........................................................................
.............................. CYCLE   16 ..............................
........................................................................

 iter      E             dE          RMSdq      gap      omega  full diag
   1   -100.4788330 -0.100479E+03  0.386E-01    0.60       0.0  T
   2   -100.4636183  0.152147E-01  0.482E-01    0.84       1.0  T
   3   -100.4826856 -0.190672E-01  0.195E-01    0.59       1.0  T
   4   -100.4812557  0.142983E-02  0.173E-01    0.79       1.0  T
   5   -100.4839546 -0.269884E-02  0.563E-02    0.63       1.0  T
   6   -100.4842696 -0.315029E-03  0.120E-02    0.66       1.0  T
   7   -100.4842788 -0.919389E-05  0.515E-03    0.66       2.3  T
   8   -100.4842794 -0.637488E-06  0.255E-03    0.66       4.6  T
   9   -100.4842799 -0.426661E-06  0.882E-04    0.66      13.4  T
  10   -100.4842799 -0.417251E-07  0.424E-04    0.66      27.8  T
     SCC iter.                  ...        0 min,  0.080 sec
     gradient                   ...        0 min,  0.069 sec
 * total energy  :  -100.5112817 Eh     change       -0.4794933E-03 Eh
   gradient norm :     0.3262958 Eh/α   predicted    -0.3243182E-01 (6663.77%)
   displ. norm   :     0.3603797 α      lambda       -0.4226999E-01
   maximum displ.:     0.1331100 α      in ANC's #37, #38, #32, ...

........................................................................
.............................. CYCLE   17 ..............................
........................................................................

 iter      E             dE          RMSdq      gap      omega  full diag
   1   -100.4993053 -0.100499E+03  0.232E-01    0.79       0.0  T
   2   -100.4950527  0.425255E-02  0.249E-01    0.63       1.0  T
   3   -100.5001411 -0.508832E-02  0.137E-01    0.82       1.0  T
   4   -100.5004059 -0.264812E-03  0.984E-02    0.68       1.0  T
   5   -100.5012914 -0.885522E-03  0.318E-02    0.76       1.0  T
   6   -100.5013928 -0.101395E-03  0.764E-03    0.74       1.5  T
   7   -100.5013982 -0.544743E-05  0.320E-03    0.74       3.7  T
   8   -100.5013986 -0.333678E-06  0.184E-03    0.74       6.4  T
   9   -100.5013988 -0.194323E-06  0.685E-04    0.74      17.2  T
  10   -100.5013988 -0.292637E-07  0.243E-04    0.74      48.4  T
     SCC iter.                  ...        0 min,  0.080 sec
     gradient                   ...        0 min,  0.069 sec
 * total energy  :  -100.5395046 Eh     change       -0.2822286E-01 Eh
   gradient norm :     0.1179076 Eh/α   predicted    -0.2387990E-01 ( -15.39%)
   displ. norm   :     0.5882866 α      lambda       -0.3128852E-01
   maximum displ.:     0.1505533 α      in ANC's #37, #166, #1, ...

........................................................................
.............................. CYCLE   18 ..............................
........................................................................

 iter      E             dE          RMSdq      gap      omega  full diag
   1   -100.5419248 -0.100542E+03  0.324E-01    0.98       0.0  T
   2   -100.5351201  0.680460E-02  0.381E-01    0.63       1.0  T
   3   -100.5442385 -0.911836E-02  0.155E-01    0.94       1.0  T
   4   -100.5441196  0.118931E-03  0.103E-01    0.79       1.0  T
   5   -100.5448838 -0.764211E-03  0.403E-02    0.87       1.0  T
   6   -100.5450210 -0.137181E-03  0.126E-02    0.86       1.0  T
   7   -100.5450389 -0.179109E-04  0.408E-03    0.86       2.9  T
   8   -100.5450399 -0.102671E-05  0.170E-03    0.86       7.0  T
   9   -100.5450400 -0.102932E-06  0.668E-04    0.86      17.6  T
  10   -100.5450400 -0.142638E-07  0.250E-04    0.86      47.2  T
     SCC iter.                  ...        0 min,  0.080 sec
     gradient                   ...        0 min,  0.069 sec
 * total energy  :  -100.5698362 Eh     change       -0.3033160E-01 Eh
   gradient norm :     0.1262531 Eh/α   predicted    -0.2105841E-01 ( -30.57%)
   displ. norm   :     0.8374045 α      lambda       -0.6098455E-01
   maximum displ.:     0.2687394 α      in ANC's #166, #186, #157, ...

........................................................................
.............................. CYCLE   19 ..............................
........................................................................

 iter      E             dE          RMSdq      gap      omega  full diag
   1   -100.5824290 -0.100582E+03  0.590E-01    0.87       0.0  T
   2   -100.4884492  0.939798E-01  0.117E+00    0.27       1.0  T
   3   -100.5991358 -0.110687E+00  0.295E-01    0.70       1.0  T
   4   -100.5958689  0.326690E-02  0.242E-01    0.60       1.0  T
   5   -100.5987975 -0.292857E-02  0.111E-01    0.71       1.0  T
   6   -100.5998518 -0.105432E-02  0.327E-02    0.73       1.0  T
   7   -100.5999611 -0.109239E-03  0.918E-03    0.73       1.3  T
   8   -100.5999649 -0.383732E-05  0.330E-03    0.73       3.6  T
   9   -100.5999652 -0.353515E-06  0.152E-03    0.73       7.7  T
  10   -100.5999653 -0.772645E-07  0.713E-04    0.73      16.5  T
  11   -100.5999654 -0.334209E-07  0.305E-04    0.73      38.6  T
     SCC iter.                  ...        0 min,  0.088 sec
     gradient                   ...        0 min,  0.069 sec
 * total energy  :  -100.6069803 Eh     change       -0.3714407E-01 Eh
   gradient norm :     0.2150196 Eh/α   predicted    -0.5187490E-01 (  39.66%)
   displ. norm   :     0.4258787 α      lambda       -0.3311638E-01
   maximum displ.:     0.1621848 α      in ANC's #1, #166, #42, ...

........................................................................
.............................. CYCLE   20 ..............................
........................................................................

 iter      E             dE          RMSdq      gap      omega  full diag
   1   -100.6176983 -0.100618E+03  0.233E-01    0.58       0.0  T
   2   -100.6036492  0.140491E-01  0.442E-01    0.35       1.0  T
   3   -100.6201499 -0.165007E-01  0.119E-01    0.54       1.0  T
   4   -100.6198796  0.270308E-03  0.776E-02    0.50       1.0  T
   5   -100.6202165 -0.336839E-03  0.303E-02    0.52       1.0  T
   6   -100.6202819 -0.654342E-04  0.111E-02    0.53       1.1  T
   7   -100.6202902 -0.830178E-05  0.633E-03    0.53       1.9  T
   8   -100.6202934 -0.322056E-05  0.209E-03    0.53       5.6  T
   9   -100.6202937 -0.269025E-06  0.561E-04    0.53      21.0  T
  10   -100.6202937 -0.755941E-08  0.227E-04    0.53      52.0  T
     SCC iter.                  ...        0 min,  0.080 sec
     gradient                   ...        0 min,  0.069 sec
 * total energy  :  -100.6358599 Eh     change       -0.2887968E-01 Eh
   gradient norm :     0.1804296 Eh/α   predicted    -0.1956141E-01 ( -32.27%)
   displ. norm   :     0.5996791 α      lambda       -0.6241061E-01
   maximum displ.:     0.1826004 α      in ANC's #163, #166, #53, ...
 * RMSD in coord.:     0.7272067 α      energy gain  -0.1219333E+01 Eh

generating ANC from model Hessian ...
Using Lindh-Hessian (1995)
 Shifting diagonal of input Hessian by    9.9281880151645425E-003
 Lowest  eigenvalues of input Hessian
    0.000000    0.000000    0.000000    0.000000    0.000000    0.000000
    0.010000    0.010042    0.010111    0.010207    0.010364    0.010501
    0.010615    0.010764    0.010832    0.011226    0.011639    0.012115
 Highest eigenvalues
    1.977962    2.048629    2.074564    2.112578    2.179305    2.199179


........................................................................
.............................. CYCLE   21 ..............................
........................................................................

 iter      E             dE          RMSdq      gap      omega  full diag
   1   -100.6151322 -0.100615E+03  0.324E-01    0.47       0.0  T
   2   -100.6102740  0.485824E-02  0.364E-01    0.29       1.0  T
   3   -100.6180513 -0.777731E-02  0.226E-01    0.59       1.0  T
   4   -100.6157914  0.225987E-02  0.250E-01    0.27       1.0  T
   5   -100.6191520 -0.336062E-02  0.135E-01    0.45       1.0  T
   6   -100.6208644 -0.171241E-02  0.459E-02    0.45       1.0  T
   7   -100.6210452 -0.180741E-03  0.686E-03    0.44       1.7  T
   8   -100.6210453 -0.110271E-06  0.386E-03    0.44       3.1  T
   9   -100.6210458 -0.500343E-06  0.174E-03    0.44       6.8  T
  10   -100.6210459 -0.149147E-06  0.737E-04    0.44      16.0  T
  11   -100.6210460 -0.283964E-07  0.325E-04    0.44      36.2  T
     SCC iter.                  ...        0 min,  0.088 sec
     gradient                   ...        0 min,  0.069 sec
 * total energy  :  -100.6693502 Eh     change       -0.3349027E-01 Eh
   gradient norm :     0.0956773 Eh/α   predicted     0.0000000E+00 (-100.00%)
   displ. norm   :     0.5094157 α      lambda       -0.2322021E-01
   maximum displ.:     0.1753643 α      in ANC's #50, #40, #48, ...

........................................................................
.............................. CYCLE   22 ..............................
........................................................................

 iter      E             dE          RMSdq      gap      omega  full diag
   1   -100.6360854 -0.100636E+03  0.193E-01    0.34       0.0  T
   2   -100.6272607  0.882471E-02  0.324E-01    0.68       1.0  T
   3   -100.6365020 -0.924132E-02  0.120E-01    0.37       1.0  T
   4   -100.6358101  0.691932E-03  0.113E-01    0.40       1.0  T
   5   -100.6371571 -0.134702E-02  0.246E-02    0.43       1.0  T
   6   -100.6372144 -0.573204E-04  0.745E-03    0.42       1.6  T
   7   -100.6372193 -0.488291E-05  0.341E-03    0.42       3.5  T
   8   -100.6372201 -0.732149E-06  0.107E-03    0.42      11.1  T
   9   -100.6372201 -0.362502E-07  0.429E-04    0.42      27.5  T
  10   -100.6372201 -0.800125E-08  0.186E-04    0.42      63.3  T
     SCC iter.                  ...        0 min,  0.080 sec
     gradient                   ...        0 min,  0.069 sec
 * total energy  :  -100.6867162 Eh     change       -0.1736598E-01 Eh
   gradient norm :     0.0799673 Eh/α   predicted    -0.1462720E-01 ( -15.77%)
   displ. norm   :     0.6405752 α      lambda       -0.2025762E-01
   maximum displ.:     0.2026867 α      in ANC's #48, #50, #40, ...

........................................................................
.............................. CYCLE   23 ..............................
........................................................................

 iter      E             dE          RMSdq      gap      omega  full diag
   1   -100.6426394 -0.100643E+03  0.255E-01    0.40       0.0  T
   2   -100.6191880  0.234514E-01  0.526E-01    0.84       1.0  T
   3   -100.6453582 -0.261702E-01  0.118E-01    0.47       1.0  T
   4   -100.6446798  0.678389E-03  0.888E-02    0.46       1.0  T
   5   -100.6455114 -0.831616E-03  0.371E-02    0.49       1.0  T
   6   -100.6456431 -0.131633E-03  0.930E-03    0.48       1.3  T
   7   -100.6456502 -0.719437E-05  0.463E-03    0.49       2.5  T
   8   -100.6456518 -0.152200E-05  0.140E-03    0.48       8.4  T
   9   -100.6456518 -0.552028E-07  0.605E-04    0.48      19.5  T
  10   -100.6456519 -0.294321E-07  0.214E-04    0.48      55.2  T
     SCC iter.                  ...        0 min,  0.081 sec
     gradient                   ...        0 min,  0.070 sec
 * total energy  :  -100.6977692 Eh     change       -0.1105300E-01 Eh
   gradient norm :     0.0920157 Eh/α   predicted    -0.1428532E-01 (  29.24%)
   displ. norm   :     0.5312817 α      lambda       -0.8708796E-02
   maximum displ.:     0.2092230 α      in ANC's #12, #18, #24, ...

........................................................................
.............................. CYCLE   24 ..............................
........................................................................

 iter      E             dE          RMSdq      gap      omega  full diag
   1   -100.6560074 -0.100656E+03  0.141E-01    0.51       0.0  T
   2   -100.6535649  0.244248E-02  0.183E-01    0.63       1.0  T
   3   -100.6556985 -0.213365E-02  0.994E-02    0.51       1.0  T
   4   -100.6559347 -0.236124E-03  0.634E-02    0.54       1.0  T
   5   -100.6563213 -0.386628E-03  0.184E-02    0.55       1.0  T
   6   -100.6563551 -0.338564E-04  0.456E-03    0.54       2.6  T
   7   -100.6563565 -0.135554E-05  0.205E-03    0.54       5.7  T
   8   -100.6563567 -0.187457E-06  0.687E-04    0.54      17.1  T
   9   -100.6563567 -0.311035E-07  0.305E-04    0.54      38.6  T
     SCC iter.                  ...        0 min,  0.073 sec
     gradient                   ...        0 min,  0.069 sec
 * total energy  :  -100.7040941 Eh     change       -0.6324878E-02 Eh
   gradient norm :     0.0264447 Eh/α   predicted    -0.5583478E-02 ( -11.72%)
   displ. norm   :     0.6025368 α      lambda       -0.5414336E-02
   maximum displ.:     0.2460594 α      in ANC's #18, #12, #24, ...

........................................................................
.............................. CYCLE   25 ..............................
........................................................................

 iter      E             dE          RMSdq      gap      omega  full diag
   1   -100.6645535 -0.100665E+03  0.146E-01    0.55       0.0  T
   2   -100.6640360  0.517472E-03  0.114E-01    0.60       1.0  T
   3   -100.6620827  0.195336E-02  0.157E-01    0.51       1.0  T
   4   -100.6641186 -0.203591E-02  0.749E-02    0.59       1.0  T
   5   -100.6646534 -0.534787E-03  0.136E-02    0.57       1.0  T
   6   -100.6646708 -0.174443E-04  0.335E-03    0.57       3.5  T
   7   -100.6646712 -0.401386E-06  0.156E-03    0.57       7.5  T
   8   -100.6646713 -0.781732E-07  0.454E-04    0.57      26.0  T
   9   -100.6646713 -0.100843E-07  0.249E-04    0.57      47.3  T
     SCC iter.                  ...        0 min,  0.073 sec
     gradient                   ...        0 min,  0.069 sec
 * total energy  :  -100.7084524 Eh     change       -0.4358291E-02 Eh
   gradient norm :     0.0283418 Eh/α   predicted    -0.3690008E-02 ( -15.33%)
   displ. norm   :     0.6448710 α      lambda       -0.4257026E-02
   maximum displ.:     0.2648131 α      in ANC's #18, #6, #24, ...

........................................................................
.............................. CYCLE   26 ..............................
........................................................................

 iter      E             dE          RMSdq      gap      omega  full diag
   1   -100.6704108 -0.100670E+03  0.160E-01    0.56       0.0  T
   2   -100.6700431  0.367640E-03  0.115E-01    0.59       1.0  T
   3   -100.6681077  0.193548E-02  0.151E-01    0.52       1.0  T
   4   -100.6700434 -0.193571E-02  0.679E-02    0.60       1.0  T
   5   -100.6705026 -0.459247E-03  0.190E-02    0.57       1.0  T
   6   -100.6705347 -0.320334E-04  0.363E-03    0.57       3.2  T
   7   -100.6705353 -0.632673E-06  0.165E-03    0.57       7.2  T
   8   -100.6705354 -0.879036E-07  0.428E-04    0.57      27.5  T
   9   -100.6705354 -0.800057E-08  0.184E-04    0.57      64.1  T
     SCC iter.                  ...        0 min,  0.073 sec
     gradient                   ...        0 min,  0.069 sec
 * total energy  :  -100.7118031 Eh     change       -0.3350690E-02 Eh
   gradient norm :     0.0169423 Eh/α   predicted    -0.3013686E-02 ( -10.06%)
   displ. norm   :     0.6233964 α      lambda       -0.2924908E-02
   maximum displ.:     0.2550567 α      in ANC's #18, #6, #4, ...

........................................................................
.............................. CYCLE   27 ..............................
........................................................................

 iter      E             dE          RMSdq      gap      omega  full diag
   1   -100.6749748 -0.100675E+03  0.141E-01    0.56       0.0  T
   2   -100.6748683  0.106548E-03  0.912E-02    0.57       1.0  T
   3   -100.6733951  0.147317E-02  0.127E-01    0.53       1.0  T
   4   -100.6749279 -0.153280E-02  0.307E-02    0.57       1.0  T
   5   -100.6749991 -0.712042E-04  0.193E-02    0.55       1.0  T
   6   -100.6750362 -0.371348E-04  0.445E-03    0.56       2.6  T
   7   -100.6750376 -0.136200E-05  0.149E-03    0.56       7.9  T
   8   -100.6750377 -0.635268E-07  0.432E-04    0.56      27.3  T
   9   -100.6750377 -0.113512E-07  0.159E-04    0.56      74.1  T
     SCC iter.                  ...        0 min,  0.073 sec
     gradient                   ...        0 min,  0.069 sec
 * total energy  :  -100.7141361 Eh     change       -0.2333052E-02 Eh
   gradient norm :     0.0124389 Eh/α   predicted    -0.2030819E-02 ( -12.95%)
   displ. norm   :     0.6262301 α      lambda       -0.2240676E-02
   maximum displ.:     0.2761956 α      in ANC's #6, #4, #18, ...

........................................................................
.............................. CYCLE   28 ..............................
........................................................................

 iter      E             dE          RMSdq      gap      omega  full diag
   1   -100.6782327 -0.100678E+03  0.128E-01    0.54       0.0  T
   2   -100.6782231  0.964752E-05  0.764E-02    0.55       1.0  T
   3   -100.6772335  0.989611E-03  0.965E-02    0.50       1.0  T
   4   -100.6780872 -0.853754E-03  0.398E-02    0.57       1.0  T
   5   -100.6782522 -0.164984E-03  0.987E-03    0.55       1.2  T
   6   -100.6782598 -0.754439E-05  0.398E-03    0.55       3.0  T
   7   -100.6782610 -0.126084E-05  0.136E-03    0.55       8.7  T
   8   -100.6782611 -0.751437E-07  0.341E-04    0.55      34.6  T
   9   -100.6782611 -0.485410E-08  0.139E-04    0.55      84.6  T
     SCC iter.                  ...        0 min,  0.072 sec
     gradient                   ...        0 min,  0.069 sec
 * total energy  :  -100.7159681 Eh     change       -0.1831974E-02 Eh
   gradient norm :     0.0124844 Eh/α   predicted    -0.1559699E-02 ( -14.86%)
   displ. norm   :     0.6455559 α      lambda       -0.1886235E-02
   maximum displ.:     0.3015160 α      in ANC's #6, #4, #5, ...

........................................................................
.............................. CYCLE   29 ..............................
........................................................................

 iter      E             dE          RMSdq      gap      omega  full diag
   1   -100.6808318 -0.100681E+03  0.120E-01    0.53       0.0  T
   2   -100.6807937  0.381433E-04  0.747E-02    0.54       1.0  T
   3   -100.6789678  0.182583E-02  0.138E-01    0.49       1.0  T
   4   -100.6807898 -0.182199E-02  0.247E-02    0.55       1.0  T
   5   -100.6808464 -0.565578E-04  0.939E-03    0.53       1.3  T
   6   -100.6808550 -0.863629E-05  0.375E-03    0.54       3.1  T
   7   -100.6808561 -0.108868E-05  0.139E-03    0.54       8.5  T
   8   -100.6808562 -0.673105E-07  0.345E-04    0.54      34.2  T
   9   -100.6808562 -0.562376E-08  0.170E-04    0.54      69.5  T
     SCC iter.                  ...        0 min,  0.073 sec
     gradient                   ...        0 min,  0.069 sec
 * total energy  :  -100.7175221 Eh     change       -0.1553991E-02 Eh
   gradient norm :     0.0130266 Eh/α   predicted    -0.1336155E-02 ( -14.02%)
   displ. norm   :     0.6638336 α      lambda       -0.1612860E-02
   maximum displ.:     0.3094386 α      in ANC's #6, #4, #5, ...

........................................................................
.............................. CYCLE   30 ..............................
........................................................................

 iter      E             dE          RMSdq      gap      omega  full diag
   1   -100.6812779 -0.100681E+03  0.120E-01    0.53       0.0  T
   2   -100.6811924  0.854517E-04  0.776E-02    0.54       1.0  T
   3   -100.6791813  0.201114E-02  0.151E-01    0.49       1.0  T
   4   -100.6812253 -0.204402E-02  0.262E-02    0.55       1.0  T
   5   -100.6812915 -0.661639E-04  0.115E-02    0.53       1.0  T
   6   -100.6813062 -0.147245E-04  0.254E-03    0.53       4.6  T
   7   -100.6813064 -0.184021E-06  0.134E-03    0.53       8.8  T
   8   -100.6813065 -0.929070E-07  0.278E-04    0.53      42.4  T
   9   -100.6813065 -0.188167E-08  0.171E-04    0.53      69.1  T
     SCC iter.                  ...        0 min,  0.072 sec
     gradient                   ...        0 min,  0.069 sec
 * total energy  :  -100.7188584 Eh     change       -0.1336283E-02 Eh
   gradient norm :     0.0149208 Eh/α   predicted    -0.1161805E-02 ( -13.06%)
   displ. norm   :     0.6764176 α      lambda       -0.1587923E-02
   maximum displ.:     0.3118128 α      in ANC's #4, #6, #5, ...

........................................................................
.............................. CYCLE   31 ..............................
........................................................................

 iter      E             dE          RMSdq      gap      omega  full diag
   1   -100.6845582 -0.100685E+03  0.110E-01    0.54       0.0  T
   2   -100.6845325  0.256826E-04  0.689E-02    0.54       1.0  T
   3   -100.6835390  0.993449E-03  0.102E-01    0.55       1.0  T
   4   -100.6845665 -0.102751E-02  0.124E-02    0.55       1.0  T
   5   -100.6845705 -0.392920E-05  0.871E-03    0.54       1.4  T
   6   -100.6845770 -0.657695E-05  0.479E-03    0.54       2.5  T
   7   -100.6845788 -0.179075E-05  0.132E-03    0.54       8.9  T
   8   -100.6845790 -0.132918E-06  0.384E-04    0.54      30.7  T
   9   -100.6845790 -0.103243E-07  0.173E-04    0.54      68.3  T
     SCC iter.                  ...        0 min,  0.072 sec
     gradient                   ...        0 min,  0.069 sec
 * total energy  :  -100.7200117 Eh     change       -0.1153358E-02 Eh
   gradient norm :     0.0169768 Eh/α   predicted    -0.1157232E-02 (   0.34%)
   displ. norm   :     0.6752487 α      lambda       -0.1551819E-02
   maximum displ.:     0.3049322 α      in ANC's #4, #5, #6, ...

........................................................................
.............................. CYCLE   32 ..............................
........................................................................

 iter      E             dE          RMSdq      gap      omega  full diag
   1   -100.6812135 -0.100681E+03  0.136E-01    0.55       0.0  T
   2   -100.6809299  0.283620E-03  0.947E-02    0.57       1.0  T
   3   -100.6784260  0.250391E-02  0.178E-01    0.49       1.0  T
   4   -100.6811527 -0.272668E-02  0.313E-02    0.57       1.0  T
   5   -100.6812561 -0.103480E-03  0.108E-02    0.55       1.1  T
   6   -100.6812682 -0.120220E-04  0.293E-03    0.55       4.0  T
   7   -100.6812681  0.199732E-07  0.192E-03    0.55       6.1  T
   8   -100.6812685 -0.333731E-06  0.392E-04    0.55      30.0  T
   9   -100.6812685 -0.595870E-08  0.239E-04    0.55      49.3  T
     SCC iter.                  ...        0 min,  0.073 sec
     gradient                   ...        0 min,  0.069 sec
 * total energy  :  -100.7210550 Eh     change       -0.1043311E-02 Eh
   gradient norm :     0.0160019 Eh/α   predicted    -0.1129698E-02 (   8.28%)
   displ. norm   :     0.5304198 α      lambda       -0.1017341E-02
   maximum displ.:     0.2558420 α      in ANC's #5, #4, #6, ...

........................................................................
.............................. CYCLE   33 ..............................
........................................................................

 iter      E             dE          RMSdq      gap      omega  full diag
   1   -100.6834612 -0.100683E+03  0.860E-02    0.57       0.0  T
   2   -100.6834041  0.571034E-04  0.556E-02    0.55       1.0  T
   3   -100.6819989  0.140520E-02  0.114E-01    0.63       1.0  T
   4   -100.6834555 -0.145662E-02  0.153E-02    0.56       1.0  T
   5   -100.6834702 -0.146389E-04  0.907E-03    0.56       1.3  T
   6   -100.6834776 -0.745616E-05  0.191E-03    0.56       6.2  T
   7   -100.6834777 -0.985499E-07  0.100E-03    0.56      11.8  T
   8   -100.6834778 -0.711742E-07  0.275E-04    0.56      42.8  T
   9   -100.6834778 -0.667254E-08  0.113E-04    0.56     104.3  T
     SCC iter.                  ...        0 min,  0.072 sec
     gradient                   ...        0 min,  0.069 sec
 * total energy  :  -100.7218857 Eh     change       -0.8307058E-03 Eh
   gradient norm :     0.0123235 Eh/α   predicted    -0.6517897E-03 ( -21.54%)
   displ. norm   :     0.5914609 α      lambda       -0.1154235E-02
   maximum displ.:     0.3074807 α      in ANC's #5, #4, #10, ...

........................................................................
.............................. CYCLE   34 ..............................
........................................................................

 iter      E             dE          RMSdq      gap      omega  full diag
   1   -100.6853566 -0.100685E+03  0.104E-01    0.58       0.0  T
   2   -100.6852972  0.594799E-04  0.651E-02    0.56       1.0  T
   3   -100.6835138  0.178336E-02  0.133E-01    0.66       1.0  T
   4   -100.6853522 -0.183843E-02  0.163E-02    0.58       1.0  T
   5   -100.6853772 -0.249355E-04  0.439E-03    0.58       2.7  T
   6   -100.6853773 -0.994760E-07  0.374E-03    0.58       3.1  T
   7   -100.6853784 -0.113993E-05  0.156E-03    0.58       7.6  T
   8   -100.6853786 -0.179049E-06  0.411E-04    0.58      28.7  T
   9   -100.6853786 -0.143489E-07  0.149E-04    0.58      78.9  T
     SCC iter.                  ...        0 min,  0.072 sec
     gradient                   ...        0 min,  0.069 sec
 * total energy  :  -100.7227027 Eh     change       -0.8169828E-03 Eh
   gradient norm :     0.0106788 Eh/α   predicted    -0.7790098E-03 (  -4.65%)
   displ. norm   :     0.6024420 α      lambda       -0.1042570E-02
   maximum displ.:     0.3166480 α      in ANC's #5, #4, #10, ...

........................................................................
.............................. CYCLE   35 ..............................
........................................................................

 iter      E             dE          RMSdq      gap      omega  full diag
   1   -100.6886099 -0.100689E+03  0.114E-01    0.60       0.0  T
   2   -100.6885664  0.434522E-04  0.714E-02    0.58       1.0  T
   3   -100.6869191  0.164735E-02  0.131E-01    0.66       1.0  T
   4   -100.6885787 -0.165959E-02  0.237E-02    0.58       1.0  T
   5   -100.6886355 -0.568734E-04  0.524E-03    0.59       2.2  T
   6   -100.6886362 -0.668674E-06  0.424E-03    0.59       2.8  T
   7   -100.6886376 -0.143118E-05  0.175E-03    0.59       6.7  T
   8   -100.6886379 -0.266090E-06  0.456E-04    0.59      25.9  T
   9   -100.6886379 -0.175997E-07  0.196E-04    0.59      60.3  T
     SCC iter.                  ...        0 min,  0.072 sec
     gradient                   ...        0 min,  0.069 sec
 * total energy  :  -100.7233781 Eh     change       -0.6754025E-03 Eh
   gradient norm :     0.0144210 Eh/α   predicted    -0.7104792E-03 (   5.19%)
   displ. norm   :     0.5743681 α      lambda       -0.8541639E-03
   maximum displ.:     0.3182799 α      in ANC's #5, #4, #10, ...

........................................................................
.............................. CYCLE   36 ..............................
........................................................................

 iter      E             dE          RMSdq      gap      omega  full diag
   1   -100.6846970 -0.100685E+03  0.996E-02    0.59       0.0  T
   2   -100.6846882  0.875447E-05  0.601E-02    0.59       1.0  T
   3   -100.6841428  0.545422E-03  0.727E-02    0.57       1.0  T
   4   -100.6846768 -0.533988E-03  0.169E-02    0.60       1.0  T
   5   -100.6847048 -0.279718E-04  0.991E-03    0.59       1.2  T
   6   -100.6847135 -0.877170E-05  0.239E-03    0.59       4.9  T
   7   -100.6847138 -0.308578E-06  0.131E-03    0.59       9.0  T
   8   -100.6847139 -0.979636E-07  0.295E-04    0.59      40.0  T
   9   -100.6847139 -0.480152E-08  0.165E-04    0.59      71.5  T
     SCC iter.                  ...        0 min,  0.072 sec
     gradient                   ...        0 min,  0.069 sec
 * total energy  :  -100.7240245 Eh     change       -0.6463706E-03 Eh
   gradient norm :     0.0128863 Eh/α   predicted    -0.5679789E-03 ( -12.13%)
   displ. norm   :     0.5093708 α      lambda       -0.9311896E-03
   maximum displ.:     0.2863233 α      in ANC's #5, #4, #10, ...

........................................................................
.............................. CYCLE   37 ..............................
........................................................................

 iter      E             dE          RMSdq      gap      omega  full diag
   1   -100.6926962 -0.100693E+03  0.793E-02    0.58       0.0  T
   2   -100.6926798  0.164511E-04  0.496E-02    0.59       1.0  T
   3   -100.6921220  0.557779E-03  0.725E-02    0.56       1.0  T
   4   -100.6926907 -0.568720E-03  0.128E-02    0.59       1.0  T
   5   -100.6926954 -0.467340E-05  0.115E-02    0.58       1.0  T
   6   -100.6927086 -0.131641E-04  0.183E-03    0.59       6.5  T
   7   -100.6927087 -0.167928E-06  0.898E-04    0.59      13.1  T
   8   -100.6927087 -0.217715E-07  0.279E-04    0.59      42.2  T
     SCC iter.                  ...        0 min,  0.065 sec
     gradient                   ...        0 min,  0.069 sec
 * total energy  :  -100.7246395 Eh     change       -0.6149900E-03 Eh
   gradient norm :     0.0127473 Eh/α   predicted    -0.5864003E-03 (  -4.65%)
   displ. norm   :     0.5931067 α      lambda       -0.8406810E-03
   maximum displ.:     0.3385605 α      in ANC's #5, #4, #10, ...

........................................................................
.............................. CYCLE   38 ..............................
........................................................................

 iter      E             dE          RMSdq      gap      omega  full diag
   1   -100.6853987 -0.100685E+03  0.102E-01    0.57       0.0  T
   2   -100.6853003  0.984104E-04  0.691E-02    0.60       1.0  T
   3   -100.6835809  0.171934E-02  0.133E-01    0.51       1.0  T
   4   -100.6854126 -0.183162E-02  0.980E-03    0.58       1.2  T
   5   -100.6854219 -0.936135E-05  0.340E-03    0.58       3.5  T
   6   -100.6854224 -0.465070E-06  0.182E-03    0.58       6.5  T
   7   -100.6854225 -0.156396E-06  0.719E-04    0.58      16.4  T
   8   -100.6854225  0.337789E-08  0.638E-04    0.58      18.5  T
     SCC iter.                  ...        0 min,  0.065 sec
     gradient                   ...        0 min,  0.069 sec
 * total energy  :  -100.7251512 Eh     change       -0.5117564E-03 Eh
   gradient norm :     0.0135328 Eh/α   predicted    -0.5682116E-03 (  11.03%)
   displ. norm   :     0.4808894 α      lambda       -0.6153612E-03
   maximum displ.:     0.2909975 α      in ANC's #5, #4, #10, ...

........................................................................
.............................. CYCLE   39 ..............................
........................................................................

 iter      E             dE          RMSdq      gap      omega  full diag
   1   -100.6861352 -0.100686E+03  0.739E-02    0.58       0.0  T
   2   -100.6861197  0.154944E-04  0.463E-02    0.57       1.0  T
   3   -100.6853528  0.766897E-03  0.867E-02    0.63       1.0  T
   4   -100.6861382 -0.785436E-03  0.790E-03    0.58       1.5  T
   5   -100.6861436 -0.540567E-05  0.298E-03    0.58       4.0  T
   6   -100.6861439 -0.261476E-06  0.219E-03    0.58       5.4  T
   7   -100.6861442 -0.365002E-06  0.102E-03    0.58      11.6  T
   8   -100.6861443 -0.827385E-07  0.265E-04    0.58      44.5  T
   9   -100.6861443 -0.539065E-08  0.109E-04    0.58     108.4  T
     SCC iter.                  ...        0 min,  0.073 sec
     gradient                   ...        0 min,  0.069 sec
 * total energy  :  -100.7256275 Eh     change       -0.4762596E-03 Eh
   gradient norm :     0.0118800 Eh/α   predicted    -0.3788385E-03 ( -20.46%)
   displ. norm   :     0.5304733 α      lambda       -0.8280057E-03
   maximum displ.:     0.3211029 α      in ANC's #5, #4, #11, ...

........................................................................
.............................. CYCLE   40 ..............................
........................................................................

 iter      E             dE          RMSdq      gap      omega  full diag
   1   -100.6924014 -0.100692E+03  0.769E-02    0.59       0.0  T
   2   -100.6922138  0.187582E-03  0.658E-02    0.56       1.0  T
   3   -100.6918304  0.383383E-03  0.813E-02    0.62       1.0  T
   4   -100.6924188 -0.588359E-03  0.117E-02    0.58       1.0  T
   5   -100.6924279 -0.912433E-05  0.628E-03    0.58       1.9  T
   6   -100.6924314 -0.350403E-05  0.246E-03    0.58       4.8  T
   7   -100.6924319 -0.489647E-06  0.940E-04    0.58      12.5  T
   8   -100.6924319 -0.325400E-07  0.335E-04    0.58      35.2  T
     SCC iter.                  ...        0 min,  0.065 sec
     gradient                   ...        0 min,  0.074 sec
 * total energy  :  -100.7261855 Eh     change       -0.5579810E-03 Eh
   gradient norm :     0.0112971 Eh/α   predicted    -0.5305072E-03 (  -4.92%)
   displ. norm   :     0.6148038 α      lambda       -0.7268247E-03
   maximum displ.:     0.3904052 α      in ANC's #5, #4, #8, ...

........................................................................
.............................. CYCLE   41 ..............................
........................................................................

 iter      E             dE          RMSdq      gap      omega  full diag
   1   -100.6916617 -0.100692E+03  0.915E-02    0.59       0.0  T
   2   -100.6916620 -0.358946E-06  0.547E-02    0.58       1.0  T
   3   -100.6913164  0.345657E-03  0.515E-02    0.62       1.0  T
   4   -100.6916367 -0.320338E-03  0.190E-02    0.57       1.0  T
   5   -100.6916711 -0.343761E-04  0.625E-03    0.58       1.9  T
   6   -100.6916740 -0.288679E-05  0.299E-03    0.58       3.9  T
   7   -100.6916745 -0.549988E-06  0.100E-03    0.58      11.8  T
   8   -100.6916746 -0.434361E-07  0.294E-04    0.58      40.1  T
   9   -100.6916746 -0.599528E-08  0.149E-04    0.58      79.3  T
     SCC iter.                  ...        0 min,  0.073 sec
     gradient                   ...        0 min,  0.070 sec
 * total energy  :  -100.7267756 Eh     change       -0.5901070E-03 Eh
   gradient norm :     0.0099763 Eh/α   predicted    -0.5007775E-03 ( -15.14%)
   displ. norm   :     0.6287294 α      lambda       -0.7012773E-03
   maximum displ.:     0.3979890 α      in ANC's #5, #4, #8, ...

........................................................................
.............................. CYCLE   42 ..............................
........................................................................

 iter      E             dE          RMSdq      gap      omega  full diag
   1   -100.6900593 -0.100690E+03  0.884E-02    0.59       0.0  T
   2   -100.6900503  0.902701E-05  0.539E-02    0.58       1.0  T
   3   -100.6894301  0.620209E-03  0.746E-02    0.64       1.0  T
   4   -100.6900173 -0.587155E-03  0.237E-02    0.58       1.0  T
   5   -100.6900736 -0.563130E-04  0.437E-03    0.59       2.7  T
   6   -100.6900746 -0.107232E-05  0.298E-03    0.59       3.9  T
   7   -100.6900753 -0.663413E-06  0.987E-04    0.59      11.9  T
   8   -100.6900753 -0.413883E-07  0.406E-04    0.59      29.0  T
     SCC iter.                  ...        0 min,  0.064 sec
     gradient                   ...        0 min,  0.069 sec
 * total energy  :  -100.7273530 Eh     change       -0.5774032E-03 Eh
   gradient norm :     0.0103050 Eh/α   predicted    -0.4892512E-03 ( -15.27%)
   displ. norm   :     0.6559102 α      lambda       -0.7995411E-03
   maximum displ.:     0.3925928 α      in ANC's #5, #4, #8, ...
 * RMSD in coord.:     1.1829772 α      energy gain  -0.9149303E-01 Eh

generating ANC from model Hessian ...
Using Lindh-Hessian (1995)
 Shifting diagonal of input Hessian by    9.9410767475930761E-003
 Lowest  eigenvalues of input Hessian
    0.000000    0.000000    0.000000    0.000000    0.000000    0.000000
    0.010000    0.010067    0.010117    0.010235    0.010383    0.010578
    0.010629    0.010714    0.010918    0.011445    0.011626    0.012248
 Highest eigenvalues
    1.980263    2.048067    2.078134    2.102572    2.182221    2.182510


........................................................................
.............................. CYCLE   43 ..............................
........................................................................

 iter      E             dE          RMSdq      gap      omega  full diag
   1   -100.6907999 -0.100691E+03  0.895E-02    0.58       0.0  T
   2   -100.6907941  0.584519E-05  0.548E-02    0.59       1.0  T
   3   -100.6902556  0.538468E-03  0.763E-02    0.55       1.0  T
   4   -100.6907638 -0.508184E-03  0.220E-02    0.60       1.0  T
   5   -100.6908125 -0.487184E-04  0.399E-03    0.58       3.0  T
   6   -100.6908130 -0.458660E-06  0.363E-03    0.58       3.2  T
   7   -100.6908143 -0.128354E-05  0.985E-04    0.58      12.0  T
   8   -100.6908143 -0.180760E-07  0.434E-04    0.58      27.2  T
   9   -100.6908143 -0.105348E-07  0.178E-04    0.58      66.2  T
     SCC iter.                  ...        0 min,  0.073 sec
     gradient                   ...        0 min,  0.069 sec
 * total energy  :  -100.7278984 Eh     change       -0.5454039E-03 Eh
   gradient norm :     0.0134314 Eh/α   predicted     0.0000000E+00 (-100.00%)
   displ. norm   :     0.1029000 α      lambda       -0.4276625E-03
   maximum displ.:     0.0377946 α      in ANC's #10, #5, #18, ...

........................................................................
.............................. CYCLE   44 ..............................
........................................................................

 iter      E             dE          RMSdq      gap      omega  full diag
   1   -100.6929262 -0.100693E+03  0.342E-02    0.58       0.0  T
   2   -100.6928797  0.465428E-04  0.324E-02    0.58       1.0  T
   3   -100.6928861 -0.645626E-05  0.276E-02    0.57       1.0  T
   4   -100.6929112 -0.250710E-04  0.145E-02    0.59       1.0  T
   5   -100.6929360 -0.247833E-04  0.319E-03    0.58       3.7  T
   6   -100.6929371 -0.108133E-05  0.786E-04    0.58      15.0  T
   7   -100.6929371 -0.187447E-07  0.409E-04    0.58      28.8  T
   8   -100.6929371 -0.475696E-08  0.190E-04    0.58      62.0  T
     SCC iter.                  ...        0 min,  0.065 sec
     gradient                   ...        0 min,  0.073 sec
 * total energy  :  -100.7282274 Eh     change       -0.3289785E-03 Eh
   gradient norm :     0.0071500 Eh/α   predicted    -0.2160964E-03 ( -34.31%)
   displ. norm   :     0.2472243 α      lambda       -0.5202660E-03
   maximum displ.:     0.0907008 α      in ANC's #10, #5, #30, ...

........................................................................
.............................. CYCLE   45 ..............................
........................................................................

 iter      E             dE          RMSdq      gap      omega  full diag
   1   -100.6945225 -0.100695E+03  0.700E-02    0.57       0.0  T
   2   -100.6943313  0.191176E-03  0.646E-02    0.59       1.0  T
   3   -100.6942864  0.448720E-04  0.618E-02    0.55       1.0  T
   4   -100.6944764 -0.189957E-03  0.259E-02    0.59       1.0  T
   5   -100.6945577 -0.812818E-04  0.607E-03    0.57       1.9  T
   6   -100.6945613 -0.367524E-05  0.138E-03    0.57       8.6  T
   7   -100.6945614 -0.446664E-07  0.662E-04    0.57      17.8  T
   8   -100.6945614 -0.112251E-07  0.279E-04    0.57      42.3  T
     SCC iter.                  ...        0 min,  0.065 sec
     gradient                   ...        0 min,  0.069 sec
 * total energy  :  -100.7285711 Eh     change       -0.3437303E-03 Eh
   gradient norm :     0.0107735 Eh/α   predicted    -0.2760412E-03 ( -19.69%)
   displ. norm   :     0.3272762 α      lambda       -0.4475235E-03
   maximum displ.:     0.1175394 α      in ANC's #10, #30, #5, ...

........................................................................
.............................. CYCLE   46 ..............................
........................................................................

 iter      E             dE          RMSdq      gap      omega  full diag
   1   -100.6935841 -0.100694E+03  0.832E-02    0.56       0.0  T
   2   -100.6933652  0.218873E-03  0.712E-02    0.58       1.0  T
   3   -100.6931133  0.251928E-03  0.815E-02    0.53       1.0  T
   4   -100.6935545 -0.441189E-03  0.240E-02    0.58       1.0  T
   5   -100.6936208 -0.663189E-04  0.859E-03    0.56       1.4  T
   6   -100.6936285 -0.772630E-05  0.153E-03    0.56       7.7  T
   7   -100.6936286 -0.304094E-07  0.863E-04    0.56      13.7  T
   8   -100.6936286 -0.405668E-07  0.332E-04    0.56      35.5  T
     SCC iter.                  ...        0 min,  0.065 sec
     gradient                   ...        0 min,  0.070 sec
 * total energy  :  -100.7288843 Eh     change       -0.3131553E-03 Eh
   gradient norm :     0.0170323 Eh/α   predicted    -0.2477750E-03 ( -20.88%)
   displ. norm   :     0.4770810 α      lambda       -0.6063330E-03
   maximum displ.:     0.1721486 α      in ANC's #30, #10, #5, ...

........................................................................
.............................. CYCLE   47 ..............................
........................................................................

 iter      E             dE          RMSdq      gap      omega  full diag
   1   -100.6903307 -0.100690E+03  0.113E-01    0.55       0.0  T
   2   -100.6899554  0.375369E-03  0.942E-02    0.59       1.0  T
   3   -100.6893215  0.633848E-03  0.116E-01    0.50       1.0  T
   4   -100.6903247 -0.100320E-02  0.262E-02    0.58       1.0  T
   5   -100.6903903 -0.655446E-04  0.140E-02    0.55       1.0  T
   6   -100.6904118 -0.215429E-04  0.247E-03    0.56       4.8  T
   7   -100.6904119 -0.112018E-06  0.140E-03    0.56       8.4  T
   8   -100.6904120 -0.127860E-06  0.493E-04    0.56      23.9  T
   9   -100.6904121 -0.232366E-07  0.201E-04    0.56      58.6  T
     SCC iter.                  ...        0 min,  0.073 sec
     gradient                   ...        0 min,  0.069 sec
 * total energy  :  -100.7293713 Eh     change       -0.4870899E-03 Eh
   gradient norm :     0.0172676 Eh/α   predicted    -0.3721723E-03 ( -23.59%)
   displ. norm   :     0.5149081 α      lambda       -0.8697219E-03
   maximum displ.:     0.1876838 α      in ANC's #30, #10, #5, ...

........................................................................
.............................. CYCLE   48 ..............................
........................................................................

 iter      E             dE          RMSdq      gap      omega  full diag
   1   -100.6874036 -0.100687E+03  0.111E-01    0.55       0.0  T
   2   -100.6870243  0.379318E-03  0.957E-02    0.60       1.0  T
   3   -100.6865719  0.452420E-03  0.104E-01    0.50       1.0  T
   4   -100.6874174 -0.845532E-03  0.269E-02    0.58       1.0  T
   5   -100.6874902 -0.727575E-04  0.951E-03    0.55       1.2  T
   6   -100.6874993 -0.912915E-05  0.387E-03    0.56       3.0  T
   7   -100.6875003 -0.995233E-06  0.151E-03    0.56       7.8  T
   8   -100.6875004 -0.122435E-06  0.635E-04    0.56      18.6  T
   9   -100.6875004 -0.409278E-07  0.209E-04    0.56      56.4  T
     SCC iter.                  ...        0 min,  0.073 sec
     gradient                   ...        0 min,  0.069 sec
 * total energy  :  -100.7300204 Eh     change       -0.6490836E-03 Eh
   gradient norm :     0.0142626 Eh/α   predicted    -0.5501704E-03 ( -15.24%)
   displ. norm   :     0.3498530 α      lambda       -0.7987352E-03
   maximum displ.:     0.1251167 α      in ANC's #4, #5, #30, ...

........................................................................
.............................. CYCLE   49 ..............................
........................................................................

 iter      E             dE          RMSdq      gap      omega  full diag
   1   -100.6911395 -0.100691E+03  0.695E-02    0.56       0.0  T
   2   -100.6910444  0.951558E-04  0.584E-02    0.59       1.0  T
   3   -100.6908542  0.190186E-03  0.562E-02    0.53       1.0  T
   4   -100.6910796 -0.225383E-03  0.327E-02    0.59       1.0  T
   5   -100.6911810 -0.101430E-03  0.745E-03    0.57       1.6  T
   6   -100.6911857 -0.467134E-05  0.350E-03    0.57       3.4  T
   7   -100.6911865 -0.812891E-06  0.122E-03    0.57       9.6  T
   8   -100.6911866 -0.517406E-07  0.692E-04    0.57      17.0  T
   9   -100.6911866 -0.437433E-07  0.190E-04    0.57      61.9  T
     SCC iter.                  ...        0 min,  0.073 sec
     gradient                   ...        0 min,  0.069 sec
 * total energy  :  -100.7305080 Eh     change       -0.4875332E-03 Eh
   gradient norm :     0.0114697 Eh/α   predicted    -0.4483226E-03 (  -8.04%)
   displ. norm   :     0.5274049 α      lambda       -0.5730179E-03
   maximum displ.:     0.1809492 α      in ANC's #4, #5, #10, ...

........................................................................
.............................. CYCLE   50 ..............................
........................................................................

 iter      E             dE          RMSdq      gap      omega  full diag
   1   -100.6880683 -0.100688E+03  0.107E-01    0.57       0.0  T
   2   -100.6876851  0.383237E-03  0.949E-02    0.62       1.0  T
   3   -100.6874732  0.211848E-03  0.925E-02    0.53       1.0  T
   4   -100.6880803 -0.607033E-03  0.287E-02    0.60       1.0  T
   5   -100.6881615 -0.812375E-04  0.107E-02    0.57       1.1  T
   6   -100.6881738 -0.122430E-04  0.347E-03    0.58       3.4  T
   7   -100.6881744 -0.692097E-06  0.157E-03    0.58       7.5  T
   8   -100.6881746 -0.154563E-06  0.593E-04    0.58      19.9  T
   9   -100.6881746 -0.316569E-07  0.210E-04    0.58      56.2  T
[...]
         ::.................................................::
         :: SCC energy              -100.739982846906 Eh    ::
         :: -> isotropic ES            0.104646165867 Eh    ::
         :: -> anisotropic ES          0.004662751241 Eh    ::
         :: -> anisotropic XC          0.044167255966 Eh    ::
         :: -> dispersion             -0.076635666346 Eh    ::
         :: repulsion energy           1.491084659693 Eh    ::
         :: add. restraining          -1.530112081320 Eh    ::
         :: total charge               1.000000000000 e     ::
         :::::::::::::::::::::::::::::::::::::::::::::::::::::

           -------------------------------------------------
          |                Property Printout                |
           -------------------------------------------------

    * Orbital Energies and Occupations

         #    Occupation            Energy/Eh            Energy/eV
      -------------------------------------------------------------
         1        2.0000           -0.8311769             -22.6175
       ...           ...                  ...                  ...
        78        1.9978           -0.5322509             -14.4833
        79        1.9975           -0.5306165             -14.4388
        80        1.9972           -0.5285617             -14.3829
        81        1.9967           -0.5263423             -14.3225
        82        1.9954           -0.5206822             -14.1685
        83        1.9950           -0.5194621             -14.1353
        84        1.9937           -0.5157409             -14.0340
        85        1.9918           -0.5117561             -13.9256
        86        1.9682           -0.4900228             -13.3342
        87        1.9631           -0.4876275             -13.2690
        88        1.9117           -0.4733927             -12.8817
        89        1.8603           -0.4656916             -12.6721
        90        1.7326           -0.4542846             -12.3617 (HOMO)
        91        0.5960           -0.4111292             -11.1874 (LUMO)
        92        0.0107           -0.3420032              -9.3064
        93        0.0030           -0.3219357              -8.7603
        94        0.0018           -0.3132229              -8.5232
        95        0.0015           -0.3109070              -8.4602
        96        0.0000           -0.2390233              -6.5042
        97        0.0000           -0.1883896              -5.1263
        98        0.0000           -0.1736650              -4.7257
        99                         -0.1051019              -2.8600
       100                         -0.0817644              -2.2249
       101                         -0.0804593              -2.1894
       ...                                ...                  ...
       171                          1.1513569              31.3300
      -------------------------------------------------------------
                  HL-Gap            0.0431554 Eh            1.1743 eV
             Fermi-level           -0.4246980 Eh          -11.5566 eV

     #   Z          covCN         q      C6AA      α(0)
     1   7 N        1.774    -0.271    27.847     7.814
     2   6 C        2.835     0.097    25.839     8.330
     3   6 C        3.894     0.015    20.276     6.401
     4   6 C        3.857    -0.052    21.476     6.591
     5   6 C        2.904    -0.080    29.990     8.979
     6   6 C        2.848     0.135    25.056     8.204
     7   8 O        1.706    -0.233    17.864     5.707
     8   6 C        3.644     0.025    20.491     6.506
     9   6 C        2.863     0.143    24.891     8.178
    10   8 O        1.706    -0.188    17.151     5.591
    11   6 C        3.646     0.018    20.614     6.525
    12   6 C        2.898    -0.062    29.552     8.913
    13   6 C        2.906    -0.033    28.814     8.802
    14   6 C        3.876    -0.037    21.183     6.544
    15   6 C        3.806    -0.076    21.940     6.668
    16   6 C        3.808     0.033    20.007     6.367
    17   7 N        2.724    -0.137    23.962     7.270
    18   6 C        3.758     0.003    20.575     6.467
    19   6 C        3.806    -0.071    21.849     6.654
    20   6 C        2.968     0.007    27.861     8.658
    21   6 C        2.922    -0.045    29.109     8.848
    22   6 C        2.913    -0.066    29.639     8.927
    23   6 C        2.865     0.135    25.052     8.204
    24   8 O        1.706    -0.216    17.595     5.663
    25   6 C        3.646     0.024    20.505     6.508
    26   6 C        2.862     0.135    25.048     8.204
    27   8 O        1.706    -0.220    17.647     5.672
    28   6 C        3.645     0.026    20.473     6.503
    29   6 C        2.919    -0.077    29.924     8.970
    30   6 C        3.700    -0.046    21.560     6.640
    31   6 C        3.850    -0.010    20.713     6.473
    32   6 C        3.757    -0.121    22.868     6.818
    33   6 C        3.756    -0.121    22.877     6.820
    34   1 H        0.926     0.060     2.203     2.321
    35   1 H        0.924     0.053     2.279     2.361
    36   1 H        0.925     0.085     1.930     2.173
    37   1 H        0.924     0.050     2.325     2.384
    38   1 H        0.924     0.066     2.127     2.281
    39   1 H        0.925     0.091     1.866     2.136
    40   1 H        0.924     0.064     2.149     2.293
    41   1 H        0.926     0.065     2.142     2.289
    42   1 H        0.926     0.056     2.252     2.347
    43   1 H        0.925     0.058     2.224     2.332
    44   1 H        0.931     0.146     1.417     1.862
    45   1 H        0.926     0.054     2.269     2.355
    46   1 H        0.926     0.053     2.279     2.361
    47   1 H        0.923     0.020     2.738     2.587
    48   1 H        0.925     0.033     2.550     2.497
    49   1 H        0.924     0.046     2.366     2.405
    50   1 H        0.924     0.046     2.376     2.410
    51   1 H        0.924     0.048     2.347     2.396
    52   1 H        0.924     0.053     2.286     2.364
    53   1 H        0.926     0.050     2.326     2.385
    54   1 H        0.926     0.060     2.198     2.318
    55   1 H        0.924     0.057     2.238     2.340
    56   1 H        0.924     0.058     2.217     2.329
    57   1 H        0.925     0.084     1.938     2.177
    58   1 H        0.925     0.083     1.947     2.182
    59   1 H        0.924     0.052     2.299     2.371
    60   1 H        0.924     0.055     2.253     2.347
    61   1 H        0.926     0.051     2.302     2.373
    62   1 H        0.924     0.046     2.367     2.406
    63   1 H        0.925     0.051     2.311     2.377
    64   1 H        0.925     0.055     2.254     2.348
    65   1 H        0.924     0.041     2.430     2.438
    66   1 H        0.925     0.066     2.132     2.283
    67   1 H        0.925     0.032     2.558     2.501
    68   1 H        0.925     0.053     2.277     2.360
    69   1 H        0.925     0.068     2.109     2.271
    70   1 H        0.925     0.039     2.465     2.455
    71   1 H        0.925     0.057     2.237     2.339
    72   1 H        0.860     0.161     1.331     1.807

 Mol. C6AA /au·bohr⁶  :      46805.362382
 Mol. C8AA /au·bohr⁸  :    1064988.143106
 Mol. α(0) /au        :        329.983241


Wiberg/Mayer (AO) data.
largest (>0.10) Wiberg bond orders for each atom

 ---------------------------------------------------------------------------
     #   Z sym  total        # sym  WBO       # sym  WBO       # sym  WBO
 ---------------------------------------------------------------------------
     1   7 N    3.007 --     2 C    1.949    72 H    0.940
     2   6 C    3.940 --     1 N    1.949     3 C    0.987    47 H    0.929
     3   6 C    3.913 --     2 C    0.987    14 C    0.969    31 C    0.962
                             4 C    0.861
     4   6 C    3.971 --    13 C    1.048     5 C    1.041    44 H    0.907
                             3 C    0.861
     5   6 C    3.800 --     6 C    1.562     4 C    1.041    34 H    0.954
                             7 O    0.104
     6   6 C    3.931 --     5 C    1.562     9 C    1.137     7 O    1.095
     7   8 O    2.260 --     6 C    1.095     8 C    0.976     5 C    0.104
     8   6 C    3.930 --     7 O    0.976    36 H    0.976    37 H    0.974
                            35 H    0.974
     9   6 C    3.695 --    12 C    1.265    10 O    1.170     6 C    1.137
    10   8 O    2.282 --     9 C    1.170    11 C    0.967
    11   6 C    3.920 --    39 H    0.976    40 H    0.971    38 H    0.970
                            10 O    0.967
    12   6 C    3.977 --    13 C    1.615     9 C    1.265    41 H    0.958
    13   6 C    3.751 --    12 C    1.615     4 C    1.048    42 H    0.962
    14   6 C    3.915 --     3 C    0.969    15 C    0.963    43 H    0.959
                            16 C    0.927
    15   6 C    3.936 --    46 H    0.976    16 C    0.967    45 H    0.966
                            14 C    0.963
    16   6 C    3.917 --    17 N    1.012    15 C    0.967    48 H    0.955
                            14 C    0.927
    17   7 N    3.124 --    16 C    1.012    18 C    1.007    30 C    1.005
    18   6 C    3.967 --    17 N    1.007    50 H    0.969    49 H    0.968
                            19 C    0.960
    19   6 C    3.973 --    20 C    1.017    51 H    0.969    52 H    0.969
                            18 C    0.960
    20   6 C    3.928 --    21 C    1.393    29 C    1.379    19 C    1.017
    21   6 C    3.929 --    22 C    1.423    20 C    1.393    53 H    0.967
    22   6 C    3.950 --    21 C    1.423    23 C    1.375    54 H    0.963
    23   6 C    3.874 --    22 C    1.375    26 C    1.209    24 O    1.115
    24   8 O    2.247 --    23 C    1.115    25 C    0.975
    25   6 C    3.925 --    57 H    0.976    24 O    0.975    56 H    0.971
                            55 H    0.971
    26   6 C    3.882 --    29 C    1.392    23 C    1.209    27 O    1.109
    27   8 O    2.249 --    26 C    1.109    28 C    0.977
    28   6 C    3.929 --    27 O    0.977    58 H    0.976    59 H    0.972
                            60 H    0.972
    29   6 C    3.951 --    26 C    1.392    20 C    1.379    61 H    0.962
    30   6 C    3.969 --    17 N    1.005    64 H    0.980    63 H    0.974
                            62 H    0.968
    31   6 C    3.972 --    32 C    1.008    33 C    1.004     3 C    0.962
                            65 H    0.956
    32   6 C    3.979 --    31 C    1.008    68 H    0.980    67 H    0.979
                            66 H    0.974
    33   6 C    3.975 --    31 C    1.004    70 H    0.980    71 H    0.979
                            69 H    0.973
    34   1 H    0.995 --     5 C    0.954
    35   1 H    0.995 --     8 C    0.974
    36   1 H    0.992 --     8 C    0.976
    37   1 H    0.995 --     8 C    0.974
    38   1 H    0.989 --    11 C    0.970
    39   1 H    0.991 --    11 C    0.976
    40   1 H    0.989 --    11 C    0.971
    41   1 H    0.994 --    12 C    0.958
    42   1 H    0.996 --    13 C    0.962
    43   1 H    0.993 --    14 C    0.959
    44   1 H    0.957 --     4 C    0.907
    45   1 H    0.997 --    15 C    0.966
    46   1 H    0.994 --    15 C    0.976
    47   1 H    0.980 --     2 C    0.929
    48   1 H    0.986 --    16 C    0.955
    49   1 H    0.992 --    18 C    0.968
    50   1 H    0.997 --    18 C    0.969
    51   1 H    0.995 --    19 C    0.969
    52   1 H    0.995 --    19 C    0.969
    53   1 H    0.997 --    21 C    0.967
    54   1 H    0.994 --    22 C    0.963
    55   1 H    0.989 --    25 C    0.971
    56   1 H    0.989 --    25 C    0.971
    57   1 H    0.992 --    25 C    0.976
    58   1 H    0.992 --    28 C    0.976
    59   1 H    0.991 --    28 C    0.972
    60   1 H    0.991 --    28 C    0.972
    61   1 H    0.996 --    29 C    0.962
    62   1 H    0.982 --    30 C    0.968
    63   1 H    0.993 --    30 C    0.974
    64   1 H    0.996 --    30 C    0.980
    65   1 H    0.991 --    31 C    0.956
    66   1 H    0.991 --    32 C    0.974
    67   1 H    0.997 --    32 C    0.979
    68   1 H    0.993 --    32 C    0.980
    69   1 H    0.990 --    33 C    0.973
    70   1 H    0.996 --    33 C    0.980
    71   1 H    0.993 --    33 C    0.979
    72   1 H    0.966 --     1 N    0.940
 ---------------------------------------------------------------------------

Topologies differ in total number of bonds
Writing topology from bond orders to xtbtopo.mol

molecular dipole:
                 x           y           z       tot (Debye)
 q only:       -0.465      -0.535       0.085
   full:        0.090      -0.665      -0.217       1.793
molecular quadrupole (traceless):
                xx          xy          yy          xz          yz          zz
 q only:       58.630      17.692     -24.455      -1.359      -9.339     -34.175
  q+dip:       52.120      21.369     -22.572      -0.498     -12.045     -29.548
   full:       50.987      20.989     -22.394      -2.054     -11.577     -28.593

           -------------------------------------------------
          |                Geometry Summary                 |
           -------------------------------------------------

      molecular mass/u    :      455.6105846
   center of mass at/Å    :       -0.0262347       0.0483359       0.0478050
  moments of inertia/u·Å² :        0.2194564E+04   0.1031749E+05   0.1085949E+05
rotational constants/cm⁻¹ :        0.7681542E-02   0.1633889E-02   0.1552342E-02

 * 65 selected distances

     #   Z          #   Z                                           value/Å
     1   7 N        2   6 C                                       1.2498383
     5   6 C        6   6 C                                       1.3588732
     6   6 C        7   8 O                                       1.3489304
     7   8 O        8   6 C                                       1.4089503
     9   6 C       10   8 O                                       1.3286993
    10   8 O       11   6 C                                       1.4116215
     9   6 C       12   6 C                                       1.4065334
    12   6 C       13   6 C                                       1.3569297
     3   6 C       14   6 C                                       1.5308858 (max)
    14   6 C       15   6 C                                       1.5019288
    14   6 C       16   6 C                                       1.5228492
    15   6 C       16   6 C                                       1.4975341
    16   6 C       17   7 N                                       1.4331364
    17   7 N       18   6 C                                       1.4485195
    20   6 C       21   6 C                                       1.3875610
    21   6 C       22   6 C                                       1.3853443
    22   6 C       23   6 C                                       1.3883190
    23   6 C       24   8 O                                       1.3444382
    24   8 O       25   6 C                                       1.4084044
    23   6 C       26   6 C                                       1.4243902
    26   6 C       27   8 O                                       1.3461370
    27   8 O       28   6 C                                       1.4075374
    20   6 C       29   6 C                                       1.3932341
    26   6 C       29   6 C                                       1.3861098
    17   7 N       30   6 C                                       1.4501328
    31   6 C       32   6 C                                       1.5270586
    31   6 C       33   6 C                                       1.5295200
     5   6 C       34   1 H                                       1.0765611
     8   6 C       35   1 H                                       1.0940791
     8   6 C       36   1 H                                       1.0878972
     8   6 C       37   1 H                                       1.0945108
    11   6 C       38   1 H                                       1.0932585
    11   6 C       39   1 H                                       1.0882670
    11   6 C       40   1 H                                       1.0934106
    12   6 C       41   1 H                                       1.0787008
    13   6 C       42   1 H                                       1.0779579
    14   6 C       43   1 H                                       1.0829629
     4   6 C       44   1 H                                       0.7859588 (min)
    15   6 C       45   1 H                                       1.0748884
    15   6 C       46   1 H                                       1.0798999
     2   6 C       47   1 H                                       1.0987169
    16   6 C       48   1 H                                       1.0898148
    18   6 C       49   1 H                                       1.0943290
    18   6 C       50   1 H                                       1.0927838
    19   6 C       51   1 H                                       1.0910671
    19   6 C       52   1 H                                       1.0902078
    21   6 C       53   1 H                                       1.0793851
    22   6 C       54   1 H                                       1.0775452
    25   6 C       55   1 H                                       1.0937302
    25   6 C       56   1 H                                       1.0940018
    25   6 C       57   1 H                                       1.0880481
    28   6 C       58   1 H                                       1.0882068
    28   6 C       59   1 H                                       1.0945893
    28   6 C       60   1 H                                       1.0940781
    29   6 C       61   1 H                                       1.0786097
    30   6 C       62   1 H                                       1.0957857
    30   6 C       63   1 H                                       1.0889059
    30   6 C       64   1 H                                       1.0884407
    31   6 C       65   1 H                                       1.0951382
    32   6 C       66   1 H                                       1.0857852
    32   6 C       67   1 H                                       1.0848574
    32   6 C       68   1 H                                       1.0871865
    33   6 C       69   1 H                                       1.0846784
    33   6 C       70   1 H                                       1.0856583
    33   6 C       71   1 H                                       1.0870536

 * 4 distinct bonds (by element types)

   Z      Z             #   av. dist./Å        max./Å        min./Å
   1 H    6 C          38     1.0799199     1.0987169     0.7859588
   6 C    6 C          15     1.4398048     1.5308858     1.3569297
   6 C    7 N           4     1.3954067     1.4501328     1.2498383
   6 C    8 O           8     1.3755898     1.4116215     1.3286993


optimized geometry written to: xtbopt.xyz


           -------------------------------------------------
          | TOTAL ENERGY             -100.777456682827 Eh   |
          | GRADIENT NORM               0.003426950122 Eh/α |
          | HOMO-LUMO GAP               1.174316886406 eV   |
           -------------------------------------------------

------------------------------------------------------------------------
 * finished run on 2024/04/06 at 11:15:53.837     
------------------------------------------------------------------------
 total:
 * wall-time:     0 d,  0 h,  0 min, 15.666 sec
 *  cpu-time:     0 d,  0 h,  0 min, 15.645 sec
 * ratio c/w:     0.999 speedup
 SCF:
 * wall-time:     0 d,  0 h,  0 min,  0.190 sec
 *  cpu-time:     0 d,  0 h,  0 min,  0.190 sec
 * ratio c/w:     0.999 speedup
 ANC optimizer:
 * wall-time:     0 d,  0 h,  0 min, 15.435 sec
 *  cpu-time:     0 d,  0 h,  0 min, 15.429 sec
 * ratio c/w:     1.000 speedup

