25
 energy: -42.133813762035 gnorm: 0.003980028452 xtb: 6.6.1 (8d0f1dd)
C            2.86915961503618        1.30003200281460        0.77879686592631
N            2.17590574047216        0.18121073488336        0.20254378920565
C            2.73652527678095       -0.81777218705480       -0.43223113225976
N            1.82985589237466       -1.70631404153665       -0.81751533369218
C            0.54387536784244       -1.34014698092460       -0.36796915615382
C            0.77531652762645       -0.02372184665583        0.24142540128667
C           -0.00648663387639        1.02844325485637        0.65440504238072
O            0.19259439791509        2.08610892296792        1.16560068678602
N           -1.59990935380226        0.80533315052684        0.24901384069680
C           -1.87259030816462        1.14081048562090       -1.13852562437641
C           -2.37837901437444        0.72333607663699        1.19974607486571
O           -2.98104614054730        0.60324900128470        2.16014943590819
N           -0.37074693735286       -2.19314164071806       -0.53440374405266
C           -1.70278922118847       -2.20724339436647       -0.03368763575000
H            2.67434267176018        1.34935162109032        1.85081974392910
H            3.93803292223475        1.18550134216549        0.61059832561348
H            2.53041499086179        2.23564769566706        0.33480210721277
H            3.79303133222058       -0.90430103057611       -0.61137920392671
H           -1.22640658685812        0.53089161152322       -1.76967285667112
H           -2.91830328274126        0.94504405522595       -1.37854832902647
H           -1.65278273545971        2.19787990311619       -1.30543957521483
H           -2.01617923905281       -3.25141607262140       -0.02716772010763
H           -2.38312250200643       -1.66454509681366       -0.69343920588667
H           -1.78225063544706       -1.80148517928065        0.97962084002683
H            1.99236936982351       -2.58451384621880       -1.28637101882757
