      -----------------------------------------------------------      
     |                   =====================                   |     
     |                           x T B                           |     
     |                   =====================                   |     
     |                         S. Grimme                         |     
     |          Mulliken Center for Theoretical Chemistry        |     
     |                    University of Bonn                     |     
      -----------------------------------------------------------      

   * xtb version 6.6.1 (8d0f1dd) compiled by 'conda@1efc2f54142f' on 2023-08-01

   xtb is free software: you can redistribute it and/or modify it under
   the terms of the GNU Lesser General Public License as published by
   the Free Software Foundation, either version 3 of the License, or
   (at your option) any later version.
   
   xtb is distributed in the hope that it will be useful,
   but WITHOUT ANY WARRANTY; without even the implied warranty of
   MERCHANTABILITY or FITNESS FOR A PARTICULAR PURPOSE.  See the
   GNU Lesser General Public License for more details.
   
   Cite this work as:
   * C. Bannwarth, E. Caldeweyher, S. Ehlert, A. Hansen, P. Pracht,
     J. Seibert, S. Spicher, S. Grimme, WIREs Comput. Mol. Sci., 2020, 11,
     e01493. DOI: 10.1002/wcms.1493
   
   for GFN2-xTB:
   * C. Bannwarth, S. Ehlert and S. Grimme., J. Chem. Theory Comput., 2019,
     15, 1652-1671. DOI: 10.1021/acs.jctc.8b01176
   for GFN1-xTB:
   * S. Grimme, C. Bannwarth, P. Shushkov, J. Chem. Theory Comput., 2017,
     13, 1989-2009. DOI: 10.1021/acs.jctc.7b00118
   for GFN0-xTB:
   * P. Pracht, E. Caldeweyher, S. Ehlert, S. Grimme, ChemRxiv, 2019, preprint.
     DOI: 10.26434/chemrxiv.8326202.v1
   for GFN-FF:
   * S. Spicher and S. Grimme, Angew. Chem. Int. Ed., 2020, 59, 15665-15673.
     DOI: 10.1002/anie.202004239
   
   for ALPB and GBSA implicit solvation:
   * S. Ehlert, M. Stahn, S. Spicher, S. Grimme, J. Chem. Theory Comput.,
     2021, 17, 4250-4261. DOI: 10.1021/acs.jctc.1c00471
   
   for DFT-D4:
   * E. Caldeweyher, C. Bannwarth and S. Grimme, J. Chem. Phys., 2017,
     147, 034112. DOI: 10.1063/1.4993215
   * E. Caldeweyher, S. Ehlert, A. Hansen, H. Neugebauer, S. Spicher,
     C. Bannwarth and S. Grimme, J. Chem. Phys., 2019, 150, 154122.
     DOI: 10.1063/1.5090222
   * E. Caldeweyher, J.-M. Mewes, S. Ehlert and S. Grimme, Phys. Chem. Chem. Phys.
     2020, 22, 8499-8512. DOI: 10.1039/D0CP00502A
   
   for sTDA-xTB:
   * S. Grimme and C. Bannwarth, J. Chem. Phys., 2016, 145, 054103.
     DOI: 10.1063/1.4959605
   
   in the mass-spec context:
   * V. Asgeirsson, C. Bauer and S. Grimme, Chem. Sci., 2017, 8, 4879.
     DOI: 10.1039/c7sc00601b
   * J. Koopman and S. Grimme, ACS Omega 2019, 4, 12, 15120-15133.
     DOI: 10.1021/acsomega.9b02011
   
   for metadynamics refer to:
   * S. Grimme, J. Chem. Theory Comput., 2019, 155, 2847-2862
     DOI: 10.1021/acs.jctc.9b00143
   
   for SPH calculations refer to:
   * S. Spicher and S. Grimme, J. Chem. Theory Comput., 2021, 17, 1701-1714
     DOI: 10.1021/acs.jctc.0c01306
   
   with help from (in alphabetical order)
   P. Atkinson, C. Bannwarth, F. Bohle, G. Brandenburg, E. Caldeweyher
   M. Checinski, S. Dohm, S. Ehlert, S. Ehrlich, I. Gerasimov, C. Hölzer
   A. Katbashev, J. Koopman, C. Lavigne, S. Lehtola, F. März, M. Müller,
   F. Musil, H. Neugebauer, J. Pisarek, C. Plett, P. Pracht, F. Pultar,
   J. Seibert, P. Shushkov, S. Spicher, M. Stahn, M. Steiner, T. Strunk,
   J. Stückrath, T. Rose, and J. Unsleber
   
 * started run on 2024/06/05 at 19:57:55.556     

           -------------------------------------------------
          |                Calculation Setup                |
           -------------------------------------------------

          program call               : xtb struc.xyz --opt loose --input .xc1 --gfn2
          hostname                   : n-62-21-71
          coordinate file            : struc.xyz
          omp threads                :                     1

   ID    Z sym.   atoms
    1    6 C      1, 3, 5-7, 10, 11, 14
    2    7 N      2, 4, 9, 13
    3    8 O      8, 12
    4    1 H      15-25
constraining bond 4 14 to    5.9200000 Å, actual value:    2.9945428 Å

           -------------------------------------------------
          |                 G F N 2 - x T B                 |
           -------------------------------------------------

        Reference                      10.1021/acs.jctc.8b01176
      * Hamiltonian:
        H0-scaling (s, p, d)           1.850000    2.230000    2.230000
        zeta-weighting                 0.500000
      * Dispersion:
        s8                             2.700000
        a1                             0.520000
        a2                             5.000000
        s9                             5.000000
      * Repulsion:
        kExp                           1.500000    1.000000
        rExp                           1.000000
      * Coulomb:
        alpha                          2.000000
        third order                    shell-resolved
        anisotropic                    true
        a3                             3.000000
        a5                             4.000000
        cn-shift                       1.200000
        cn-exp                         4.000000
        max-rad                        5.000000


          ...................................................
          :                      SETUP                      :
          :.................................................:
          :  # basis functions                  67          :
          :  # atomic orbitals                  67          :
          :  # shells                           39          :
          :  # electrons                        74          :
          :  max. iterations                   250          :
          :  Hamiltonian                  GFN2-xTB          :
          :  restarted?                      false          :
          :  GBSA solvation                  false          :
          :  PC potential                    false          :
          :  electronic temp.         2500.0000000     K    :
          :  accuracy                    1.0000000          :
          :  -> integral cutoff          0.2500000E+02      :
          :  -> integral neglect         0.1000000E-07      :
          :  -> SCF convergence          0.1000000E-05 Eh   :
          :  -> wf. convergence          0.1000000E-03 e    :
          :  Broyden damping             0.4000000          :
          ...................................................

 iter      E             dE          RMSdq      gap      omega  full diag
   1    -42.5894761 -0.425895E+02  0.446E+00    3.52       0.0  T
   2    -42.7660496 -0.176573E+00  0.253E+00    3.37       1.0  T
   3    -42.7736311 -0.758158E-02  0.147E+00    3.27       1.0  T
   4    -42.7712089  0.242228E-02  0.522E-01    3.20       1.0  T
   5    -42.7763755 -0.516665E-02  0.115E-01    3.24       1.0  T
   6    -42.7764786 -0.103096E-03  0.599E-02    3.22       1.0  T
   7    -42.7764977 -0.190557E-04  0.265E-02    3.24       1.0  T
   8    -42.7765022 -0.458752E-05  0.826E-03    3.24       2.4  T
   9    -42.7765028 -0.511866E-06  0.435E-03    3.24       4.6  T
  10    -42.7765028 -0.741126E-07  0.110E-03    3.24      18.2  T
  11    -42.7765028 -0.615289E-08  0.514E-04    3.24      38.9  T
  12    -42.7765028 -0.131732E-08  0.162E-04    3.24     123.6  T

   *** convergence criteria satisfied after 12 iterations ***

         #    Occupation            Energy/Eh            Energy/eV
      -------------------------------------------------------------
         1        2.0000           -0.9218663             -25.0853
       ...           ...                  ...                  ...
        31        2.0000           -0.6245728             -16.9955
        32        2.0000           -0.6188521             -16.8398
        33        2.0000           -0.5946289             -16.1807
        34        1.9999           -0.5766508             -15.6915
        35        1.9996           -0.5616187             -15.2824
        36        1.9994           -0.5584494             -15.1962
        37        1.9993           -0.5575820             -15.1726 (HOMO)
        38        0.0017           -0.4385664             -11.9340 (LUMO)
        39        0.0000           -0.4059970             -11.0477
        40        0.0000           -0.3720875             -10.1250
        41                         -0.2883077              -7.8453
        42                         -0.2064013              -5.6165
       ...                                ...                  ...
        67                          0.5638960              15.3444
      -------------------------------------------------------------
                  HL-Gap            0.1190156 Eh            3.2386 eV
             Fermi-level           -0.4943591 Eh          -13.4522 eV

 SCC (total)                   0 d,  0 h,  0 min,  0.038 sec
 SCC setup                      ...        0 min,  0.000 sec (  0.791%)
 Dispersion                     ...        0 min,  0.000 sec (  0.998%)
 classical contributions        ...        0 min,  0.000 sec (  0.291%)
 integral evaluation            ...        0 min,  0.007 sec ( 18.101%)
 iterations                     ...        0 min,  0.017 sec ( 45.223%)
 molecular gradient             ...        0 min,  0.013 sec ( 34.151%)
 printout                       ...        0 min,  0.000 sec (  0.407%)

         :::::::::::::::::::::::::::::::::::::::::::::::::::::
         ::                     SUMMARY                     ::
         :::::::::::::::::::::::::::::::::::::::::::::::::::::
         :: total energy             -26.964164171347 Eh    ::
         :: gradient norm              7.818153060069 Eh/a0 ::
         :: HOMO-LUMO gap              3.238579380711 eV    ::
         ::.................................................::
         :: SCC energy               -42.776502838750 Eh    ::
         :: -> isotropic ES            0.143394945287 Eh    ::
         :: -> anisotropic ES         -0.005231236584 Eh    ::
         :: -> anisotropic XC          0.012162721064 Eh    ::
         :: -> dispersion             -0.022660936007 Eh    ::
         :: repulsion energy           0.531105277918 Eh    ::
         :: add. restraining          15.281119230476 Eh    ::
         :: total charge               1.000000000000 e     ::
         :::::::::::::::::::::::::::::::::::::::::::::::::::::

      ----------------------------------------------------------- 
     |                   =====================                   |
     |                        A N C O P T                        |
     |                   =====================                   |
     |               Approximate Normal Coordinate               |
     |                Rational Function Optimizer                |
      ----------------------------------------------------------- 

          ...................................................
          :                      SETUP                      :
          :.................................................:
          :   optimization level             loose          :
          :   max. optcycles                   200          :
          :   ANC micro-cycles                  20          :
          :   degrees of freedom                69          :
          :.................................................:
          :   RF solver                   davidson          :
          :   write xtbopt.log                true          :
          :   linear?                        false          :
          :   energy convergence         0.5000000E-04 Eh   :
          :   grad. convergence          0.4000000E-02 Eh/α :
          :   maxmium RF displ.          1.0000000          :
          :   Hlow (freq-cutoff)         0.1000000E-01      :
          :   Hmax (freq-cutoff)         5.0000000          :
          :   S6 in model hess.         20.0000000          :
          ...................................................

generating ANC from model Hessian ...
Using Lindh-Hessian (1995)
 Shifting diagonal of input Hessian by    1.4966842552796498     
 Lowest  eigenvalues of input Hessian
    0.010000    0.435787    0.000000    0.000000    0.000000    0.000000
    0.000000    0.000000    1.500758    1.501857    1.505514    1.506105
    1.507756    1.510362    1.511961    1.521824    1.522664    1.526436
 Highest eigenvalues
    3.545252    3.649279    3.678931    3.895596    4.023075    4.849386


........................................................................
.............................. CYCLE    1 ..............................
........................................................................

 iter      E             dE          RMSdq      gap      omega  full diag
   1    -42.7765028 -0.427765E+02  0.540E-05    3.24       0.0  T
   2    -42.7765028 -0.643041E-11  0.289E-05    3.24     692.1  T
   3    -42.7765028  0.881073E-12  0.138E-05    3.24    1448.6  T
     SCC iter.                  ...        0 min,  0.005 sec
     gradient                   ...        0 min,  0.013 sec
 * total energy  :   -26.9641642 Eh     change       -0.6633627E-10 Eh
   gradient norm :     7.8181532 Eh/α   predicted     0.0000000E+00 (-100.00%)
   displ. norm   :     0.7562875 α      lambda       -0.5891440E+01
   maximum displ.:     0.6651713 α      in ANC's #69, #60, #63, ...

........................................................................
.............................. CYCLE    2 ..............................
........................................................................

 iter      E             dE          RMSdq      gap      omega  full diag
   1    -42.7066048 -0.427066E+02  0.128E+00    3.45       0.0  T
   2    -42.7197983 -0.131935E-01  0.732E-01    3.53       1.0  T
   3    -42.7229873 -0.318901E-02  0.401E-01    3.50       1.0  T
   4    -42.7232333 -0.245943E-03  0.180E-01    3.51       1.0  T
   5    -42.7238336 -0.600313E-03  0.389E-02    3.52       1.0  T
   6    -42.7238484 -0.147955E-04  0.164E-02    3.51       1.2  T
   7    -42.7238487 -0.326998E-06  0.416E-03    3.51       4.8  T
   8    -42.7238489 -0.177798E-06  0.145E-03    3.51      13.8  T
   9    -42.7238489 -0.793042E-08  0.430E-04    3.51      46.5  T
  10    -42.7238489 -0.108655E-08  0.165E-04    3.51     121.2  T
     SCC iter.                  ...        0 min,  0.014 sec
     gradient                   ...        0 min,  0.013 sec
 * total energy  :   -32.0896042 Eh     change       -0.5125440E+01 Eh
   gradient norm :     5.6756744 Eh/α   predicted    -0.4630670E+01 (  -9.65%)
   displ. norm   :     0.8016811 α      lambda       -0.4510546E+01
   maximum displ.:     0.6660910 α      in ANC's #69, #60, #39, ...

........................................................................
.............................. CYCLE    3 ..............................
........................................................................

 iter      E             dE          RMSdq      gap      omega  full diag
   1    -42.5284269 -0.425284E+02  0.136E+00    3.18       0.0  T
   2    -42.5330210 -0.459413E-02  0.106E+00    2.88       1.0  T
   3    -42.5529401 -0.199191E-01  0.522E-01    3.06       1.0  T
   4    -42.5549879 -0.204784E-02  0.216E-01    3.04       1.0  T
   5    -42.5554173 -0.429384E-03  0.631E-02    2.97       1.0  T
   6    -42.5555027 -0.853808E-04  0.234E-02    3.01       1.0  T
   7    -42.5555056 -0.285116E-05  0.912E-03    3.01       2.2  T
   8    -42.5555060 -0.484744E-06  0.338E-03    3.01       5.9  T
   9    -42.5555061 -0.994378E-07  0.907E-04    3.01      22.1  T
  10    -42.5555061 -0.329942E-08  0.353E-04    3.01      56.7  T
     SCC iter.                  ...        0 min,  0.014 sec
     gradient                   ...        0 min,  0.013 sec
 * total energy  :   -35.6712373 Eh     change       -0.3581633E+01 Eh
   gradient norm :     3.6182673 Eh/α   predicted    -0.3704725E+01 (   3.44%)
   displ. norm   :     0.8564276 α      lambda       -0.3082217E+01
   maximum displ.:     0.4581940 α      in ANC's #69, #39, #60, ...

........................................................................
.............................. CYCLE    4 ..............................
........................................................................

 iter      E             dE          RMSdq      gap      omega  full diag
   1    -42.3531631 -0.423532E+02  0.120E+00    1.45       0.0  T
   2    -42.3331505  0.200125E-01  0.115E+00    1.14       1.0  T
   3    -42.3606716 -0.275210E-01  0.776E-01    1.61       1.0  T
   4    -42.3693376 -0.866608E-02  0.246E-01    1.32       1.0  T
   5    -42.3694606 -0.122947E-03  0.219E-01    1.49       1.0  T
   6    -42.3706123 -0.115175E-02  0.493E-02    1.41       1.0  T
   7    -42.3706422 -0.298538E-04  0.220E-02    1.40       1.0  T
   8    -42.3706475 -0.534599E-05  0.838E-03    1.40       2.4  T
   9    -42.3706487 -0.120108E-05  0.296E-03    1.40       6.8  T
  10    -42.3706488 -0.280669E-07  0.748E-04    1.40      26.7  T
  11    -42.3706488 -0.445488E-08  0.320E-04    1.40      62.5  T
     SCC iter.                  ...        0 min,  0.015 sec
     gradient                   ...        0 min,  0.013 sec
 * total energy  :   -38.3882373 Eh     change       -0.2717000E+01 Eh
   gradient norm :     2.8475053 Eh/α   predicted    -0.2671462E+01 (  -1.68%)
   displ. norm   :     0.8576506 α      lambda       -0.2423605E+01
   maximum displ.:     0.5342643 α      in ANC's #69, #60, #39, ...

........................................................................
.............................. CYCLE    5 ..............................
........................................................................

 iter      E             dE          RMSdq      gap      omega  full diag
   1    -42.1594324 -0.421594E+02  0.146E+00    0.54       0.0  T
   2    -42.1590092  0.423221E-03  0.135E+00    0.96       1.0  T
   3    -42.1492716  0.973766E-02  0.117E+00    0.47       1.0  T
   4    -42.1609208 -0.116492E-01  0.102E+00    0.93       1.0  T
   5    -42.2008096 -0.398888E-01  0.259E-01    0.78       1.0  T
   6    -42.2017769 -0.967264E-03  0.173E-01    0.78       1.0  T
   7    -42.2023487 -0.571883E-03  0.101E-01    0.76       1.0  T
   8    -42.2025413 -0.192547E-03  0.519E-02    0.76       1.0  T
   9    -42.2026316 -0.903176E-04  0.102E-02    0.75       2.0  T
  10    -42.2026319 -0.310298E-06  0.618E-03    0.75       3.2  T
  11    -42.2026329 -0.973936E-06  0.182E-03    0.75      11.0  T
  12    -42.2026329 -0.283850E-07  0.903E-04    0.75      22.2  T
  13    -42.2026329 -0.163183E-07  0.212E-04    0.75      94.4  T
     SCC iter.                  ...        0 min,  0.017 sec
     gradient                   ...        0 min,  0.013 sec
 * total energy  :   -40.3800679 Eh     change       -0.1991831E+01 Eh
   gradient norm :     1.8679902 Eh/α   predicted    -0.2103166E+01 (   5.59%)
   displ. norm   :     0.7247403 α      lambda       -0.1328843E+01
   maximum displ.:     0.5264075 α      in ANC's #69, #60, #39, ...

........................................................................
.............................. CYCLE    6 ..............................
........................................................................

 iter      E             dE          RMSdq      gap      omega  full diag
   1    -42.0849102 -0.420849E+02  0.246E+00    0.05       0.0  T
   2    -41.8432546  0.241656E+00  0.226E+00    0.02       1.0  T
   3    -40.5107757  0.133248E+01  0.480E+00    0.72       1.0  T
   4    -42.0796422 -0.156887E+01  0.119E+00    0.10       1.0  T
   5    -42.0999119 -0.202697E-01  0.652E-01    0.08       1.0  T
   6    -42.1041197 -0.420779E-02  0.464E-01    0.08       1.0  T
   7    -42.1067562 -0.263658E-02  0.327E-01    0.08       1.0  T
   8    -42.1087114 -0.195515E-02  0.126E-01    0.08       1.0  T
   9    -42.1089261 -0.214723E-03  0.510E-02    0.07       1.0  T
  10    -42.1089619 -0.358153E-04  0.119E-02    0.07       1.7  T
  11    -42.1089624 -0.512871E-06  0.623E-03    0.07       3.2  T
  12    -42.1089633 -0.815796E-06  0.199E-03    0.07      10.0  T
  13    -42.1089633 -0.329062E-07  0.885E-04    0.07      22.6  T
  14    -42.1089633 -0.156595E-07  0.858E-04    0.07      23.3  T
     SCC iter.                  ...        0 min,  0.019 sec
     gradient                   ...        0 min,  0.013 sec
 * total energy  :   -41.3197620 Eh     change       -0.9396941E+00 Eh
   gradient norm :     0.7888016 Eh/α   predicted    -0.1013409E+01 (   7.84%)
   displ. norm   :     0.4504137 α      lambda       -0.3392341E+00
   maximum displ.:     0.3115265 α      in ANC's #69, #2, #39, ...

........................................................................
.............................. CYCLE    7 ..............................
........................................................................

 iter      E             dE          RMSdq      gap      omega  full diag
   1    -42.0227122 -0.420227E+02  0.167E+00    0.37       0.0  T
   2    -41.2431132  0.779599E+00  0.394E+00    0.25       1.0  T
   3    -41.6425567 -0.399444E+00  0.251E+00    0.35       1.0  T
   4    -42.0535006 -0.410944E+00  0.825E-01    0.25       1.0  T
   5    -42.0603320 -0.683137E-02  0.573E-01    0.27       1.0  T
   6    -42.0569779  0.335408E-02  0.523E-01    0.28       1.0  T
   7    -42.0628752 -0.589733E-02  0.264E-01    0.25       1.0  T
   8    -42.0632271 -0.351860E-03  0.167E-01    0.25       1.0  T
   9    -42.0633849 -0.157752E-03  0.723E-02    0.25       1.0  T
  10    -42.0634039 -0.190395E-04  0.972E-03    0.25       2.1  T
  11    -42.0634053 -0.138642E-05  0.803E-03    0.25       2.5  T
  12    -42.0634053  0.254709E-07  0.485E-03    0.25       4.1  T
  13    -42.0634056 -0.350796E-06  0.227E-03    0.25       8.8  T
  14    -42.0634056 -0.285106E-07  0.962E-04    0.25      20.8  T
  15    -42.0634056 -0.120896E-07  0.576E-04    0.25      34.7  T
     SCC iter.                  ...        0 min,  0.020 sec
     gradient                   ...        0 min,  0.012 sec
 * total energy  :   -41.5135923 Eh     change       -0.1938303E+00 Eh
   gradient norm :     0.2556085 Eh/α   predicted    -0.2040279E+00 (   5.26%)
   displ. norm   :     0.1694282 α      lambda       -0.3986217E-01
   maximum displ.:     0.0650194 α      in ANC's #69, #39, #42, ...

........................................................................
.............................. CYCLE    8 ..............................
........................................................................

 iter      E             dE          RMSdq      gap      omega  full diag
   1    -42.0666898 -0.420667E+02  0.340E-01    0.35       0.0  T
   2    -42.0663092  0.380546E-03  0.245E-01    0.35       1.0  T
   3    -42.0539707  0.123385E-01  0.458E-01    0.30       1.0  T
   4    -42.0553249 -0.135415E-02  0.484E-01    0.38       1.0  T
   5    -42.0664638 -0.111389E-01  0.155E-01    0.35       1.0  T
   6    -42.0671063 -0.642556E-03  0.760E-02    0.34       1.0  T
   7    -42.0673290 -0.222715E-03  0.359E-02    0.34       1.0  T
   8    -42.0673423 -0.133049E-04  0.279E-02    0.34       1.0  T
   9    -42.0673728 -0.304590E-04  0.909E-03    0.34       2.2  T
  10    -42.0673764 -0.361820E-05  0.285E-03    0.34       7.0  T
  11    -42.0673767 -0.308758E-06  0.911E-04    0.34      22.0  T
  12    -42.0673767 -0.153743E-07  0.285E-04    0.34      70.3  T
     SCC iter.                  ...        0 min,  0.016 sec
     gradient                   ...        0 min,  0.012 sec
 * total energy  :   -41.5447400 Eh     change       -0.3114776E-01 Eh
   gradient norm :     0.1972637 Eh/α   predicted    -0.2050328E-01 ( -34.17%)
   displ. norm   :     0.2859379 α      lambda       -0.4849376E-01
   maximum displ.:     0.1039746 α      in ANC's #42, #31, #39, ...

........................................................................
.............................. CYCLE    9 ..............................
........................................................................

 iter      E             dE          RMSdq      gap      omega  full diag
   1    -42.0782489 -0.420782E+02  0.458E-01    0.39       0.0  T
   2    -41.9924930  0.857559E-01  0.122E+00    0.49       1.0  T
   3    -42.0739871 -0.814941E-01  0.424E-01    0.37       1.0  T
   4    -42.0801755 -0.618843E-02  0.295E-01    0.43       1.0  T
   5    -42.0811239 -0.948375E-03  0.208E-01    0.42       1.0  T
   6    -42.0824170 -0.129312E-02  0.110E-01    0.41       1.0  T
   7    -42.0830560 -0.638987E-03  0.257E-02    0.41       1.0  T
   8    -42.0830830 -0.270339E-04  0.832E-03    0.41       2.4  T
   9    -42.0830836 -0.622594E-06  0.465E-03    0.41       4.3  T
  10    -42.0830834  0.230025E-06  0.331E-03    0.41       6.0  T
  11    -42.0830838 -0.373963E-06  0.197E-03    0.41      10.1  T
  12    -42.0830839 -0.115854E-06  0.828E-04    0.41      24.1  T
  13    -42.0830839 -0.348674E-07  0.152E-04    0.41     131.8  T
     SCC iter.                  ...        0 min,  0.018 sec
     gradient                   ...        0 min,  0.012 sec
 * total energy  :   -41.5793173 Eh     change       -0.3457731E-01 Eh
   gradient norm :     0.1586063 Eh/α   predicted    -0.2622939E-01 ( -24.14%)
   displ. norm   :     0.2798620 α      lambda       -0.2945988E-01
   maximum displ.:     0.0939102 α      in ANC's #42, #33, #31, ...

........................................................................
.............................. CYCLE   10 ..............................
........................................................................

 iter      E             dE          RMSdq      gap      omega  full diag
   1    -42.0930018 -0.420930E+02  0.498E-01    0.36       0.0  T
   2    -41.9283679  0.164634E+00  0.160E+00    0.51       1.0  T
   3    -42.0860803 -0.157712E+00  0.534E-01    0.32       1.0  T
   4    -42.0994581 -0.133777E-01  0.179E-01    0.41       1.0  T
   5    -42.0998557 -0.397636E-03  0.117E-01    0.42       1.0  T
   6    -42.1001186 -0.262880E-03  0.769E-02    0.42       1.0  T
   7    -42.1003331 -0.214446E-03  0.271E-02    0.41       1.0  T
   8    -42.1003537 -0.206740E-04  0.128E-02    0.41       1.6  T
   9    -42.1003572 -0.344455E-05  0.653E-03    0.41       3.1  T
  10    -42.1003587 -0.156870E-05  0.196E-03    0.41      10.2  T
  11    -42.1003589 -0.120668E-06  0.798E-04    0.41      25.1  T
  12    -42.1003589 -0.576423E-08  0.255E-04    0.41      78.5  T
     SCC iter.                  ...        0 min,  0.016 sec
     gradient                   ...        0 min,  0.012 sec
 * total energy  :   -41.6022008 Eh     change       -0.2288347E-01 Eh
   gradient norm :     0.1451969 Eh/α   predicted    -0.1588393E-01 ( -30.59%)
   displ. norm   :     0.3856744 α      lambda       -0.3075587E-01
   maximum displ.:     0.1426043 α      in ANC's #33, #31, #42, ...

........................................................................
.............................. CYCLE   11 ..............................
........................................................................

 iter      E             dE          RMSdq      gap      omega  full diag
   1    -42.1081258 -0.421081E+02  0.692E-01    0.30       0.0  T
   2    -41.7941539  0.313972E+00  0.214E+00    0.50       1.0  T
   3    -42.0845333 -0.290379E+00  0.860E-01    0.22       1.0  T
   4    -42.1163708 -0.318375E-01  0.320E-01    0.34       1.0  T
   5    -42.1205248 -0.415399E-02  0.128E-01    0.38       1.0  T
   6    -42.1205697 -0.449095E-04  0.989E-02    0.38       1.0  T
   7    -42.1206029 -0.331864E-04  0.623E-02    0.38       1.0  T
   8    -42.1206219 -0.190022E-04  0.504E-02    0.37       1.0  T
   9    -42.1206769 -0.549928E-04  0.156E-02    0.37       1.3  T
  10    -42.1206865 -0.961044E-05  0.480E-03    0.37       4.2  T
  11    -42.1206874 -0.882789E-06  0.256E-03    0.37       7.8  T
  12    -42.1206875 -0.733532E-07  0.543E-04    0.37      36.9  T
  13    -42.1206875  0.610498E-09  0.288E-04    0.37      69.4  T
     SCC iter.                  ...        0 min,  0.018 sec
     gradient                   ...        0 min,  0.012 sec
 * total energy  :   -41.6265562 Eh     change       -0.2435540E-01 Eh
   gradient norm :     0.1413617 Eh/α   predicted    -0.1766536E-01 ( -27.47%)
   displ. norm   :     0.4968391 α      lambda       -0.3193275E-01
   maximum displ.:     0.1972218 α      in ANC's #33, #18, #31, ...

........................................................................
.............................. CYCLE   12 ..............................
........................................................................

 iter      E             dE          RMSdq      gap      omega  full diag
   1    -42.1261416 -0.421261E+02  0.857E-01    0.24       0.0  T
   2    -41.6531030  0.473039E+00  0.260E+00    0.41       1.0  T
   3    -42.0757758 -0.422673E+00  0.119E+00    0.16       1.0  T
   4    -42.1330948 -0.573191E-01  0.452E-01    0.26       1.0  T
   5    -42.1414347 -0.833983E-02  0.183E-01    0.29       1.0  T
   6    -42.1424895 -0.105481E-02  0.132E-01    0.30       1.0  T
   7    -42.1425444 -0.549580E-04  0.888E-02    0.29       1.0  T
   8    -42.1425327  0.116976E-04  0.474E-02    0.29       1.0  T
   9    -42.1425970 -0.642146E-04  0.192E-02    0.29       1.0  T
  10    -42.1426137 -0.167783E-04  0.765E-03    0.29       2.6  T
  11    -42.1426153 -0.159289E-05  0.486E-03    0.29       4.1  T
  12    -42.1426156 -0.229275E-06  0.903E-04    0.29      22.2  T
  13    -42.1426156 -0.110701E-07  0.492E-04    0.29      40.7  T
     SCC iter.                  ...        0 min,  0.018 sec
     gradient                   ...        0 min,  0.012 sec
 * total energy  :   -41.6524282 Eh     change       -0.2587198E-01 Eh
   gradient norm :     0.1411057 Eh/α   predicted    -0.1990774E-01 ( -23.05%)
   displ. norm   :     0.5655383 α      lambda       -0.3175633E-01
   maximum displ.:     0.2311039 α      in ANC's #33, #18, #13, ...

........................................................................
.............................. CYCLE   13 ..............................
........................................................................

 iter      E             dE          RMSdq      gap      omega  full diag
   1    -42.1449519 -0.421450E+02  0.961E-01    0.18       0.0  T
   2    -41.5453074  0.599644E+00  0.292E+00    0.38       1.0  T
   3    -42.0544159 -0.509108E+00  0.154E+00    0.17       1.0  T
   4    -42.1362731 -0.818572E-01  0.745E-01    0.14       1.0  T
   5    -42.1558163 -0.195432E-01  0.380E-01    0.17       1.0  T
   6    -42.1630182 -0.720184E-02  0.176E-01    0.19       1.0  T
   7    -42.1633300 -0.311794E-03  0.115E-01    0.19       1.0  T
   8    -42.1634074 -0.774380E-04  0.590E-02    0.19       1.0  T
   9    -42.1635294 -0.122001E-03  0.236E-02    0.19       1.0  T
  10    -42.1635471 -0.177134E-04  0.114E-02    0.19       1.8  T
  11    -42.1635511 -0.392689E-05  0.424E-03    0.19       4.7  T
  12    -42.1635513 -0.229554E-06  0.104E-03    0.19      19.1  T
  13    -42.1635513 -0.137257E-07  0.717E-04    0.19      27.9  T
  14    -42.1635513 -0.865739E-09  0.376E-04    0.19      53.2  T
     SCC iter.                  ...        0 min,  0.019 sec
     gradient                   ...        0 min,  0.012 sec
 * total energy  :   -41.6765849 Eh     change       -0.2415674E-01 Eh
   gradient norm :     0.1393084 Eh/α   predicted    -0.2095655E-01 ( -13.25%)
   displ. norm   :     0.4165290 α      lambda       -0.2236860E-01
   maximum displ.:     0.1697718 α      in ANC's #33, #13, #18, ...

........................................................................
.............................. CYCLE   14 ..............................
........................................................................

 iter      E             dE          RMSdq      gap      omega  full diag
   1    -42.1685203 -0.421685E+02  0.755E-01    0.13       0.0  T
   2    -41.8276462  0.340874E+00  0.224E+00    0.28       1.0  T
   3    -42.0999884 -0.272342E+00  0.131E+00    0.09       1.0  T
   4    -42.1631913 -0.632030E-01  0.570E-01    0.11       1.0  T
   5    -42.1763296 -0.131383E-01  0.253E-01    0.13       1.0  T
   6    -42.1789330 -0.260333E-02  0.129E-01    0.14       1.0  T
   7    -42.1789994 -0.664481E-04  0.875E-02    0.14       1.0  T
   8    -42.1792021 -0.202692E-03  0.427E-02    0.14       1.0  T
   9    -42.1792505 -0.484195E-04  0.140E-02    0.14       1.4  T
  10    -42.1792535 -0.295100E-05  0.747E-03    0.14       2.7  T
  11    -42.1792558 -0.234671E-05  0.194E-03    0.14      10.3  T
  12    -42.1792558 -0.269564E-07  0.928E-04    0.14      21.5  T
  13    -42.1792559 -0.115134E-07  0.292E-04    0.14      68.5  T
     SCC iter.                  ...        0 min,  0.018 sec
     gradient                   ...        0 min,  0.012 sec
 * total energy  :   -41.6933045 Eh     change       -0.1671955E-01 Eh
   gradient norm :     0.1358426 Eh/α   predicted    -0.1312480E-01 ( -21.50%)
   displ. norm   :     0.3040388 α      lambda       -0.2423439E-01
   maximum displ.:     0.0973521 α      in ANC's #33, #47, #13, ...

........................................................................
.............................. CYCLE   15 ..............................
........................................................................

 iter      E             dE          RMSdq      gap      omega  full diag
   1    -42.1906846 -0.421907E+02  0.741E-01    0.16       0.0  T
   2    -41.9706193  0.220065E+00  0.183E+00    0.17       1.0  T
   3    -42.1171121 -0.146493E+00  0.130E+00    0.04       1.0  T
   4    -42.1931337 -0.760216E-01  0.353E-01    0.16       1.0  T
   5    -42.1980393 -0.490560E-02  0.143E-01    0.16       1.0  T
   6    -42.1982294 -0.190074E-03  0.979E-02    0.16       1.0  T
   7    -42.1982738 -0.444074E-04  0.760E-02    0.16       1.0  T
   8    -42.1983149 -0.411351E-04  0.296E-02    0.16       1.0  T
   9    -42.1983394 -0.244910E-04  0.976E-03    0.16       2.0  T
  10    -42.1983399 -0.533213E-06  0.554E-03    0.16       3.6  T
  11    -42.1983412 -0.126415E-05  0.147E-03    0.16      13.6  T
  12    -42.1983412 -0.252986E-07  0.539E-04    0.16      37.1  T
  13    -42.1983412 -0.655913E-08  0.196E-04    0.16     102.0  T
     SCC iter.                  ...        0 min,  0.018 sec
     gradient                   ...        0 min,  0.012 sec
 * total energy  :   -41.7127428 Eh     change       -0.1943832E-01 Eh
   gradient norm :     0.1418786 Eh/α   predicted    -0.1323734E-01 ( -31.90%)
   displ. norm   :     0.4454310 α      lambda       -0.4175806E-01
   maximum displ.:     0.1623910 α      in ANC's #42, #39, #47, ...

........................................................................
.............................. CYCLE   16 ..............................
........................................................................

 iter      E             dE          RMSdq      gap      omega  full diag
   1    -42.2223191 -0.422223E+02  0.122E+00    0.32       0.0  T
   2    -42.0416142  0.180705E+00  0.177E+00    0.31       1.0  T
   3    -41.9901970  0.514171E-01  0.212E+00    0.17       1.0  T
   4    -42.2290281 -0.238831E+00  0.450E-01    0.38       1.0  T
   5    -42.2306115 -0.158340E-02  0.248E-01    0.38       1.0  T
   6    -42.2307507 -0.139171E-03  0.163E-01    0.38       1.0  T
   7    -42.2310106 -0.259905E-03  0.835E-02    0.37       1.0  T
   8    -42.2310208 -0.102049E-04  0.406E-02    0.37       1.0  T
   9    -42.2310447 -0.238738E-04  0.127E-02    0.37       1.6  T
  10    -42.2310462 -0.157106E-05  0.393E-03    0.37       5.1  T
  11    -42.2310466 -0.330057E-06  0.187E-03    0.37      10.7  T
  12    -42.2310467 -0.944718E-07  0.684E-04    0.37      29.2  T
  13    -42.2310467 -0.285695E-09  0.444E-04    0.37      45.0  T
     SCC iter.                  ...        0 min,  0.018 sec
     gradient                   ...        0 min,  0.012 sec
 * total energy  :   -41.7440184 Eh     change       -0.3127555E-01 Eh
   gradient norm :     0.2024951 Eh/α   predicted    -0.2502166E-01 ( -20.00%)
   displ. norm   :     0.4582651 α      lambda       -0.3696794E-01
   maximum displ.:     0.1671855 α      in ANC's #42, #19, #39, ...

........................................................................
.............................. CYCLE   17 ..............................
........................................................................

 iter      E             dE          RMSdq      gap      omega  full diag
   1    -42.2665197 -0.422665E+02  0.109E+00    0.43       0.0  T
   2    -42.1982322  0.682875E-01  0.139E+00    0.81       1.0  T
   3    -42.1985147 -0.282496E-03  0.119E+00    0.14       1.0  T
   4    -42.2545464 -0.560318E-01  0.739E-01    0.68       1.0  T
   5    -42.2712626 -0.167162E-01  0.227E-01    0.56       1.0  T
   6    -42.2716533 -0.390708E-03  0.134E-01    0.55       1.0  T
   7    -42.2720611 -0.407758E-03  0.690E-02    0.53       1.0  T
   8    -42.2721587 -0.976081E-04  0.331E-02    0.52       1.0  T
   9    -42.2721975 -0.388362E-04  0.722E-03    0.51       2.8  T
  10    -42.2721983 -0.801910E-06  0.186E-03    0.51      10.8  T
  11    -42.2721983  0.321872E-07  0.136E-03    0.51      14.7  T
  12    -42.2721984 -0.623376E-07  0.328E-04    0.51      61.0  T
  13    -42.2721984 -0.159402E-08  0.108E-04    0.51     185.2  T
     SCC iter.                  ...        0 min,  0.018 sec
     gradient                   ...        0 min,  0.012 sec
 * total energy  :   -41.7726407 Eh     change       -0.2862234E-01 Eh
   gradient norm :     0.2541814 Eh/α   predicted    -0.2236579E-01 ( -21.86%)
   displ. norm   :     0.4186008 α      lambda       -0.4464986E-01
   maximum displ.:     0.1444034 α      in ANC's #19, #23, #46, ...

........................................................................
.............................. CYCLE   18 ..............................
........................................................................

 iter      E             dE          RMSdq      gap      omega  full diag
   1    -42.3209904 -0.423210E+02  0.688E-01    0.45       0.0  T
   2    -42.3175661  0.342431E-02  0.550E-01    0.48       1.0  T
   3    -42.3230405 -0.547443E-02  0.373E-01    0.45       1.0  T
   4    -42.3243079 -0.126736E-02  0.221E-01    0.53       1.0  T
   5    -42.3170338  0.727412E-02  0.450E-01    0.33       1.0  T
   6    -42.3255702 -0.853647E-02  0.654E-02    0.49       1.0  T
   7    -42.3257138 -0.143595E-03  0.200E-02    0.47       1.0  T
   8    -42.3257209 -0.703669E-05  0.849E-03    0.47       2.4  T
   9    -42.3257233 -0.243871E-05  0.164E-03    0.47      12.2  T
  10    -42.3257233 -0.111675E-07  0.970E-04    0.47      20.6  T
  11    -42.3257233 -0.196364E-07  0.348E-04    0.47      57.5  T
     SCC iter.                  ...        0 min,  0.015 sec
     gradient                   ...        0 min,  0.012 sec
 * total energy  :   -41.8034526 Eh     change       -0.3081194E-01 Eh
   gradient norm :     0.2458581 Eh/α   predicted    -0.2623695E-01 ( -14.85%)
   displ. norm   :     0.3408598 α      lambda       -0.6388380E-01
   maximum displ.:     0.1182156 α      in ANC's #23, #46, #13, ...

........................................................................
.............................. CYCLE   19 ..............................
........................................................................

 iter      E             dE          RMSdq      gap      omega  full diag
   1    -42.3740210 -0.423740E+02  0.708E-01    0.29       0.0  T
   2    -42.3453649  0.286562E-01  0.108E+00    0.59       1.0  T
   3    -42.3270175  0.183474E-01  0.118E+00    0.02       1.0  T
   4    -42.3799526 -0.529351E-01  0.369E-01    0.43       1.0  T
   5    -42.3822224 -0.226976E-02  0.205E-01    0.40       1.0  T
   6    -42.3837907 -0.156834E-02  0.530E-02    0.36       1.0  T
   7    -42.3838253 -0.346048E-04  0.301E-02    0.36       1.0  T
   8    -42.3838439 -0.185296E-04  0.121E-02    0.35       1.7  T
   9    -42.3838473 -0.339939E-05  0.358E-03    0.35       5.6  T
  10    -42.3838476 -0.295279E-06  0.154E-03    0.35      13.0  T
  11    -42.3838476 -0.273691E-07  0.575E-04    0.35      34.8  T
  12    -42.3838476 -0.253008E-08  0.291E-04    0.35      68.6  T
     SCC iter.                  ...        0 min,  0.016 sec
     gradient                   ...        0 min,  0.012 sec
 * total energy  :   -41.8541915 Eh     change       -0.5073891E-01 Eh
   gradient norm :     0.1750448 Eh/α   predicted    -0.3565317E-01 ( -29.73%)
   displ. norm   :     0.4685082 α      lambda       -0.5967807E-01
   maximum displ.:     0.1643807 α      in ANC's #13, #23, #46, ...

........................................................................
.............................. CYCLE   20 ..............................
........................................................................

 iter      E             dE          RMSdq      gap      omega  full diag
   1    -42.4270808 -0.424271E+02  0.851E-01    0.17       0.0  T
   2    -42.3364705  0.906103E-01  0.170E+00    0.59       1.0  T
   3    -42.3786889 -0.422183E-01  0.124E+00    0.07       1.0  T
   4    -42.4305786 -0.518898E-01  0.577E-01    0.40       1.0  T
   5    -42.4392574 -0.867878E-02  0.240E-01    0.31       1.0  T
   6    -42.4413946 -0.213720E-02  0.356E-02    0.26       1.0  T
   7    -42.4413942  0.428805E-06  0.284E-02    0.26       1.0  T
   8    -42.4414015 -0.726818E-05  0.169E-02    0.26       1.2  T
   9    -42.4414106 -0.915144E-05  0.401E-03    0.26       5.0  T
  10    -42.4414108 -0.135236E-06  0.231E-03    0.26       8.7  T
  11    -42.4414109 -0.127310E-06  0.717E-04    0.26      27.9  T
  12    -42.4414109 -0.814282E-08  0.323E-04    0.26      61.9  T
     SCC iter.                  ...        0 min,  0.016 sec
     gradient                   ...        0 min,  0.012 sec
 * total energy  :   -41.8900892 Eh     change       -0.3589760E-01 Eh
   gradient norm :     0.1848786 Eh/α   predicted    -0.3638881E-01 (   1.37%)
   displ. norm   :     0.3588396 α      lambda       -0.2228456E-01
   maximum displ.:     0.1242478 α      in ANC's #13, #1, #23, ...
 * RMSD in coord.:     1.1993825 α      energy gain  -0.1492592E+02 Eh

generating ANC from model Hessian ...
Using Lindh-Hessian (1995)
 Shifting diagonal of input Hessian by    1.4066911887607439E-002
 Lowest  eigenvalues of input Hessian
    0.010000    0.000000    0.000000    0.000000    0.000000    0.000000
    0.000000    0.015111    0.015400    0.016027    0.016542    0.017660
    0.020554    0.021184    0.024568    0.024949    0.025015    0.027042
 Highest eigenvalues
    1.877521    2.004604    2.269612    2.313098    2.581534    2.709166


........................................................................
.............................. CYCLE   21 ..............................
........................................................................

 iter      E             dE          RMSdq      gap      omega  full diag
   1    -42.4569296 -0.424569E+02  0.464E-01    0.29       0.0  T
   2    -42.3808772  0.760525E-01  0.139E+00    0.12       1.0  T
   3    -42.4467649 -0.658878E-01  0.608E-01    0.39       1.0  T
   4    -42.4557727 -0.900778E-02  0.287E-01    0.31       1.0  T
   5    -42.4582987 -0.252600E-02  0.110E-01    0.28       1.0  T
   6    -42.4586829 -0.384201E-03  0.438E-02    0.26       1.0  T
   7    -42.4587450 -0.621093E-04  0.567E-03    0.25       3.5  T
   8    -42.4587450 -0.750916E-09  0.355E-03    0.25       5.6  T
   9    -42.4587453 -0.322032E-06  0.145E-03    0.25      13.8  T
  10    -42.4587453  0.223531E-07  0.131E-03    0.25      15.3  T
  11    -42.4587454 -0.604519E-07  0.126E-04    0.25     158.9  T
  12    -42.4587454 -0.374385E-10  0.790E-05    0.25     253.0  T
     SCC iter.                  ...        0 min,  0.016 sec
     gradient                   ...        0 min,  0.012 sec
 * total energy  :   -41.9078913 Eh     change       -0.1780213E-01 Eh
   gradient norm :     0.1897342 Eh/α   predicted     0.0000000E+00 (-100.00%)
   displ. norm   :     0.5387248 α      lambda       -0.5222380E-01
   maximum displ.:     0.2876371 α      in ANC's #13, #24, #21, ...

........................................................................
.............................. CYCLE   22 ..............................
........................................................................

 iter      E             dE          RMSdq      gap      omega  full diag
   1    -42.4494330 -0.424494E+02  0.881E-01    0.46       0.0  T
   2    -41.9912197  0.458213E+00  0.356E+00    0.84       1.0  T
   3    -42.4261683 -0.434949E+00  0.107E+00    0.60       1.0  T
   4    -42.4552639 -0.290956E-01  0.581E-01    0.43       1.0  T
   5    -42.4653732 -0.101093E-01  0.991E-02    0.31       1.0  T
   6    -42.4655083 -0.135103E-03  0.487E-02    0.31       1.0  T
   7    -42.4655736 -0.652873E-04  0.198E-02    0.30       1.0  T
   8    -42.4655772 -0.361188E-05  0.576E-03    0.30       3.5  T
   9    -42.4655777 -0.486415E-06  0.301E-03    0.30       6.7  T
  10    -42.4655779 -0.244793E-06  0.131E-03    0.30      15.2  T
  11    -42.4655779 -0.362689E-07  0.533E-04    0.30      37.5  T
  12    -42.4655779 -0.933544E-08  0.112E-04    0.30     178.4  T
     SCC iter.                  ...        0 min,  0.016 sec
     gradient                   ...        0 min,  0.012 sec
 * total energy  :   -41.9475955 Eh     change       -0.3970421E-01 Eh
   gradient norm :     0.0774205 Eh/α   predicted    -0.3385518E-01 ( -14.73%)
   displ. norm   :     0.6378085 α      lambda       -0.3355096E-01
   maximum displ.:     0.4041421 α      in ANC's #13, #21, #24, ...

........................................................................
.............................. CYCLE   23 ..............................
........................................................................

 iter      E             dE          RMSdq      gap      omega  full diag
   1    -42.4773760 -0.424774E+02  0.827E-01    0.52       0.0  T
   2    -42.0761506  0.401225E+00  0.332E+00    0.64       1.0  T
   3    -42.4484922 -0.372342E+00  0.108E+00    0.69       1.0  T
   4    -42.4818978 -0.334056E-01  0.499E-01    0.49       1.0  T
   5    -42.4880378 -0.614001E-02  0.150E-01    0.39       1.0  T
   6    -42.4886231 -0.585324E-03  0.619E-02    0.38       1.0  T
   7    -42.4887486 -0.125492E-03  0.160E-02    0.36       1.2  T
   8    -42.4887437  0.490498E-05  0.131E-02    0.36       1.5  T
   9    -42.4887503 -0.656419E-05  0.267E-03    0.36       7.5  T
  10    -42.4887505 -0.174803E-06  0.109E-03    0.36      18.4  T
  11    -42.4887505 -0.130473E-07  0.357E-04    0.36      56.0  T
  12    -42.4887505 -0.261001E-08  0.123E-04    0.36     162.4  T
     SCC iter.                  ...        0 min,  0.016 sec
     gradient                   ...        0 min,  0.012 sec
 * total energy  :   -41.9734562 Eh     change       -0.2586071E-01 Eh
   gradient norm :     0.0649150 Eh/α   predicted    -0.2359977E-01 (  -8.74%)
   displ. norm   :     0.6196866 α      lambda       -0.2019403E-01
   maximum displ.:     0.4399634 α      in ANC's #13, #21, #24, ...

........................................................................
.............................. CYCLE   24 ..............................
........................................................................

 iter      E             dE          RMSdq      gap      omega  full diag
   1    -42.5116587 -0.425117E+02  0.641E-01    0.51       0.0  T
   2    -42.3226136  0.189045E+00  0.226E+00    0.23       1.0  T
   3    -42.4886488 -0.166035E+00  0.893E-01    0.70       1.0  T
   4    -42.5119473 -0.232986E-01  0.430E-01    0.51       1.0  T
   5    -42.5164102 -0.446291E-02  0.130E-01    0.43       1.0  T
   6    -42.5168454 -0.435141E-03  0.528E-02    0.42       1.0  T
   7    -42.5169359 -0.905090E-04  0.147E-02    0.40       1.4  T
   8    -42.5169320  0.384548E-05  0.149E-02    0.40       1.3  T
   9    -42.5169408 -0.871838E-05  0.357E-03    0.40       5.6  T
  10    -42.5169411 -0.391188E-06  0.632E-04    0.40      31.6  T
  11    -42.5169411  0.769188E-08  0.563E-04    0.40      35.6  T
     SCC iter.                  ...        0 min,  0.015 sec
     gradient                   ...        0 min,  0.012 sec
 * total energy  :   -41.9856365 Eh     change       -0.1218034E-01 Eh
   gradient norm :     0.0633700 Eh/α   predicted    -0.1397450E-01 (  14.73%)
   displ. norm   :     0.3739460 α      lambda       -0.7948417E-02
   maximum displ.:     0.3017297 α      in ANC's #13, #19, #10, ...

........................................................................
.............................. CYCLE   25 ..............................
........................................................................

 iter      E             dE          RMSdq      gap      omega  full diag
   1    -42.5275873 -0.425276E+02  0.218E-01    0.40       0.0  T
   2    -42.5258571  0.173027E-02  0.265E-01    0.48       1.0  T
   3    -42.5219682  0.388885E-02  0.405E-01    0.29       1.0  T
   4    -42.5273588 -0.539058E-02  0.131E-01    0.44       1.0  T
   5    -42.5278898 -0.531009E-03  0.239E-02    0.41       1.0  T
   6    -42.5279046 -0.147789E-04  0.912E-03    0.41       2.2  T
   7    -42.5279059 -0.129611E-05  0.467E-03    0.41       4.3  T
   8    -42.5279060 -0.163385E-06  0.127E-03    0.41      15.8  T
   9    -42.5279060 -0.833977E-08  0.785E-04    0.41      25.5  T
  10    -42.5279061 -0.214328E-07  0.324E-04    0.41      61.7  T
     SCC iter.                  ...        0 min,  0.014 sec
     gradient                   ...        0 min,  0.012 sec
 * total energy  :   -41.9911988 Eh     change       -0.5562213E-02 Eh
   gradient norm :     0.0341606 Eh/α   predicted    -0.4530017E-02 ( -18.56%)
   displ. norm   :     0.4574542 α      lambda       -0.5216775E-02
   maximum displ.:     0.3871657 α      in ANC's #13, #7, #10, ...

........................................................................
.............................. CYCLE   26 ..............................
........................................................................

 iter      E             dE          RMSdq      gap      omega  full diag
   1    -42.5428585 -0.425429E+02  0.224E-01    0.42       0.0  T
   2    -42.5428596 -0.111554E-05  0.176E-01    0.41       1.0  T
   3    -42.5428532  0.639995E-05  0.125E-01    0.44       1.0  T
   4    -42.5354523  0.740093E-02  0.451E-01    0.28       1.0  T
   5    -42.5431507 -0.769845E-02  0.340E-02    0.42       1.0  T
   6    -42.5431902 -0.394576E-04  0.108E-02    0.41       1.9  T
   7    -42.5431919 -0.171413E-05  0.594E-03    0.41       3.4  T
   8    -42.5431926 -0.643293E-06  0.111E-03    0.42      17.9  T
   9    -42.5431926 -0.877918E-08  0.629E-04    0.42      31.8  T
  10    -42.5431926 -0.869577E-08  0.351E-04    0.42      56.9  T
     SCC iter.                  ...        0 min,  0.014 sec
     gradient                   ...        0 min,  0.012 sec
 * total energy  :   -41.9946420 Eh     change       -0.3443214E-02 Eh
   gradient norm :     0.0228244 Eh/α   predicted    -0.3154237E-02 (  -8.39%)
   displ. norm   :     0.3506165 α      lambda       -0.2373434E-02
   maximum displ.:     0.2527727 α      in ANC's #13, #7, #14, ...

........................................................................
.............................. CYCLE   27 ..............................
........................................................................

 iter      E             dE          RMSdq      gap      omega  full diag
   1    -42.5471906 -0.425472E+02  0.241E-01    0.44       0.0  T
   2    -42.5462598  0.930870E-03  0.228E-01    0.37       1.0  T
   3    -42.5394942  0.676555E-02  0.460E-01    0.59       1.0  T
   4    -42.5469455 -0.745125E-02  0.120E-01    0.40       1.0  T
   5    -42.5473715 -0.426019E-03  0.237E-02    0.44       1.0  T
   6    -42.5473914 -0.199679E-04  0.476E-03    0.43       4.2  T
   7    -42.5473912  0.294156E-06  0.354E-03    0.43       5.6  T
   8    -42.5473915 -0.312973E-06  0.145E-03    0.43      13.8  T
   9    -42.5473915 -0.665803E-07  0.342E-04    0.43      58.5  T
  10    -42.5473915 -0.885201E-09  0.155E-04    0.43     128.6  T
     SCC iter.                  ...        0 min,  0.014 sec
     gradient                   ...        0 min,  0.012 sec
 * total energy  :   -41.9961994 Eh     change       -0.1557466E-02 Eh
   gradient norm :     0.0297424 Eh/α   predicted    -0.1332611E-02 ( -14.44%)
   displ. norm   :     0.4442960 α      lambda       -0.2615738E-02
   maximum displ.:     0.2911156 α      in ANC's #13, #7, #4, ...

........................................................................
.............................. CYCLE   28 ..............................
........................................................................

 iter      E             dE          RMSdq      gap      omega  full diag
   1    -42.5477986 -0.425478E+02  0.353E-01    0.49       0.0  T
   2    -42.5360186  0.117800E-01  0.607E-01    0.28       1.0  T
   3    -42.5421149 -0.609630E-02  0.437E-01    0.61       1.0  T
   4    -42.5481930 -0.607804E-02  0.117E-01    0.45       1.0  T
   5    -42.5484249 -0.231990E-03  0.316E-02    0.47       1.0  T
   6    -42.5484583 -0.333709E-04  0.816E-03    0.46       2.5  T
   7    -42.5484579  0.373402E-06  0.690E-03    0.46       2.9  T
   8    -42.5484590 -0.102153E-05  0.314E-03    0.46       6.4  T
   9    -42.5484593 -0.337847E-06  0.703E-04    0.46      28.5  T
  10    -42.5484593 -0.117611E-07  0.177E-04    0.46     112.9  T
     SCC iter.                  ...        0 min,  0.014 sec
     gradient                   ...        0 min,  0.012 sec
 * total energy  :   -41.9976711 Eh     change       -0.1471655E-02 Eh
   gradient norm :     0.0418085 Eh/α   predicted    -0.1566044E-02 (   6.41%)
   displ. norm   :     0.4695012 α      lambda       -0.3205165E-02
   maximum displ.:     0.2642100 α      in ANC's #13, #7, #5, ...

........................................................................
.............................. CYCLE   29 ..............................
........................................................................

 iter      E             dE          RMSdq      gap      omega  full diag
   1    -42.5432373 -0.425432E+02  0.408E-01    0.64       0.0  T
   2    -42.4498760  0.933612E-01  0.160E+00    0.03       1.0  T
   3    -42.5456478 -0.957718E-01  0.212E-01    0.58       1.0  T
   4    -42.5460759 -0.428123E-03  0.123E-01    0.51       1.0  T
   5    -42.5463120 -0.236026E-03  0.377E-02    0.52       1.0  T
   6    -42.5463435 -0.315202E-04  0.183E-02    0.52       1.1  T
   7    -42.5463512 -0.774887E-05  0.815E-03    0.53       2.5  T
   8    -42.5463531 -0.186268E-05  0.186E-03    0.53      10.8  T
   9    -42.5463532 -0.560476E-07  0.114E-03    0.53      17.5  T
  10    -42.5463532 -0.467271E-07  0.198E-04    0.53     100.8  T
  11    -42.5463532 -0.246736E-09  0.822E-05    0.53     243.3  T
     SCC iter.                  ...        0 min,  0.015 sec
     gradient                   ...        0 min,  0.012 sec
 * total energy  :   -42.0006814 Eh     change       -0.3010280E-02 Eh
   gradient norm :     0.0446214 Eh/α   predicted    -0.1955843E-02 ( -35.03%)
   displ. norm   :     0.8203547 α      lambda       -0.8137487E-02
   maximum displ.:     0.5419880 α      in ANC's #5, #13, #7, ...

........................................................................
.............................. CYCLE   30 ..............................
........................................................................

 iter      E             dE          RMSdq      gap      omega  full diag
   1    -42.5264552 -0.425265E+02  0.832E-01    1.25       0.0  T
   2    -42.3411530  0.185302E+00  0.222E+00    0.01       1.0  T
   3    -42.5359197 -0.194767E+00  0.454E-01    1.03       1.0  T
   4    -42.5398811 -0.396137E-02  0.202E-01    0.83       1.0  T
   5    -42.5397904  0.906441E-04  0.126E-01    0.76       1.0  T
   6    -42.5402053 -0.414849E-03  0.681E-02    0.79       1.0  T
   7    -42.5403764 -0.171133E-03  0.124E-02    0.82       1.6  T
   8    -42.5403798 -0.335300E-05  0.295E-03    0.82       6.8  T
   9    -42.5403799 -0.918681E-07  0.994E-04    0.82      20.1  T
  10    -42.5403799  0.568214E-08  0.649E-04    0.82      30.8  T
     SCC iter.                  ...        0 min,  0.014 sec
     gradient                   ...        0 min,  0.012 sec
 * total energy  :   -42.0103817 Eh     change       -0.9700336E-02 Eh
   gradient norm :     0.0888593 Eh/α   predicted    -0.6806931E-02 ( -29.83%)
   displ. norm   :     0.7933905 α      lambda       -0.1387152E-01
   maximum displ.:     0.5035617 α      in ANC's #5, #13, #7, ...

........................................................................
.............................. CYCLE   31 ..............................
........................................................................

 iter      E             dE          RMSdq      gap      omega  full diag
   1    -42.5331716 -0.425332E+02  0.686E-01    2.25       0.0  T
   2    -42.5369750 -0.380338E-02  0.462E-01    1.53       1.0  T
   3    -42.5378295 -0.854505E-03  0.256E-01    1.80       1.0  T
   4    -42.5380919 -0.262408E-03  0.111E-01    1.64       1.0  T
   5    -42.5382535 -0.161609E-03  0.233E-02    1.67       1.0  T
   6    -42.5382579 -0.439932E-05  0.138E-02    1.68       1.4  T
   7    -42.5382598 -0.183987E-05  0.519E-03    1.68       3.9  T
   8    -42.5382602 -0.439839E-06  0.143E-03    1.68      14.0  T
   9    -42.5382602 -0.153078E-07  0.969E-04    1.68      20.6  T
  10    -42.5382602 -0.663862E-08  0.296E-04    1.68      67.5  T
     SCC iter.                  ...        0 min,  0.014 sec
     gradient                   ...        0 min,  0.012 sec
 * total energy  :   -42.0279019 Eh     change       -0.1752020E-01 Eh
   gradient norm :     0.1514569 Eh/α   predicted    -0.1130159E-01 ( -35.49%)
   displ. norm   :     0.6018850 α      lambda       -0.2728317E-01
   maximum displ.:     0.3596798 α      in ANC's #5, #15, #10, ...

........................................................................
.............................. CYCLE   32 ..............................
........................................................................

 iter      E             dE          RMSdq      gap      omega  full diag
   1    -42.5506309 -0.425506E+02  0.564E-01    2.61       0.0  T
   2    -42.5514454 -0.814478E-03  0.306E-01    2.66       1.0  T
   3    -42.5511875  0.257946E-03  0.204E-01    2.61       1.0  T
   4    -42.5516440 -0.456541E-03  0.744E-02    2.65       1.0  T
   5    -42.5517521 -0.108100E-03  0.132E-02    2.64       1.5  T
   6    -42.5517526 -0.470929E-06  0.806E-03    2.64       2.5  T
   7    -42.5517528 -0.219431E-06  0.377E-03    2.64       5.3  T
   8    -42.5517529 -0.106029E-06  0.157E-03    2.64      12.8  T
   9    -42.5517529 -0.745607E-08  0.549E-04    2.64      36.4  T
  10    -42.5517529 -0.363980E-08  0.187E-04    2.64     107.1  T
     SCC iter.                  ...        0 min,  0.014 sec
     gradient                   ...        0 min,  0.012 sec
 * total energy  :   -42.0533251 Eh     change       -0.2542324E-01 Eh
   gradient norm :     0.1671984 Eh/α   predicted    -0.1858346E-01 ( -26.90%)
   displ. norm   :     0.7618167 α      lambda       -0.5118497E-01
   maximum displ.:     0.4200093 α      in ANC's #5, #4, #15, ...

........................................................................
.............................. CYCLE   33 ..............................
........................................................................

 iter      E             dE          RMSdq      gap      omega  full diag
   1    -42.5456028 -0.425456E+02  0.791E-01    2.22       0.0  T
   2    -42.5479082 -0.230543E-02  0.465E-01    2.33       1.0  T
   3    -42.5476845  0.223743E-03  0.280E-01    2.24       1.0  T
   4    -42.5484238 -0.739310E-03  0.120E-01    2.31       1.0  T
   5    -42.5486866 -0.262846E-03  0.465E-02    2.28       1.0  T
   6    -42.5487188 -0.321610E-04  0.242E-02    2.28       1.0  T
   7    -42.5487226 -0.378637E-05  0.114E-02    2.28       1.8  T
   8    -42.5487233 -0.687495E-06  0.530E-03    2.28       3.8  T
   9    -42.5487234 -0.774675E-07  0.150E-03    2.28      13.3  T
  10    -42.5487234 -0.161862E-07  0.506E-04    2.28      39.5  T
  11    -42.5487234 -0.104757E-08  0.216E-04    2.28      92.4  T
     SCC iter.                  ...        0 min,  0.015 sec
     gradient                   ...        0 min,  0.012 sec
 * total energy  :   -42.0625336 Eh     change       -0.9208433E-02 Eh
   gradient norm :     0.1979566 Eh/α   predicted    -0.4044543E-01 ( 339.22%)
   displ. norm   :     0.4461113 α      lambda       -0.5768566E-01
   maximum displ.:     0.1769907 α      in ANC's #21, #19, #15, ...

........................................................................
.............................. CYCLE   34 ..............................
........................................................................

 iter      E             dE          RMSdq      gap      omega  full diag
   1    -42.5914989 -0.425915E+02  0.552E-01    2.26       0.0  T
   2    -42.5928645 -0.136561E-02  0.341E-01    2.19       1.0  T
   3    -42.5927617  0.102840E-03  0.259E-01    2.27       1.0  T
   4    -42.5936163 -0.854630E-03  0.901E-02    2.21       1.0  T
   5    -42.5937150 -0.986181E-04  0.260E-02    2.23       1.0  T
   6    -42.5937221 -0.719291E-05  0.140E-02    2.23       1.4  T
   7    -42.5937227 -0.518449E-06  0.767E-03    2.23       2.6  T
   8    -42.5937232 -0.550248E-06  0.272E-03    2.23       7.4  T
   9    -42.5937232 -0.212212E-07  0.129E-03    2.23      15.5  T
  10    -42.5937233 -0.137173E-07  0.250E-04    2.23      80.0  T
  11    -42.5937233 -0.498325E-09  0.130E-04    2.23     154.4  T
     SCC iter.                  ...        0 min,  0.015 sec
     gradient                   ...        0 min,  0.012 sec
 * total energy  :   -42.0849678 Eh     change       -0.2243419E-01 Eh
   gradient norm :     0.0830748 Eh/α   predicted    -0.3458306E-01 (  54.15%)
   displ. norm   :     0.6875805 α      lambda       -0.2292543E-01
   maximum displ.:     0.4809486 α      in ANC's #5, #13, #36, ...

........................................................................
.............................. CYCLE   35 ..............................
........................................................................

 iter      E             dE          RMSdq      gap      omega  full diag
   1    -42.6047120 -0.426047E+02  0.578E-01    2.76       0.0  T
   2    -42.6058033 -0.109138E-02  0.337E-01    2.69       1.0  T
   3    -42.6057059  0.974137E-04  0.170E-01    2.74       1.0  T
   4    -42.6059852 -0.279238E-03  0.562E-02    2.69       1.0  T
   5    -42.6060324 -0.472564E-04  0.213E-02    2.71       1.0  T
   6    -42.6060406 -0.822689E-05  0.102E-02    2.71       2.0  T
   7    -42.6060415 -0.806680E-06  0.267E-03    2.71       7.5  T
   8    -42.6060415 -0.730332E-07  0.932E-04    2.71      21.5  T
   9    -42.6060415 -0.307087E-08  0.368E-04    2.71      54.3  T
     SCC iter.                  ...        0 min,  0.012 sec
     gradient                   ...        0 min,  0.012 sec
 * total energy  :   -42.0911271 Eh     change       -0.6159351E-02 Eh
   gradient norm :     0.1081571 Eh/α   predicted    -0.1688192E-01 ( 174.09%)
   displ. norm   :     0.6950907 α      lambda       -0.2562732E-01
   maximum displ.:     0.3247187 α      in ANC's #13, #7, #10, ...

........................................................................
.............................. CYCLE   36 ..............................
........................................................................

 iter      E             dE          RMSdq      gap      omega  full diag
   1    -42.6193219 -0.426193E+02  0.554E-01    2.15       0.0  T
   2    -42.6199649 -0.642972E-03  0.313E-01    2.17       1.0  T
   3    -42.6197958  0.169051E-03  0.146E-01    2.18       1.0  T
   4    -42.6199430 -0.147144E-03  0.670E-02    2.16       1.0  T
   5    -42.6200587 -0.115696E-03  0.166E-02    2.18       1.2  T
   6    -42.6200621 -0.344830E-05  0.652E-03    2.17       3.1  T
   7    -42.6200623 -0.167392E-06  0.270E-03    2.18       7.4  T
   8    -42.6200624 -0.848287E-07  0.125E-03    2.17      16.0  T
   9    -42.6200624 -0.365274E-08  0.547E-04    2.17      36.5  T
  10    -42.6200624 -0.238148E-08  0.211E-04    2.17      94.8  T
     SCC iter.                  ...        0 min,  0.014 sec
     gradient                   ...        0 min,  0.013 sec
 * total energy  :   -42.1028022 Eh     change       -0.1167505E-01 Eh
   gradient norm :     0.0923982 Eh/α   predicted    -0.1900460E-01 (  62.78%)
   displ. norm   :     0.3799745 α      lambda       -0.1270738E-01
   maximum displ.:     0.1597904 α      in ANC's #13, #14, #5, ...

........................................................................
.............................. CYCLE   37 ..............................
........................................................................

 iter      E             dE          RMSdq      gap      omega  full diag
   1    -42.6236164 -0.426236E+02  0.358E-01    2.25       0.0  T
   2    -42.6241489 -0.532508E-03  0.204E-01    2.22       1.0  T
   3    -42.6241787 -0.297534E-04  0.106E-01    2.23       1.0  T
   4    -42.6242645 -0.857712E-04  0.267E-02    2.23       1.0  T
   5    -42.6242763 -0.118021E-04  0.116E-02    2.22       1.7  T
   6    -42.6242770 -0.706675E-06  0.561E-03    2.23       3.6  T
   7    -42.6242771 -0.169807E-06  0.256E-03    2.23       7.8  T
   8    -42.6242772 -0.525979E-07  0.150E-03    2.23      13.3  T
   9    -42.6242772 -0.266829E-07  0.748E-04    2.23      26.7  T
  10    -42.6242772 -0.520323E-08  0.219E-04    2.23      91.2  T
     SCC iter.                  ...        0 min,  0.014 sec
     gradient                   ...        0 min,  0.013 sec
 * total energy  :   -42.1036704 Eh     change       -0.8682315E-03 Eh
   gradient norm :     0.0965319 Eh/α   predicted    -0.7271040E-02 ( 737.45%)
   displ. norm   :     0.6216864 α      lambda       -0.1364223E-01
   maximum displ.:     0.3665969 α      in ANC's #5, #13, #7, ...

........................................................................
.............................. CYCLE   38 ..............................
........................................................................

 iter      E             dE          RMSdq      gap      omega  full diag
   1    -42.6389199 -0.426389E+02  0.446E-01    1.97       0.0  T
   2    -42.6391016 -0.181659E-03  0.291E-01    2.04       1.0  T
   3    -42.6382684  0.833209E-03  0.212E-01    1.96       1.0  T
   4    -42.6393670 -0.109860E-02  0.428E-02    2.02       1.0  T
   5    -42.6394040 -0.369847E-04  0.105E-02    2.02       1.9  T
   6    -42.6394056 -0.168172E-05  0.476E-03    2.01       4.2  T
   7    -42.6394058 -0.113699E-06  0.169E-03    2.01      11.8  T
   8    -42.6394058 -0.221240E-07  0.612E-04    2.01      32.7  T
   9    -42.6394058 -0.514115E-08  0.257E-04    2.01      77.8  T
     SCC iter.                  ...        0 min,  0.012 sec
     gradient                   ...        0 min,  0.013 sec
 * total energy  :   -42.1052267 Eh     change       -0.1556288E-02 Eh
   gradient norm :     0.0691984 Eh/α   predicted    -0.9457454E-02 ( 507.69%)
   displ. norm   :     0.5058902 α      lambda       -0.1364303E-01
   maximum displ.:     0.3113461 α      in ANC's #13, #4, #7, ...

........................................................................
.............................. CYCLE   39 ..............................
........................................................................

 iter      E             dE          RMSdq      gap      omega  full diag
   1    -42.6201715 -0.426202E+02  0.435E-01    2.36       0.0  T
   2    -42.6208639 -0.692343E-03  0.250E-01    2.30       1.0  T
   3    -42.6208526  0.112450E-04  0.134E-01    2.34       1.0  T
   4    -42.6210117 -0.159008E-03  0.391E-02    2.31       1.0  T
   5    -42.6210335 -0.218579E-04  0.166E-02    2.32       1.2  T
   6    -42.6210370 -0.348649E-05  0.964E-03    2.32       2.1  T
   7    -42.6210377 -0.748514E-06  0.421E-03    2.32       4.7  T
   8    -42.6210379 -0.148142E-06  0.183E-03    2.32      10.9  T
   9    -42.6210379 -0.752262E-08  0.633E-04    2.32      31.6  T
  10    -42.6210379 -0.326649E-08  0.218E-04    2.32      91.8  T
     SCC iter.                  ...        0 min,  0.014 sec
     gradient                   ...        0 min,  0.013 sec
 * total energy  :   -42.1045545 Eh     change        0.6721594E-03 Eh
   gradient norm :     0.1129423 Eh/α   predicted    -0.8567307E-02 (*******%)
   displ. norm   :     0.3390527 α      lambda       -0.1254996E-01
   maximum displ.:     0.1628231 α      in ANC's #7, #13, #1, ...

........................................................................
.............................. CYCLE   40 ..............................
........................................................................

 iter      E             dE          RMSdq      gap      omega  full diag
   1    -42.6264465 -0.426264E+02  0.320E-01    2.07       0.0  T
   2    -42.6268659 -0.419370E-03  0.177E-01    2.08       1.0  T
   3    -42.6268423  0.236536E-04  0.119E-01    2.08       1.0  T
   4    -42.6269745 -0.132258E-03  0.482E-02    2.07       1.0  T
   5    -42.6270182 -0.436576E-04  0.159E-02    2.08       1.3  T
   6    -42.6270230 -0.481152E-05  0.644E-03    2.08       3.1  T
   7    -42.6270233 -0.295470E-06  0.242E-03    2.08       8.3  T
   8    -42.6270233 -0.400111E-07  0.116E-03    2.08      17.2  T
   9    -42.6270233 -0.336563E-08  0.517E-04    2.08      38.6  T
  10    -42.6270233 -0.245853E-08  0.168E-04    2.08     119.1  T
     SCC iter.                  ...        0 min,  0.014 sec
     gradient                   ...        0 min,  0.013 sec
 * total energy  :   -42.1094328 Eh     change       -0.4878316E-02 Eh
   gradient norm :     0.0323112 Eh/α   predicted    -0.6996353E-02 (  43.42%)
   displ. norm   :     0.2584417 α      lambda       -0.3743174E-02
   maximum displ.:     0.1233100 α      in ANC's #7, #13, #1, ...

........................................................................
.............................. CYCLE   41 ..............................
........................................................................

 iter      E             dE          RMSdq      gap      omega  full diag
   1    -42.6352987 -0.426353E+02  0.196E-01    2.25       0.0  T
   2    -42.6353837 -0.850645E-04  0.122E-01    2.23       1.0  T
   3    -42.6353624  0.212686E-04  0.821E-02    2.23       1.0  T
   4    -42.6354336 -0.711970E-04  0.255E-02    2.24       1.0  T
   5    -42.6354504 -0.167474E-04  0.881E-03    2.23       2.3  T
   6    -42.6354511 -0.736716E-06  0.468E-03    2.24       4.3  T
   7    -42.6354512 -0.940603E-07  0.140E-03    2.24      14.3  T
   8    -42.6354512 -0.222335E-07  0.679E-04    2.24      29.5  T
   9    -42.6354512 -0.210927E-08  0.340E-04    2.24      58.8  T
     SCC iter.                  ...        0 min,  0.012 sec
     gradient                   ...        0 min,  0.013 sec
 * total energy  :   -42.1095780 Eh     change       -0.1451220E-03 Eh
   gradient norm :     0.0375087 Eh/α   predicted    -0.1996591E-02 (1275.80%)
   displ. norm   :     0.1690112 α      lambda       -0.2541856E-02
   maximum displ.:     0.0943139 α      in ANC's #7, #1, #3, ...

........................................................................
.............................. CYCLE   42 ..............................
........................................................................

 iter      E             dE          RMSdq      gap      omega  full diag
   1    -42.6329011 -0.426329E+02  0.112E-01    2.17       0.0  T
   2    -42.6329454 -0.442978E-04  0.684E-02    2.18       1.0  T
   3    -42.6329471 -0.170805E-05  0.320E-02    2.17       1.0  T
   4    -42.6329536 -0.649551E-05  0.810E-03    2.18       2.5  T
   5    -42.6329545 -0.924832E-06  0.389E-03    2.18       5.1  T
   6    -42.6329545  0.426533E-07  0.284E-03    2.18       7.1  T
   7    -42.6329546 -0.127365E-06  0.839E-04    2.18      23.8  T
   8    -42.6329546 -0.828641E-08  0.385E-04    2.18      52.0  T
     SCC iter.                  ...        0 min,  0.011 sec
     gradient                   ...        0 min,  0.013 sec
 * total energy  :   -42.1107553 Eh     change       -0.1177365E-02 Eh
   gradient norm :     0.0114817 Eh/α   predicted    -0.1307238E-02 (  11.03%)
   displ. norm   :     0.1079680 α      lambda       -0.3437539E-03
   maximum displ.:     0.0600069 α      in ANC's #7, #4, #6, ...
 * RMSD in coord.:     1.0064449 α      energy gain  -0.2206662E+00 Eh

generating ANC from model Hessian ...
Using Lindh-Hessian (1995)
 Shifting diagonal of input Hessian by    8.6544732720074211E-003
 Lowest  eigenvalues of input Hessian
    0.000000    0.000000    0.000000    0.000000    0.000000    0.000000
    0.010000    0.011927    0.013525    0.015624    0.016929    0.019488
    0.021059    0.022510    0.023730    0.031327    0.032095    0.044000
 Highest eigenvalues
    2.096692    2.117820    2.248966    2.388757    2.459896    3.079693


........................................................................
.............................. CYCLE   43 ..............................
........................................................................

 iter      E             dE          RMSdq      gap      omega  full diag
   1    -42.6335518 -0.426336E+02  0.585E-02    2.13       0.0  T
   2    -42.6335582 -0.637176E-05  0.340E-02    2.13       1.0  T
   3    -42.6335564  0.176780E-05  0.161E-02    2.13       1.2  T
   4    -42.6335594 -0.294917E-05  0.416E-03    2.13       4.8  T
   5    -42.6335596 -0.262540E-06  0.213E-03    2.13       9.4  T
   6    -42.6335597 -0.741790E-07  0.102E-03    2.13      19.6  T
   7    -42.6335597 -0.124501E-07  0.390E-04    2.13      51.3  T
   8    -42.6335597 -0.122990E-08  0.172E-04    2.13     116.4  T
     SCC iter.                  ...        0 min,  0.011 sec
     gradient                   ...        0 min,  0.013 sec
 * total energy  :   -42.1108196 Eh     change       -0.6425786E-04 Eh
   gradient norm :     0.0076864 Eh/α   predicted     0.0000000E+00 (-100.00%)
   displ. norm   :     0.0737822 α      lambda       -0.2996354E-03
   maximum displ.:     0.0399021 α      in ANC's #8, #11, #12, ...

........................................................................
.............................. CYCLE   44 ..............................
........................................................................

 iter      E             dE          RMSdq      gap      omega  full diag
   1    -42.6343749 -0.426344E+02  0.558E-02    2.15       0.0  T
   2    -42.6343760 -0.105375E-05  0.334E-02    2.15       1.0  T
   3    -42.6343727  0.331159E-05  0.130E-02    2.15       1.5  T
   4    -42.6343766 -0.390285E-05  0.186E-03    2.15      10.7  T
   5    -42.6343766 -0.588727E-07  0.898E-04    2.15      22.3  T
   6    -42.6343766 -0.118400E-07  0.424E-04    2.15      47.2  T
     SCC iter.                  ...        0 min,  0.009 sec
     gradient                   ...        0 min,  0.013 sec
 * total energy  :   -42.1110269 Eh     change       -0.2072971E-03 Eh
   gradient norm :     0.0034386 Eh/α   predicted    -0.1509219E-03 ( -27.20%)
   displ. norm   :     0.0756428 α      lambda       -0.1179227E-03
   maximum displ.:     0.0450267 α      in ANC's #8, #11, #3, ...

........................................................................
.............................. CYCLE   45 ..............................
........................................................................

 iter      E             dE          RMSdq      gap      omega  full diag
   1    -42.6348594 -0.426349E+02  0.477E-02    2.19       0.0  T
   2    -42.6348615 -0.215149E-05  0.290E-02    2.18       1.0  T
   3    -42.6348589  0.262601E-05  0.143E-02    2.19       1.4  T
   4    -42.6348627 -0.378128E-05  0.150E-03    2.18      13.3  T
   5    -42.6348627 -0.253054E-07  0.715E-04    2.18      28.0  T
   6    -42.6348627 -0.300664E-08  0.322E-04    2.18      62.1  T
     SCC iter.                  ...        0 min,  0.009 sec
     gradient                   ...        0 min,  0.013 sec
 * total energy  :   -42.1111031 Eh     change       -0.7626077E-04 Eh
   gradient norm :     0.0029282 Eh/α   predicted    -0.5931567E-04 ( -22.22%)
   displ. norm   :     0.0572341 α      lambda       -0.4648689E-04
   maximum displ.:     0.0326345 α      in ANC's #8, #11, #3, ...

........................................................................
.............................. CYCLE   46 ..............................
........................................................................

 iter      E             dE          RMSdq      gap      omega  full diag
   1    -42.6349058 -0.426349E+02  0.302E-02    2.22       0.0  T
   2    -42.6349085 -0.273385E-05  0.194E-02    2.22       1.0  T
   3    -42.6349084  0.124924E-06  0.102E-02    2.22       2.0  T
   4    -42.6349096 -0.117242E-05  0.208E-03    2.22       9.6  T
   5    -42.6349096 -0.535135E-07  0.106E-03    2.22      18.8  T
   6    -42.6349097 -0.183776E-07  0.488E-04    2.22      41.0  T
   7    -42.6349097 -0.283868E-08  0.188E-04    2.22     106.5  T
     SCC iter.                  ...        0 min,  0.010 sec
     gradient                   ...        0 min,  0.013 sec
 * total energy  :   -42.1111395 Eh     change       -0.3631034E-04 Eh
   gradient norm :     0.0035557 Eh/α   predicted    -0.2335189E-04 ( -35.69%)
   displ. norm   :     0.0995805 α      lambda       -0.7238231E-04
   maximum displ.:     0.0555186 α      in ANC's #11, #8, #3, ...

   *** GEOMETRY OPTIMIZATION CONVERGED AFTER 46 ITERATIONS ***

------------------------------------------------------------------------
 total energy gain   :       -15.1469753 Eh    -9504.8705 kcal/mol
 total RMSD          :         1.7331737 a0        0.9172 Å
 total power (kW/mol):      -864.5299598 (step)********** (real)
------------------------------------------------------------------------

 ANCopt (total)                0 d,  0 h,  0 min,  1.525 sec
 optimizer setup                ...        0 min,  0.000 sec (  0.029%)
 model hessian                  ...        0 min,  0.018 sec (  1.189%)
 ANC generation                 ...        0 min,  0.003 sec (  0.170%)
 coordinate transformation      ...        0 min,  0.000 sec (  0.028%)
 single point calculation       ...        0 min,  1.489 sec ( 97.669%)
 optimization log               ...        0 min,  0.004 sec (  0.283%)
 hessian update                 ...        0 min,  0.001 sec (  0.038%)
 rational function              ...        0 min,  0.007 sec (  0.452%)

================
 final structure:
================
25
 xtb: 6.6.1 (8d0f1dd)
C            3.35119564389382        1.51334818459588        0.02586122511740
N            2.65246001898190        0.24922143000532       -0.00529479544184
C            3.26869017995689       -0.94604568030265       -0.03574579705072
N            2.68175005440283       -2.06919073859508       -0.04398772738630
[...]
O           -2.64350876675262       -0.94323701246265        0.00079308706747
N           -0.41707547466631       -1.62707444543113        0.00466184329631
C           -3.23077120628512       -2.25026006361545       -0.01129596178295
H            3.83785468196091        1.65415884974659        0.99212364186376
H            4.10294214295204        1.54293996805097       -0.76161719283717
H            2.63640581359190        2.31878273487436       -0.12754900115861
H            4.34925360744826       -0.97197524175441       -0.09809895425962
H           -1.70485060557279        2.58438159306374       -0.00740107571622
H           -2.74711052363639        1.44874390761569       -0.90400292713611
H           -2.76674869587890        1.45094855255895        0.86939879094781
H           -2.89268797332071       -2.82734721981192        0.84991938284982
H           -2.97158920629589       -2.78015268336882       -0.92823620874608
H           -4.30121270624155       -2.07312205048032        0.03970332555214
H            1.67920483047689       -2.29667750331230        0.14315522258093

 Bond Distances (Angstroems)
 ---------------------------
C1-N2=1.4447         C1-H15=1.0910        C1-H16=1.0891        C1-H17=1.0877        N2-C1=1.4447         N2-C3=1.3451         
N2-C6=1.3768         C3-N2=1.3451         C3-N4=1.2673         C3-H18=1.0827        N4-C3=1.2673         N4-H25=1.0449        
C5-C6=1.3409         C5-N13=1.3072        C6-N2=1.3768         C6-C5=1.3409         C6-C7=1.4772         C7-C6=1.4772         
C7-O8=1.2027         C7-N9=1.3956         O8-C7=1.2027         N9-C7=1.3956         N9-C10=1.4556        N9-C11=1.3679        
C10-N9=1.4556        C10-H19=1.0883       C10-H20=1.0889       C10-H21=1.0889       C11-N9=1.3679        C11-O12=1.3020       
C11-N13=1.3166       O12-C11=1.3020       O12-C14=1.4329       N13-C5=1.3072        N13-C11=1.3166       C14-O12=1.4329       
C14-H22=1.0904       C14-H23=1.0903       C14-H24=1.0862       H15-C1=1.0910        H16-C1=1.0891        H17-C1=1.0877        
H18-C3=1.0827        H19-C10=1.0883       H20-C10=1.0889       H21-C10=1.0889       H22-C14=1.0904       H23-C14=1.0903       
H24-C14=1.0862       H25-N4=1.0449        
 C  H  Rav=1.0884 sigma=0.0023  Rmin=1.0827  Rmax=1.0910    10
 C  C  Rav=1.4090 sigma=0.0682  Rmin=1.3409  Rmax=1.4772     2
 N  H  Rav=1.0449 sigma=0.0000  Rmin=1.0449  Rmax=1.0449     1
 N  C  Rav=1.3641 sigma=0.0589  Rmin=1.2673  Rmax=1.4556     9
 O  C  Rav=1.3126 sigma=0.0943  Rmin=1.2027  Rmax=1.4329     3

 selected bond angles (degree)
 --------------------
H15-C1-N2=110.35               H16-C1-N2=110.00               H16-C1-H15=109.21              H17-C1-N2=109.09               
H17-C1-H15=108.81              H17-C1-H16=109.36              C3-N2-C1=123.81                C6-N2-C1=126.00                
C6-N2-C3=110.18                N4-C3-N2=125.13                H18-C3-N2=118.67               H18-C3-N4=116.14               
H25-N4-C3=129.50               N13-C5-C6=131.12               C5-C6-N2=117.95                C7-C6-N2=127.49                
C7-C6-C5=114.50                O8-C7-C6=124.05                N9-C7-C6=113.26                N9-C7-O8=122.69                
C10-N9-C7=117.07               C11-N9-C7=124.54               C11-N9-C10=118.39              H19-C10-N9=107.99              
H20-C10-N9=109.92              H20-C10-H19=109.97             H21-C10-N9=109.89              H21-C10-H19=110.01             
H21-C10-H20=109.05             

 selected dihedral angles (degree)
 ---------------------------------
C3-N2-C1-H15=289.74           C3-N2-C1-H16= 50.30           C3-N2-C1-H17=170.25           C6-N2-C1-H15=108.17           
C6-N2-C1-H16=228.73           C6-N2-C1-H17=348.68           N4-C3-N2-C1=178.92            N4-C3-N2-C6=  0.28            
H18-C3-N2-C1=356.33           H18-C3-N2-C6=177.68           H25-N4-C3-N2=347.59           H25-N4-C3-H18=170.12          
C5-C6-N2-C1=181.16            C5-C6-N2-C3=359.77            C7-C6-N2-C1=  3.97            C7-C6-N2-C3=182.58            
N2-C6-C5-N13=181.41           C7-C6-C5-N13=358.95           O8-C7-C6-N2=358.31            O8-C7-C6-C5=181.04            
N9-C7-C6-N2=178.20            N9-C7-C6-C5=  0.93            C10-N9-C7-C6=179.95           C10-N9-C7-O8=359.84           
C11-N9-C7-C6=359.43           C11-N9-C7-O8=179.32           H19-C10-N9-C7=359.55          H19-C10-N9-C11=180.04         
H20-C10-N9-C7=119.53          H20-C10-N9-C11=300.02         H21-C10-N9-C7=239.54          H21-C10-N9-C11= 60.04         
           -------------------------------------------------
          |                Final Singlepoint                |
           -------------------------------------------------

          ...................................................
          :                      SETUP                      :
          :.................................................:
          :  # basis functions                  67          :
          :  # atomic orbitals                  67          :
          :  # shells                           39          :
          :  # electrons                        74          :
          :  max. iterations                   250          :
          :  Hamiltonian                  GFN2-xTB          :
          :  restarted?                      false          :
          :  GBSA solvation                  false          :
          :  PC potential                    false          :
          :  electronic temp.         2500.0000000     K    :
          :  accuracy                    1.0000000          :
          :  -> integral cutoff          0.2500000E+02      :
          :  -> integral neglect         0.1000000E-07      :
          :  -> SCF convergence          0.1000000E-05 Eh   :
          :  -> wf. convergence          0.1000000E-03 e    :
          :  Broyden damping             0.4000000          :
          ...................................................

 iter      E             dE          RMSdq      gap      omega  full diag
   1    -42.6349097 -0.426349E+02  0.564E-05    2.22       0.0  T
   2    -42.6349097 -0.160227E-10  0.336E-05    2.22     595.5  T
   3    -42.6349097 -0.600409E-11  0.212E-05    2.22     941.2  T

   *** convergence criteria satisfied after 3 iterations ***

         #    Occupation            Energy/Eh            Energy/eV
      -------------------------------------------------------------
         1        2.0000           -0.9141282             -24.8747
       ...           ...                  ...                  ...
        31        2.0000           -0.6187601             -16.8373
        32        2.0000           -0.6093887             -16.5823
        33        2.0000           -0.6007777             -16.3480
        34        1.9999           -0.5852016             -15.9241
        35        1.9998           -0.5828767             -15.8609
        36        1.9998           -0.5795366             -15.7700
        37        1.9886           -0.5488126             -14.9340 (HOMO)
        38        0.0118           -0.4673043             -12.7160 (LUMO)
        39        0.0001           -0.4320210             -11.7559
        40        0.0000           -0.4090051             -11.1296
        41        0.0000           -0.3853450             -10.4858
        42                         -0.2943984              -8.0110
       ...                                ...                  ...
        67                          0.5467612              14.8781
      -------------------------------------------------------------
                  HL-Gap            0.0815083 Eh            2.2180 eV
             Fermi-level           -0.5079255 Eh          -13.8214 eV

 SCC (total)                   0 d,  0 h,  0 min,  0.023 sec
 SCC setup                      ...        0 min,  0.000 sec (  0.844%)
 Dispersion                     ...        0 min,  0.000 sec (  0.861%)
 classical contributions        ...        0 min,  0.000 sec (  0.310%)
 integral evaluation            ...        0 min,  0.005 sec ( 21.251%)
 iterations                     ...        0 min,  0.005 sec ( 20.552%)
 molecular gradient             ...        0 min,  0.013 sec ( 55.501%)
 printout                       ...        0 min,  0.000 sec (  0.621%)

         :::::::::::::::::::::::::::::::::::::::::::::::::::::
         ::                     SUMMARY                     ::
         :::::::::::::::::::::::::::::::::::::::::::::::::::::
         :: total energy             -42.111139452572 Eh    ::
         :: gradient norm              0.003555146240 Eh/a0 ::
         :: HOMO-LUMO gap              2.217952727368 eV    ::
         ::.................................................::
         :: SCC energy               -42.634909653680 Eh    ::
         :: -> isotropic ES            0.126383767634 Eh    ::
         :: -> anisotropic ES         -0.004167040253 Eh    ::
         :: -> anisotropic XC          0.017694433817 Eh    ::
         :: -> dispersion             -0.021599359473 Eh    ::
         :: repulsion energy           0.523694506382 Eh    ::
         :: add. restraining           0.000038043564 Eh    ::
         :: total charge               1.000000000000 e     ::
         :::::::::::::::::::::::::::::::::::::::::::::::::::::

           -------------------------------------------------
          |                Property Printout                |
           -------------------------------------------------

    * Orbital Energies and Occupations

         #    Occupation            Energy/Eh            Energy/eV
      -------------------------------------------------------------
         1        2.0000           -0.9141282             -24.8747
       ...           ...                  ...                  ...
        25        2.0000           -0.6717141             -18.2783
        26        2.0000           -0.6634823             -18.0543
        27        2.0000           -0.6463306             -17.5876
        28        2.0000           -0.6335046             -17.2385
        29        2.0000           -0.6255237             -17.0214
        30        2.0000           -0.6240664             -16.9817
        31        2.0000           -0.6187601             -16.8373
        32        2.0000           -0.6093887             -16.5823
        33        2.0000           -0.6007777             -16.3480
        34        1.9999           -0.5852016             -15.9241
        35        1.9998           -0.5828767             -15.8609
        36        1.9998           -0.5795366             -15.7700
        37        1.9886           -0.5488126             -14.9340 (HOMO)
        38        0.0118           -0.4673043             -12.7160 (LUMO)
        39        0.0001           -0.4320210             -11.7559
        40        0.0000           -0.4090051             -11.1296
        41        0.0000           -0.3853450             -10.4858
        42                         -0.2943984              -8.0110
        43                         -0.1998588              -5.4384
        44                         -0.1659782              -4.5165
        45                         -0.1403377              -3.8188
        46                         -0.0730105              -1.9867
        47                         -0.0529678              -1.4413
        48                         -0.0157940              -0.4298
       ...                                ...                  ...
        67                          0.5467612              14.8781
      -------------------------------------------------------------
                  HL-Gap            0.0815083 Eh            2.2180 eV
             Fermi-level           -0.5079255 Eh          -13.8214 eV

     #   Z          covCN         q      C6AA      α(0)
     1   6 C        3.692    -0.085    22.317     6.760
     2   7 N        2.753     0.020    20.900     6.790
     3   6 C        2.866     0.122    25.323     8.249
     4   7 N        1.995    -0.221    26.616     7.651
     5   6 C        2.742     0.092    25.936     8.338
     6   6 C        2.991     0.012    27.749     8.641
     7   6 C        2.787     0.280    22.267     7.729
     8   8 O        0.858    -0.347    20.654     6.093
     9   7 N        2.744    -0.062    22.438     7.035
    10   6 C        3.704    -0.070    22.007     6.707
    11   6 C        2.827     0.306    21.817     7.654
    12   8 O        1.707    -0.181    17.038     5.573
    13   7 N        1.833    -0.235    27.004     7.701
    14   6 C        3.634     0.003    20.914     6.582
    15   1 H        0.924     0.094     1.842     2.122
    16   1 H        0.925     0.094     1.840     2.121
    17   1 H        0.925     0.126     1.564     1.956
    18   1 H        0.925     0.147     1.415     1.860
    19   1 H        0.925     0.123     1.591     1.972
    20   1 H        0.925     0.100     1.783     2.088
    21   1 H        0.925     0.101     1.780     2.087
    22   1 H        0.924     0.094     1.841     2.122
    23   1 H        0.924     0.095     1.830     2.115
    24   1 H        0.925     0.117     1.641     2.004
    25   1 H        1.323     0.278     0.773     1.372

 Mol. C6AA /au·bohr⁶  :       6543.820831
 Mol. C8AA /au·bohr⁸  :     150218.402976
 Mol. α(0) /au        :        123.323114


Wiberg/Mayer (AO) data.
largest (>0.10) Wiberg bond orders for each atom

 ---------------------------------------------------------------------------
     #   Z sym  total        # sym  WBO       # sym  WBO       # sym  WBO
 ---------------------------------------------------------------------------
     1   6 C    3.923 --     2 N    0.979    16 H    0.970    15 H    0.966
                            17 H    0.960
     2   7 N    3.625 --     3 C    1.262     6 C    1.118     1 C    0.979
                             4 N    0.146
     3   6 C    3.955 --     4 N    1.685     2 N    1.262    18 H    0.906
     4   7 N    3.132 --     3 C    1.685    25 H    0.659     5 C    0.425
                             2 N    0.146
     5   6 C    3.902 --     6 C    1.536    13 N    1.397     4 N    0.425
                            25 H    0.236
     6   6 C    3.962 --     5 C    1.536     2 N    1.118     7 C    1.004
     7   6 C    3.962 --     8 O    1.706     9 N    1.107     6 C    1.004
     8   8 O    2.123 --     7 C    1.706     9 N    0.152
     9   7 N    3.607 --    11 C    1.190     7 C    1.107    10 C    0.965
                             8 O    0.152
    10   6 C    3.912 --    19 H    0.966    20 H    0.965    21 H    0.965
                             9 N    0.965
    11   6 C    3.948 --    13 N    1.337    12 O    1.221     9 N    1.190
    12   8 O    2.377 --    11 C    1.221    14 C    0.921
    13   7 N    3.144 --     5 C    1.397    11 C    1.337
    14   6 C    3.872 --    22 H    0.972    24 H    0.972    23 H    0.971
                            12 O    0.921
    15   1 H    0.989 --     1 C    0.966
    16   1 H    0.990 --     1 C    0.970
    17   1 H    0.984 --     1 C    0.960
    18   1 H    0.975 --     3 C    0.906
    19   1 H    0.985 --    10 C    0.966
    20   1 H    0.989 --    10 C    0.965
    21   1 H    0.989 --    10 C    0.965
    22   1 H    0.990 --    14 C    0.972
    23   1 H    0.990 --    14 C    0.971
    24   1 H    0.986 --    14 C    0.972
    25   1 H    0.923 --     4 N    0.659     5 C    0.236
 ---------------------------------------------------------------------------

Topologies differ in total number of bonds
Writing topology from bond orders to xtbtopo.mol

molecular dipole:
                 x           y           z       tot (Debye)
 q only:        0.554      -1.032       0.056
   full:        0.654      -0.994       0.108       3.037
molecular quadrupole (traceless):
                xx          xy          yy          xz          yz          zz
 q only:       33.069       8.282     -10.328       0.274      -0.431     -22.740
  q+dip:       33.046       8.929     -15.322       0.532      -0.740     -17.724
   full:       32.257       8.822     -16.015       0.589      -0.733     -16.242

           -------------------------------------------------
          |                Geometry Summary                 |
           -------------------------------------------------

      molecular mass/u    :      195.1988581
   center of mass at/Å    :        0.2337739      -0.1380869      -0.0023580
  moments of inertia/u·Å² :        0.4024675E+03   0.9531668E+03   0.1345918E+04
rotational constants/cm⁻¹ :        0.4188570E-01   0.1768592E-01   0.1252501E-01

 * 24 selected distances

     #   Z          #   Z                                           value/Å
     1   6 C        2   7 N                                       1.4447211
     2   7 N        3   6 C                                       1.3451136
     3   6 C        4   7 N                                       1.2672891
     2   7 N        6   6 C                                       1.3767758
     5   6 C        6   6 C                                       1.3408675
     7   6 C        8   8 O                                       1.2026949
     7   6 C        9   7 N                                       1.3956208
     9   7 N       10   6 C                                       1.4556244 (max)
     9   7 N       11   6 C                                       1.3678963
    11   6 C       12   8 O                                       1.3020298
     5   6 C       13   7 N                                       1.3072107
    11   6 C       13   7 N                                       1.3165900
    12   8 O       14   6 C                                       1.4329456
     1   6 C       15   1 H                                       1.0910215
     1   6 C       16   1 H                                       1.0890918
     1   6 C       17   1 H                                       1.0877427
     3   6 C       18   1 H                                       1.0826716
    10   6 C       19   1 H                                       1.0883370
    10   6 C       20   1 H                                       1.0889394
    10   6 C       21   1 H                                       1.0889024
    14   6 C       22   1 H                                       1.0904228
    14   6 C       23   1 H                                       1.0902941
    14   6 C       24   1 H                                       1.0861970
     4   7 N       25   1 H                                       1.0449258 (min)

 * 5 distinct bonds (by element types)

   Z      Z             #   av. dist./Å        max./Å        min./Å
   1 H    6 C          10     1.0883620     1.0910215     1.0826716
   6 C    6 C           1     1.3408675     1.3408675     1.3408675
   1 H    7 N           1     1.0449258     1.0449258     1.0449258
   6 C    7 N           9     1.3640935     1.4556244     1.2672891
   6 C    8 O           3     1.3125568     1.4329456     1.2026949


optimized geometry written to: xtbopt.xyz


           -------------------------------------------------
          | TOTAL ENERGY              -42.111139452572 Eh   |
          | GRADIENT NORM               0.003555146240 Eh/α |
          | HOMO-LUMO GAP               2.217952727368 eV   |
           -------------------------------------------------

------------------------------------------------------------------------
 * finished run on 2024/06/05 at 19:57:57.173     
------------------------------------------------------------------------
 total:
 * wall-time:     0 d,  0 h,  0 min,  1.617 sec
 *  cpu-time:     0 d,  0 h,  0 min,  1.599 sec
 * ratio c/w:     0.989 speedup
 SCF:
 * wall-time:     0 d,  0 h,  0 min,  0.038 sec
 *  cpu-time:     0 d,  0 h,  0 min,  0.038 sec
 * ratio c/w:     1.000 speedup
 ANC optimizer:
 * wall-time:     0 d,  0 h,  0 min,  1.551 sec
 *  cpu-time:     0 d,  0 h,  0 min,  1.548 sec
 * ratio c/w:     0.998 speedup

