25
 energy: -42.111177496139 gnorm: 0.014123262891 xtb: 6.6.1 (8d0f1dd)
C            3.35119564389382        1.51334818459588        0.02586122511740
N            2.65246001898190        0.24922143000532       -0.00529479544184
C            3.26869017995689       -0.94604568030265       -0.03574579705072
N            2.68175005440283       -2.06919073859508       -0.04398772738630
C            0.80918687942286       -1.17424540165104        0.00976633233002
C            1.28655784228210        0.07870769987852        0.02204685600799
C            0.24879288625101        1.12986904835143        0.00691140123412
O            0.48493701766376        2.30910827318489       -0.00336603702345
N           -1.05083448298307        0.62123239032431        0.00309581435425
C           -2.13999873769243        1.58682810081075       -0.01061788855618
C           -1.36241170585902       -0.71070415067503        0.00094826179312
O           -2.64350876675262       -0.94323701246265        0.00079308706747
N           -0.41707547466631       -1.62707444543113        0.00466184329631
C           -3.23077120628512       -2.25026006361545       -0.01129596178295
H            3.83785468196091        1.65415884974659        0.99212364186376
H            4.10294214295204        1.54293996805097       -0.76161719283717
H            2.63640581359190        2.31878273487436       -0.12754900115861
H            4.34925360744826       -0.97197524175441       -0.09809895425962
H           -1.70485060557279        2.58438159306374       -0.00740107571622
H           -2.74711052363639        1.44874390761569       -0.90400292713611
H           -2.76674869587890        1.45094855255895        0.86939879094781
H           -2.89268797332071       -2.82734721981192        0.84991938284982
H           -2.97158920629589       -2.78015268336882       -0.92823620874608
H           -4.30121270624155       -2.07312205048032        0.03970332555214
H            1.67920483047689       -2.29667750331230        0.14315522258093
25
 energy: -42.112518834394 gnorm: 0.015057770675 xtb: 6.6.1 (8d0f1dd)
C            3.35439563981494        1.50557557424517        0.02559627516889
N            2.64532281804562        0.24681499330572       -0.00434467828827
C            3.24365319206946       -0.95737612309688       -0.03699093382731
N            2.63728611604589       -2.07259302698653       -0.04564250161583
C            0.79919372428480       -1.16328537608890        0.01053072806812
C            1.27916569129580        0.08778065300284        0.02289175820873
C            0.24521841147031        1.14178226185844        0.00782921652419
O            0.48334962478245        2.32050380466549       -0.00183808121627
N           -1.05452045941474        0.63388496284596        0.00306797552615
C           -2.14491383158138        1.59698811604196       -0.01046385731798
C           -1.36444788200200       -0.69763003852730        0.00031394792251
O           -2.64075183809290       -0.93791728305599       -0.00153408402603
N           -0.42388809477927       -1.61582359791279        0.00446645395253
C           -3.18873755060117       -2.25949256903615       -0.01115368146764
H            3.84287189199411        1.64421366341598        0.99123789037963
H            4.10517620839483        1.53098547122603       -0.76297531988473
H            2.64474863570246        2.31635937628441       -0.12690837053873
H            4.32432608065270       -0.99829767358781       -0.10118894294599
H           -1.71073396542809        2.59477159524574       -0.00692637166468
H           -2.75137371598278        1.45696291155719       -0.90396524187647
H           -2.77093107263833        1.45860089867209        0.86965169195190
H           -2.84600558694231       -2.83033195222060        0.85204199229617
H           -2.92224298490010       -2.78303666447288       -0.92946412555403
H           -4.26454794073741       -2.10644935628642        0.03760892327680
H            1.63881840264747       -2.29475207949417        0.14933095484824
25
 energy: -42.115771390432 gnorm: 0.032277253141 xtb: 6.6.1 (8d0f1dd)
C            3.36248441713605        1.48942989700833        0.02475684779192
N            2.63132404358201        0.24334694949827       -0.00075040058544
C            3.17995974769441       -0.98252321306974       -0.04085330293125
N            2.51204918446155       -2.07124007144627       -0.05417293389431
C            0.78371455692240       -1.13951543042385        0.00933853743294
C            1.26432228520659        0.11181584765562        0.02548145801564
C            0.23995632215421        1.17124744413651        0.01105259433074
O            0.48059101079903        2.34916879386656        0.00444957400080
N           -1.05983404040395        0.66304830593145        0.00322706106023
C           -2.15442617944432        1.61934036892389       -0.00974870429213
C           -1.36644068088187       -0.66688767217320       -0.00226063285674
O           -2.63469238026441       -0.92512824819752       -0.00827670150081
N           -0.43712923331272       -1.59357084346742        0.00064191151714
C           -3.09025873510535       -2.27966789356842       -0.01220458918604
H            3.85529383348678        1.62317479744380        0.98868291191883
H            4.10975030526878        1.50516544316887       -0.76730750353883
H            2.66161730790114        2.30992244569601       -0.12528886830403
H            4.25969448350740       -1.06860391918441       -0.11362768834776
H           -1.72391749679629        2.61831053331807       -0.00495151397393
H           -2.75938907239951        1.47553226836238       -0.90363401011406
H           -2.77939277150028        1.47504742581124        0.87015421562352
H           -2.72798718659892       -2.83088787396220        0.85485388966537
H           -2.79945326599146       -2.78837768829162       -0.93129922716782
H           -4.18039836655886       -2.19365442092705        0.03190671813687
H            1.53299342523796       -2.29625470450870        0.18100197509903
25
 energy: -42.122130787823 gnorm: 0.076258895501 xtb: 6.6.1 (8d0f1dd)
C            3.37472626106452        1.47034121856061        0.02411343360947
N            2.61373031483912        0.24229929919600        0.00528882069091
C            3.08529482085945       -1.01371657404339       -0.04762604044096
N            2.31308130626151       -2.05636387939128       -0.07379854981651
C            0.77377478417241       -1.10898391875069        0.00146501461002
C            1.24595012391856        0.14860975390758        0.02799446093377
C            0.23514836285182        1.21301027972214        0.01505856069012
O            0.47497711278846        2.39072308845907        0.01438246127823
N           -1.06327775979434        0.70042266058047        0.00276474564505
C           -2.16567236911428        1.64540164151709       -0.00832949961748
C           -1.36198690528131       -0.62737374157615       -0.00799755306306
O           -2.62054852793605       -0.91023566857676       -0.01850480641487
N           -0.44769447772533       -1.56783151533976       -0.01049543172823
C           -2.95163937845414       -2.30554629886438       -0.01369701096180
H            3.87335218713901        1.59692010700129        0.98567188536073
H            4.11725623376407        1.47257819902840       -0.77250152965214
H            2.68512752222454        2.30352608722526       -0.12254288024681
H            4.16274822380779       -1.17158542899974       -0.13421647471052
H           -1.74141601912674        2.64657011544335       -0.00169250570121
H           -2.76912417456652        1.49668442293729       -0.90241291506483
H           -2.78881209358321        1.49264821606581        0.87149282402864
H           -2.56769333191960       -2.83024908583813        0.85924031403402
H           -2.63374005485709       -2.79374239812854       -0.93478652313023
H           -4.05961561304724       -2.30762147496254        0.02494408816663
H            1.37648496581499       -2.30824656357244        0.24735672940093
25
 energy: -42.132293755233 gnorm: 0.118653408124 xtb: 6.6.1 (8d0f1dd)
C            3.38269506615281        1.45620357843110        0.02216765393140
N            2.59881211013319        0.24263113117275        0.00724221891806
C            3.00979509802322       -1.03379859254151       -0.05256048531735
N            2.15014882729179       -2.03387649749394       -0.08660974274633
C            0.77346992193770       -1.08899565114645       -0.02024813787266
C            1.23223162577797        0.17758898966983        0.02352145219980
C            0.23173336640055        1.24462224008884        0.01696580367665
O            0.46938293975865        2.42286840535385        0.02512034024757
N           -1.06450918171926        0.72639013690167        0.00119077756565
C           -2.17355575627111        1.66173932141341       -0.00446816475345
C           -1.35373784446624       -0.60078998544498       -0.01742326874613
O           -2.60345598602689       -0.90377697545567       -0.02677165472979
N           -0.44919576734048       -1.54933045687109       -0.03138735842262
C           -2.84498892805797       -2.32374896255437       -0.01522171276080
H            3.88493692717377        1.57643021043738        0.98253079962647
H            4.12263949086951        1.44871489976928       -0.77685768375977
H            2.70212610815319        2.29941524279717       -0.12173011066265
H            4.08292251331352       -1.24757921875365       -0.15121760861997
H           -1.75414971897603        2.66465482259735        0.00488939694462
H           -2.77665569906353        1.51057901904297       -0.89829557338794
H           -2.79366146692716        1.50038173083146        0.87602743719202
H           -2.45279885193378       -2.83032220845893        0.86289520790002
H           -2.51470214635741       -2.79472243489855       -0.94005142031171
H           -3.96157759562180       -2.37794330955266        0.02063787784254
H            1.26252646187617       -2.32909689373470        0.33082557394624
25
 energy: -42.146002013172 gnorm: 0.137624453634 xtb: 6.6.1 (8d0f1dd)
C            3.38617717343361        1.44611507279327        0.01789319055793
N            2.58691810956542        0.24346626887245        0.00396018840976
C            2.95595240411421       -1.04240628739792       -0.04832531733716
N            2.02115767420548       -2.00088311537561       -0.09203039278620
C            0.78188472550823       -1.08070148582317       -0.05695973020957
C            1.22321209492489        0.19765530914043        0.00799485714198
C            0.23021449352681        1.26499605507750        0.01436520760492
O            0.46541887239913        2.44418802877457        0.03539563053592
N           -1.06311359620656        0.74107965335993       -0.00179343050557
C           -2.17739632553987        1.66916166513260        0.00257813685249
C           -1.34212874094533       -0.58675620678725       -0.02929080347731
O           -2.58493608269877       -0.90457327154868       -0.03128873940020
N           -0.44275086359790       -1.53818144455405       -0.06002437465561
C           -2.77138140989878       -2.33416957836960       -0.01577641281945
H            3.88921819106446        1.56051776315429        0.97857218307935
H            4.12634722523947        1.43231723402944       -0.78081724980322
H            2.71235905600634        2.29651460376984       -0.12449254965065
H            4.02333043427526       -1.29634577834460       -0.15195658284691
H           -1.76119901808205        2.67327412157575        0.01522149294114
H           -2.78241960164112        1.51890743850695       -0.88995424829150
H           -2.79296875740653        1.50007681814794        0.88485137123041
H           -2.38217726695233       -2.83160128399786        0.86605346038255
H           -2.44123693535022       -2.79223364782208       -0.94531204512839
H           -3.89093802412738       -2.41112192096403        0.01948234028757
H            1.19088768228395       -2.35105746974959        0.41282543578758
25
 energy: -42.099360711727 gnorm: 0.504784770922 xtb: 6.6.1 (8d0f1dd)
C            3.38074953988483        1.44117898254199        0.01452677633944
N            2.57991643300787        0.24810034448951        0.00300581865739
C            2.91143455365346       -1.00315901786121       -0.03049057287304
N            1.79163186198152       -1.82842004636413       -0.16920885966285
C            0.87425421744841       -1.13028882979189       -0.15536740561348
C            1.23016716562711        0.20766572611069       -0.00999924484576
C            0.23811277975140        1.26199856445828        0.02136157759802
O            0.46293095951761        2.44672481012162        0.04736170571861
N           -1.05180005977742        0.72774882313264        0.00108800438303
C           -2.16994289492838        1.65611280529902        0.00651501692767
C           -1.29987635577907       -0.60862759585252       -0.03402997142485
O           -2.53674394051780       -0.94945930219229       -0.02648300085352
N           -0.38418889923728       -1.54718446938280       -0.10517953040493
C           -2.72810344769589       -2.32816759452819       -0.01319153027716
H            3.88665978916129        1.55125286243728        0.97517006094608
H            4.12362467395255        1.43055511162292       -0.78085512261122
H            2.70892493212640        2.29430605440348       -0.12267130287533
H            3.95672322935707       -1.30108190495056       -0.14857234744532
H           -1.75449792795452        2.66172629917211        0.01887456167495
H           -2.77613704585006        1.51184129577226       -0.88599899730672
H           -2.78676257080795        1.49359560730145        0.88802258190393
H           -2.40557681508263       -2.82948751740415        0.87538941731474
H           -2.45032999774224       -2.77128921174823       -0.95282604252170
H           -3.82529218967575       -2.35183645733025        0.02085259925723
H            1.18455352367989       -2.46556679785650        0.59387742589465
25
 energy: -42.171423888460 gnorm: 0.108728916673 xtb: 6.6.1 (8d0f1dd)
C            3.37917450518537        1.43833069925955        0.01433759793592
N            2.57686859759230        0.23996201543946       -0.00325841804796
C            2.93780082857292       -1.03145488746648       -0.03704901839807
N            1.93558381665437       -1.93164586200934       -0.12071829314453
C            0.80826532597664       -1.06925253412853       -0.14867597246704
C            1.21539220472901        0.23061650793551       -0.01577492677706
C            0.23099079029619        1.27801466204979        0.01880205138794
O            0.45673598302589        2.46012500044320        0.04954930868461
N           -1.05774022824955        0.73525369900198        0.00111973023378
C           -2.17483570726661        1.65926303582927        0.00848564053712
C           -1.31882755179141       -0.59761080440365       -0.03719533161312
O           -2.55691602511095       -0.94062362205031       -0.02159258516203
N           -0.41694679559554       -1.53384705406588       -0.10690524646000
C           -2.76239537196277       -2.33498078402389       -0.01570641107454
H            3.88574423111857        1.54982223971146        0.97435991653076
H            4.12230518171188        1.42934564417980       -0.78099245535978
H            2.70964169883454        2.29273983095329       -0.12265808987978
H            3.97574183142918       -1.29783364683969       -0.15028219678862
H           -1.75806185722604        2.66364865364284        0.02126870988811
H           -2.77910986262150        1.51218101588745       -0.88450047143483
H           -2.78933019037234        1.49255591276496        0.89085575231108
H           -2.39462685452634       -2.82943510438475        0.87136400605536
H           -2.44352372795471       -2.77771364165413       -0.95103457063528
H           -3.84793153093365       -2.36459129418164        0.02145053392121
H            1.22643222258496       -2.45463114028975        0.55592235765660
25
 energy: -42.189273065288 gnorm: 0.088198926543 xtb: 6.6.1 (8d0f1dd)
C            3.38674019178058        1.42636532365004        0.00608742905571
N            2.59994915870992        0.22024225596379       -0.00654368117909
C            3.00878136093030       -1.02324943141654        0.01354328247808
N            1.99180767347218       -1.89195800208180       -0.10474301223160
C            0.83703418430476       -1.09338695224380       -0.13704632826861
C            1.22634095083832        0.22429826887381       -0.00552169043388
C            0.22631919647691        1.27670219984033        0.01652178749324
O            0.44891502678583        2.46299547083709        0.03547488894355
N           -1.07981534595067        0.74586652613191        0.00353589748220
C           -2.19074262858595        1.68194131661213        0.00859900354324
C           -1.35344006262713       -0.58789000822087       -0.02589283757229
O           -2.60751226344390       -0.94302046571575       -0.01286370979890
N           -0.42954346364125       -1.51850292373244       -0.08060210410042
C           -2.84451756597047       -2.33283418787543       -0.01664789103517
H            3.89129149838156        1.54670620455764        0.96688905755736
H            4.13334973231870        1.41910450504792       -0.78512923962452
H            2.71726745007285        2.27748891888378       -0.13439955399916
H            4.04373196986387       -1.28091827335658       -0.10315408144547
H           -1.77562336275182        2.68833622110936        0.02043371563220
H           -2.79713147202378        1.53501806076620       -0.88329238445036
H           -2.80669015499294        1.51761622127465        0.89099672640080
H           -2.40211016026029       -2.80876229728390        0.85395919374981
H           -2.46251299626196       -2.78260090178774       -0.92986535638178
H           -3.93295862536922       -2.43430360195033        0.02344668863463
H            1.33150122204400       -2.50701590628292        0.41738581745028
25
 energy: -42.205685203522 gnorm: 0.077182596455 xtb: 6.6.1 (8d0f1dd)
C            3.39688001290571        1.42146663319408       -0.00580304379304
N            2.60219952915163        0.22126642486033       -0.03433695053353
C            2.99971971766025       -1.05285594288860        0.04534096167944
N            1.93092216099996       -1.89067791224398       -0.02942870881941
C            0.85591372696032       -1.05253584702273       -0.15943451932130
C            1.21915798113920        0.27795861727554       -0.06552860422225
C            0.21882915446505        1.32760563966457       -0.01369284319284
O            0.41563945394574        2.51897707657152        0.04449817184097
N           -1.08584993296964        0.77350872661020       -0.00875554509281
C           -2.20854680541965        1.69188633985829        0.02716796488724
C           -1.35363914606883       -0.55976365854171       -0.05353477720801
O           -2.61726659668546       -0.92704279046523       -0.00595019153397
N           -0.42139111078867       -1.48882428045858       -0.10712753318342
C           -2.85169595540897       -2.33695033630836       -0.01786323730082
H            3.89755905617273        1.52958888637953        0.95841766481379
H            4.14362791922193        1.41210243919096       -0.79571734837032
H            2.73157656484160        2.27612794319532       -0.14073294716617
H            4.03261800750837       -1.35520822864372       -0.04893020439120
H           -1.80258121390865        2.70129682955469        0.04559239371811
H           -2.81982762768157        1.54191032793555       -0.86109388664304
H           -2.81163651572078        1.50493185019574        0.91589649473208
H           -2.34145222278170       -2.80689317549380        0.83738409575315
H           -2.41642025158267       -2.78988197821927       -0.91913820214139
H           -3.93989810766771       -2.49755719477733        0.02772279720692
H            1.38599371581220       -2.62219784782248        0.39621961618166
25
 energy: -42.213640434706 gnorm: 0.136861115668 xtb: 6.6.1 (8d0f1dd)
C            3.39825009085419        1.43053243735552       -0.00004991640974
N            2.59806066670273        0.23509406726794       -0.03797765193315
C            3.02489551379621       -1.03044787737280        0.03609649907166
N            1.93476365167472       -1.82657852361508       -0.04869609619396
C            0.86948728626026       -1.04885883332073       -0.08861430128531
C            1.21398690557883        0.29878391625154       -0.10060275964613
C            0.21588874695908        1.33960641926651       -0.03428118875723
O            0.39038961949423        2.52974099506263        0.03159699639636
N           -1.08954278867957        0.76976654193879       -0.01806628236029
C           -2.21303474874421        1.69122514515510        0.02568904315495
C           -1.35413926789408       -0.56508914670094       -0.05623213519992
O           -2.62746955669416       -0.92707823886323        0.00201944560450
N           -0.41778140379238       -1.49169376778586       -0.06296094337496
C           -2.92214320040617       -2.32956135557328       -0.02089495395148
H            3.91029274844944        1.52460479713627        0.95946486533134
H            4.14107072499001        1.41541420165088       -0.79585244296708
H            2.73498355652352        2.28262053146394       -0.13125880738280
H            4.04943668082626       -1.33980856907428       -0.00831953974773
H           -1.81315175609590        2.70300845812552        0.04510394341931
H           -2.83055916458147        1.54737006288337       -0.85966920234752
H           -2.81650531397820        1.50964732056905        0.91432403771864
H           -2.39223431836227       -2.79739346070123        0.82562322380345
H           -2.46717198040360       -2.79004447350456       -0.90982869975486
H           -3.97318352539512       -2.47047833628174        0.02401439439955
H            1.59584234701805       -2.84214376973279        0.34054409031225
25
 energy: -42.225680430473 gnorm: 0.073927825290 xtb: 6.6.1 (8d0f1dd)
C            3.40646271010865        1.43693573925495       -0.01101190096354
N            2.59222938375728        0.24837103058228       -0.04723979272451
C            2.99638447495682       -1.02333692348301        0.04312461730883
N            1.92005459747039       -1.83335293445710        0.00291588112371
C            0.83725410698646       -1.04661241009323       -0.11075773455988
C            1.21375835743297        0.28574268864846       -0.12659329464690
C            0.21987644567737        1.33090326116068       -0.04750843430617
O            0.39591461705412        2.51767123950647        0.02915052941734
N           -1.08178497635928        0.76228402542293       -0.02630083964665
C           -2.21009569207331        1.68165105939792        0.03804215397702
C           -1.34559177161955       -0.57141363100855       -0.06321612722417
O           -2.61279592439096       -0.91914762634695       -0.00170469423690
N           -0.42692229744936       -1.50872829080431       -0.09709578362515
C           -2.89261061785257       -2.32929615842219       -0.01954229510684
H            3.91787800144898        1.52100515544053        0.94885803869036
H            4.15170683011050        1.41681267501746       -0.80573527666665
H            2.74870146401127        2.29392375053007       -0.14235803596501
H            4.02215630372960       -1.34868612626000        0.05189934916171
H           -1.82008001009093        2.69748707440343        0.06289720301056
H           -2.84229325215585        1.54850995806562       -0.83914836939770
H           -2.80471235406686        1.49281705937051        0.93126914892874
H           -2.38934073363008       -2.79992214855174        0.83147994165915
H           -2.46760739498470       -2.78122939810871       -0.91850750013581
H           -3.94789724602235       -2.45913244694161        0.02918003184275
H            1.57978649205180       -2.79501808072340        0.31907480198555
25
 energy: -42.233155957739 gnorm: 0.033325324334 xtb: 6.6.1 (8d0f1dd)
C            3.41414748121700        1.44082216774547       -0.01691498286563
N            2.58881199232206        0.25812961030649       -0.04324601102712
C            2.98135213807593       -1.01274642550399        0.04374615023032
N            1.91721025497318       -1.82857482686314        0.02317202111681
C            0.81059732504723       -1.04600040229699       -0.07386271204852
C            1.21660263292493        0.27345908576713       -0.12972233898831
C            0.22037981235402        1.32171134612487       -0.05938870967119
O            0.39706201256527        2.50645764963915        0.00871413368591
N           -1.08063891955023        0.75465954552634       -0.03661911560746
C           -2.21062280269471        1.67204533596211        0.04063218330657
C           -1.34485600786481       -0.57902213876922       -0.05350427939590
O           -2.60961538559998       -0.91066654005230       -0.00798673416794
N           -0.43414302070235       -1.52271567677218       -0.08043135027378
C           -2.89042754008709       -2.32236443604295       -0.02109541718829
H            3.93498688237044        1.51530290046077        0.93772722637072
H            4.15199790638487        1.41855588645152       -0.81884249965324
H            2.76445459236887        2.30641971846170       -0.13972450352946
H            4.00273929132439       -1.34564630042671        0.10684678720759
H           -1.82396149384552        2.68875425068851        0.06887980756188
H           -2.85425820515248        1.54528558255635       -0.82942611417253
H           -2.79507775913773        1.47741179099017        0.93940816914397
H           -2.40806601265200       -2.79194354780649        0.83620598470291
H           -2.48362501190144       -2.76942065379707       -0.92717412252212
H           -3.95977351619931       -2.45042891963379        0.02605719736918
H            1.65515486755988       -2.78124646111523        0.23772084831549
25
 energy: -42.237258868277 gnorm: 0.047578925346 xtb: 6.6.1 (8d0f1dd)
C            3.41399396223776        1.44510348731494       -0.02570235503175
N            2.58291341092845        0.26624145273080       -0.03943471926962
C            2.98021588526398       -0.99656814118316        0.05407486252706
N            1.92517080981130       -1.80955507426880        0.06893070733578
C            0.79561375683402       -1.05308813861848       -0.05463969471449
C            1.21497610132492        0.26420083742891       -0.12379668495132
C            0.21706092764060        1.31478470803625       -0.06356577710393
O            0.39403923287682        2.50039990876537       -0.00493468833908
N           -1.08401306696101        0.74846420793236       -0.04400686917556
C           -2.21256861676676        1.66492204312071        0.04381827622351
C           -1.34933460522418       -0.58575257592594       -0.04867469144895
O           -2.61400585509233       -0.90376120828445       -0.01472345208424
N           -0.44071265053095       -1.53321011291990       -0.07476817964578
C           -2.90435257048461       -2.31188945379606       -0.02322565330539
H            3.94855448129123        1.51222408388056        0.92185748210188
H            4.14202243372122        1.41961746904323       -0.83691710251175
H            2.77219415230275        2.31843274906272       -0.13799591345675
H            3.99411827755031       -1.32847788754057        0.14509296350351
H           -1.82458885163240        2.68067709316110        0.07549501798936
H           -2.86268845078892        1.54308482153651       -0.82178961562996
H           -2.78840179821787        1.46283708500857        0.94658459827489
H           -2.44031041629088       -2.78514185054366        0.83813932394745
H           -2.51685406745481       -2.75810602575714       -0.93512861455144
H           -3.97706942806080       -2.41681763376262        0.02348721991666
H            1.79445845982256       -2.84038330282072        0.16299517729975
25
 energy: -42.240210995336 gnorm: 0.032121678455 xtb: 6.6.1 (8d0f1dd)
C            3.41186253477237        1.44650320397054       -0.01983770765531
N            2.58988866642162        0.26320577378203       -0.01868329267779
C            2.99990369338048       -0.99359420251945        0.04307328214898
N            1.95267122552928       -1.81558112862165        0.04649905686875
C            0.80642178706887       -1.06242377519705       -0.00649512061444
C            1.22079719339939        0.25666886746407       -0.07134050023327
C            0.21255633442418        1.30451111436749       -0.05203694299744
O            0.39435383260608        2.49369030742576       -0.02991834653398
N           -1.08931963071160        0.74189599209537       -0.04146295100778
C           -2.21589411208920        1.65729114518294        0.03244681658924
C           -1.35453228042163       -0.59470388953212       -0.02884750998701
O           -2.62100452402521       -0.91045745077495       -0.02293566067962
N           -0.43273026895143       -1.53349722896762       -0.02390890637826
C           -2.93320841593078       -2.30317092804789       -0.02761648712757
H            3.96534644934550        1.51774643768510        0.91743236484120
H            4.12093128963364        1.42672090348298       -0.84735866677042
H            2.76832994026529        2.32124708923666       -0.11636974991374
H            4.01235454447004       -1.30743094841763        0.11709657014266
H           -1.82283060522694        2.67098094140050        0.06055383036348
H           -2.86039663110607        1.52896850142463       -0.83492886817918