      -----------------------------------------------------------      
     |                   =====================                   |     
     |                           x T B                           |     
     |                   =====================                   |     
     |                         S. Grimme                         |     
     |          Mulliken Center for Theoretical Chemistry        |     
     |                    University of Bonn                     |     
      -----------------------------------------------------------      

   * xtb version 6.6.1 (8d0f1dd) compiled by 'conda@1efc2f54142f' on 2023-08-01

   xtb is free software: you can redistribute it and/or modify it under
   the terms of the GNU Lesser General Public License as published by
   the Free Software Foundation, either version 3 of the License, or
   (at your option) any later version.
   
   xtb is distributed in the hope that it will be useful,
   but WITHOUT ANY WARRANTY; without even the implied warranty of
   MERCHANTABILITY or FITNESS FOR A PARTICULAR PURPOSE.  See the
   GNU Lesser General Public License for more details.
   
   Cite this work as:
   * C. Bannwarth, E. Caldeweyher, S. Ehlert, A. Hansen, P. Pracht,
     J. Seibert, S. Spicher, S. Grimme, WIREs Comput. Mol. Sci., 2020, 11,
     e01493. DOI: 10.1002/wcms.1493
   
   for GFN2-xTB:
   * C. Bannwarth, S. Ehlert and S. Grimme., J. Chem. Theory Comput., 2019,
     15, 1652-1671. DOI: 10.1021/acs.jctc.8b01176
   for GFN1-xTB:
   * S. Grimme, C. Bannwarth, P. Shushkov, J. Chem. Theory Comput., 2017,
     13, 1989-2009. DOI: 10.1021/acs.jctc.7b00118
   for GFN0-xTB:
   * P. Pracht, E. Caldeweyher, S. Ehlert, S. Grimme, ChemRxiv, 2019, preprint.
     DOI: 10.26434/chemrxiv.8326202.v1
   for GFN-FF:
   * S. Spicher and S. Grimme, Angew. Chem. Int. Ed., 2020, 59, 15665-15673.
     DOI: 10.1002/anie.202004239
   
   for ALPB and GBSA implicit solvation:
   * S. Ehlert, M. Stahn, S. Spicher, S. Grimme, J. Chem. Theory Comput.,
     2021, 17, 4250-4261. DOI: 10.1021/acs.jctc.1c00471
   
   for DFT-D4:
   * E. Caldeweyher, C. Bannwarth and S. Grimme, J. Chem. Phys., 2017,
     147, 034112. DOI: 10.1063/1.4993215
   * E. Caldeweyher, S. Ehlert, A. Hansen, H. Neugebauer, S. Spicher,
     C. Bannwarth and S. Grimme, J. Chem. Phys., 2019, 150, 154122.
     DOI: 10.1063/1.5090222
   * E. Caldeweyher, J.-M. Mewes, S. Ehlert and S. Grimme, Phys. Chem. Chem. Phys.
     2020, 22, 8499-8512. DOI: 10.1039/D0CP00502A
   
   for sTDA-xTB:
   * S. Grimme and C. Bannwarth, J. Chem. Phys., 2016, 145, 054103.
     DOI: 10.1063/1.4959605
   
   in the mass-spec context:
   * V. Asgeirsson, C. Bauer and S. Grimme, Chem. Sci., 2017, 8, 4879.
     DOI: 10.1039/c7sc00601b
   * J. Koopman and S. Grimme, ACS Omega 2019, 4, 12, 15120-15133.
     DOI: 10.1021/acsomega.9b02011
   
   for metadynamics refer to:
   * S. Grimme, J. Chem. Theory Comput., 2019, 155, 2847-2862
     DOI: 10.1021/acs.jctc.9b00143
   
   for SPH calculations refer to:
   * S. Spicher and S. Grimme, J. Chem. Theory Comput., 2021, 17, 1701-1714
     DOI: 10.1021/acs.jctc.0c01306
   
   with help from (in alphabetical order)
   P. Atkinson, C. Bannwarth, F. Bohle, G. Brandenburg, E. Caldeweyher
   M. Checinski, S. Dohm, S. Ehlert, S. Ehrlich, I. Gerasimov, C. Hölzer
   A. Katbashev, J. Koopman, C. Lavigne, S. Lehtola, F. März, M. Müller,
   F. Musil, H. Neugebauer, J. Pisarek, C. Plett, P. Pracht, F. Pultar,
   J. Seibert, P. Shushkov, S. Spicher, M. Stahn, M. Steiner, T. Strunk,
   J. Stückrath, T. Rose, and J. Unsleber
   
 * started run on 2024/06/05 at 19:59:19.315     

           -------------------------------------------------
          |                Calculation Setup                |
           -------------------------------------------------

          program call               : xtb struc.xyz --opt loose --input .xc1 --gfn2
          hostname                   : n-62-31-11
          coordinate file            : struc.xyz
          omp threads                :                     1

   ID    Z sym.   atoms
    1    6 C      1, 3, 5-7, 10, 11, 14
    2    7 N      2, 4, 9, 13
    3    8 O      8, 12
    4    1 H      15-25
constraining bond 13 24 to    4.0600000 Å, actual value:    2.0566599 Å

           -------------------------------------------------
          |                 G F N 2 - x T B                 |
           -------------------------------------------------

        Reference                      10.1021/acs.jctc.8b01176
      * Hamiltonian:
        H0-scaling (s, p, d)           1.850000    2.230000    2.230000
        zeta-weighting                 0.500000
      * Dispersion:
        s8                             2.700000
        a1                             0.520000
        a2                             5.000000
        s9                             5.000000
      * Repulsion:
        kExp                           1.500000    1.000000
        rExp                           1.000000
      * Coulomb:
        alpha                          2.000000
        third order                    shell-resolved
        anisotropic                    true
        a3                             3.000000
        a5                             4.000000
        cn-shift                       1.200000
        cn-exp                         4.000000
        max-rad                        5.000000


          ...................................................
          :                      SETUP                      :
          :.................................................:
          :  # basis functions                  67          :
          :  # atomic orbitals                  67          :
          :  # shells                           39          :
          :  # electrons                        74          :
          :  max. iterations                   250          :
          :  Hamiltonian                  GFN2-xTB          :
          :  restarted?                      false          :
          :  GBSA solvation                  false          :
          :  PC potential                    false          :
          :  electronic temp.         5000.0000000     K    :
          :  accuracy                    1.0000000          :
          :  -> integral cutoff          0.2500000E+02      :
          :  -> integral neglect         0.1000000E-07      :
          :  -> SCF convergence          0.1000000E-05 Eh   :
          :  -> wf. convergence          0.1000000E-03 e    :
          :  Broyden damping             0.4000000          :
          ...................................................

 iter      E             dE          RMSdq      gap      omega  full diag
   1    -42.5894031 -0.425894E+02  0.445E+00    3.52       0.0  T
   2    -42.7683054 -0.178902E+00  0.251E+00    3.36       1.0  T
   3    -42.7759211 -0.761567E-02  0.147E+00    3.35       1.0  T
   4    -42.7728404  0.308066E-02  0.553E-01    3.33       1.0  T
   5    -42.7789548 -0.611444E-02  0.112E-01    3.35       1.0  T
   6    -42.7790473 -0.924914E-04  0.614E-02    3.33       1.0  T
   7    -42.7790721 -0.247928E-04  0.258E-02    3.34       1.0  T
   8    -42.7790772 -0.508996E-05  0.938E-03    3.34       2.1  T
   9    -42.7790779 -0.669422E-06  0.448E-03    3.34       4.5  T
  10    -42.7790780 -0.821510E-07  0.115E-03    3.34      17.4  T
  11    -42.7790780 -0.322663E-08  0.553E-04    3.34      36.2  T
  12    -42.7790780 -0.287051E-08  0.180E-04    3.34     111.1  T

   *** convergence criteria satisfied after 12 iterations ***

         #    Occupation            Energy/Eh            Energy/eV
      -------------------------------------------------------------
         1        2.0000           -0.9185990             -24.9964
       ...           ...                  ...                  ...
        31        1.9996           -0.6230278             -16.9534
        32        1.9995           -0.6194601             -16.8564
        33        1.9979           -0.5974976             -16.2587
        34        1.9932           -0.5789629             -15.7544
        35        1.9817           -0.5631863             -15.3251
        36        1.9779           -0.5602245             -15.2445
        37        1.9748           -0.5581234             -15.1873 (HOMO)
        38        0.0652           -0.4353579             -11.8467 (LUMO)
        39        0.0099           -0.4050467             -11.0219
        40        0.0013           -0.3732218             -10.1559
        41        0.0000           -0.2886859              -7.8555
        42                         -0.2065804              -5.6213
       ...                                ...                  ...
        67                          0.5625656              15.3082
      -------------------------------------------------------------
                  HL-Gap            0.1227656 Eh            3.3406 eV
             Fermi-level           -0.4890455 Eh          -13.3076 eV

 SCC (total)                   0 d,  0 h,  0 min,  0.037 sec
 SCC setup                      ...        0 min,  0.000 sec (  0.886%)
 Dispersion                     ...        0 min,  0.000 sec (  1.020%)
 classical contributions        ...        0 min,  0.000 sec (  0.299%)
 integral evaluation            ...        0 min,  0.005 sec ( 14.690%)
 iterations                     ...        0 min,  0.017 sec ( 45.583%)
 molecular gradient             ...        0 min,  0.014 sec ( 37.077%)
 printout                       ...        0 min,  0.000 sec (  0.412%)

         :::::::::::::::::::::::::::::::::::::::::::::::::::::
         ::                     SUMMARY                     ::
         :::::::::::::::::::::::::::::::::::::::::::::::::::::
         :: total energy             -27.915850841105 Eh    ::
         :: gradient norm             10.706612726036 Eh/a0 ::
         :: HOMO-LUMO gap              3.340621582928 eV    ::
         ::.................................................::
         :: SCC energy               -42.779077977399 Eh    ::
         :: -> isotropic ES            0.141123876439 Eh    ::
         :: -> anisotropic ES         -0.005230418907 Eh    ::
         :: -> anisotropic XC          0.011966818540 Eh    ::
         :: -> dispersion             -0.022657731803 Eh    ::
         :: repulsion energy           0.531105277918 Eh    ::
         :: add. restraining          14.332007699367 Eh    ::
         :: total charge               1.000000000002 e     ::
         :::::::::::::::::::::::::::::::::::::::::::::::::::::

      ----------------------------------------------------------- 
     |                   =====================                   |
     |                        A N C O P T                        |
     |                   =====================                   |
     |               Approximate Normal Coordinate               |
     |                Rational Function Optimizer                |
      ----------------------------------------------------------- 

          ...................................................
          :                      SETUP                      :
          :.................................................:
          :   optimization level             loose          :
          :   max. optcycles                   200          :
          :   ANC micro-cycles                  20          :
          :   degrees of freedom                69          :
          :.................................................:
          :   RF solver                   davidson          :
          :   write xtbopt.log                true          :
          :   linear?                        false          :
          :   energy convergence         0.5000000E-04 Eh   :
          :   grad. convergence          0.4000000E-02 Eh/α :
          :   maxmium RF displ.          1.0000000          :
          :   Hlow (freq-cutoff)         0.1000000E-01      :
          :   Hmax (freq-cutoff)         5.0000000          :
          :   S6 in model hess.         20.0000000          :
          ...................................................

generating ANC from model Hessian ...
Using Lindh-Hessian (1995)
 Shifting diagonal of input Hessian by    3.6988991513953842     
 Lowest  eigenvalues of input Hessian
    0.010000    0.401003    0.000000    0.000000    0.000000    0.000000
    0.000000    0.000000    3.702146    3.703671    3.704732    3.707529
    3.709993    3.712110    3.717514    3.720648    3.723814    3.733862
 Highest eigenvalues
    5.837417    5.890406    5.938998    6.080140    6.186644    8.624325


........................................................................
.............................. CYCLE    1 ..............................
........................................................................

 iter      E             dE          RMSdq      gap      omega  full diag
   1    -42.7790780 -0.427791E+02  0.626E-05    3.34       0.0  T
   2    -42.7790780 -0.124416E-10  0.329E-05    3.34     607.4  T
   3    -42.7790780  0.127898E-12  0.193E-05    3.34    1034.2  T
     SCC iter.                  ...        0 min,  0.005 sec
     gradient                   ...        0 min,  0.014 sec
 * total energy  :   -27.9158508 Eh     change       -0.6650680E-10 Eh
   gradient norm :    10.7066126 Eh/α   predicted     0.0000000E+00 (-100.00%)
   displ. norm   :     0.7937233 α      lambda       -0.8496550E+01
   maximum displ.:     0.7738562 α      in ANC's #59, #61, #64, ...

........................................................................
.............................. CYCLE    2 ..............................
........................................................................

 iter      E             dE          RMSdq      gap      omega  full diag
   1    -42.7021680 -0.427022E+02  0.125E+00    3.07       0.0  T
   2    -42.7105173 -0.834925E-02  0.664E-01    3.25       1.0  T
   3    -42.7115593 -0.104203E-02  0.368E-01    3.21       1.0  T
   4    -42.7121569 -0.597643E-03  0.536E-02    3.23       1.0  T
   5    -42.7121921 -0.351605E-04  0.269E-02    3.23       1.0  T
   6    -42.7121928 -0.737042E-06  0.107E-02    3.23       1.9  T
   7    -42.7121940 -0.118452E-05  0.332E-03    3.23       6.0  T
   8    -42.7121942 -0.189339E-06  0.156E-03    3.23      12.8  T
   9    -42.7121942 -0.107715E-07  0.620E-04    3.23      32.3  T
  10    -42.7121942 -0.200500E-08  0.222E-04    3.23      90.0  T
     SCC iter.                  ...        0 min,  0.014 sec
     gradient                   ...        0 min,  0.014 sec
 * total energy  :   -34.9875555 Eh     change       -0.7071705E+01 Eh
   gradient norm :     7.1023146 Eh/α   predicted    -0.6925639E+01 (  -2.07%)
   displ. norm   :     0.7419646 α      lambda       -0.5248128E+01
   maximum displ.:     0.6904076 α      in ANC's #59, #61, #64, ...

........................................................................
.............................. CYCLE    3 ..............................
........................................................................

 iter      E             dE          RMSdq      gap      omega  full diag
   1    -42.5569409 -0.425569E+02  0.101E+00    2.57       0.0  T
   2    -42.5506832  0.625765E-02  0.104E+00    3.03       1.0  T
   3    -42.5727813 -0.220981E-01  0.370E-01    2.75       1.0  T
   4    -42.5726500  0.131359E-03  0.194E-01    2.91       1.0  T
   5    -42.5731805 -0.530587E-03  0.393E-02    2.82       1.0  T
   6    -42.5732041 -0.235329E-04  0.200E-02    2.83       1.0  T
   7    -42.5732089 -0.482534E-05  0.104E-02    2.83       1.9  T
   8    -42.5732102 -0.125382E-05  0.383E-03    2.83       5.2  T
   9    -42.5732103 -0.112966E-06  0.108E-03    2.83      18.6  T
  10    -42.5732103 -0.138204E-07  0.455E-04    2.83      44.0  T
  11    -42.5732103 -0.281752E-09  0.158E-04    2.83     126.6  T
     SCC iter.                  ...        0 min,  0.015 sec
     gradient                   ...        0 min,  0.014 sec
 * total energy  :   -39.0794525 Eh     change       -0.4091897E+01 Eh
   gradient norm :     4.0717569 Eh/α   predicted    -0.4068643E+01 (  -0.57%)
   displ. norm   :     0.7191875 α      lambda       -0.2832685E+01
   maximum displ.:     0.5201170 α      in ANC's #59, #2, #66, ...

........................................................................
.............................. CYCLE    4 ..............................
........................................................................

 iter      E             dE          RMSdq      gap      omega  full diag
   1    -42.4111318 -0.424111E+02  0.100E+00    1.97       0.0  T
   2    -42.3837939  0.273379E-01  0.114E+00    2.21       1.0  T
   3    -42.4191515 -0.353576E-01  0.633E-01    2.25       1.0  T
   4    -42.4291661 -0.100146E-01  0.245E-01    2.27       1.0  T
   5    -42.4295463 -0.380184E-03  0.571E-02    2.28       1.0  T
   6    -42.4295778 -0.315622E-04  0.291E-02    2.28       1.0  T
   7    -42.4295894 -0.115524E-04  0.141E-02    2.28       1.4  T
   8    -42.4295916 -0.226573E-05  0.729E-03    2.28       2.7  T
   9    -42.4295926 -0.926101E-06  0.223E-03    2.28       9.0  T
  10    -42.4295927 -0.965156E-07  0.892E-04    2.28      22.4  T
  11    -42.4295927 -0.373634E-08  0.391E-04    2.28      51.1  T
     SCC iter.                  ...        0 min,  0.015 sec
     gradient                   ...        0 min,  0.014 sec
 * total energy  :   -41.1522805 Eh     change       -0.2072828E+01 Eh
   gradient norm :     1.8718567 Eh/α   predicted    -0.2148991E+01 (   3.67%)
   displ. norm   :     0.4963492 α      lambda       -0.8790768E+00
   maximum displ.:     0.3562338 α      in ANC's #59, #2, #60, ...

........................................................................
.............................. CYCLE    5 ..............................
........................................................................

 iter      E             dE          RMSdq      gap      omega  full diag
   1    -42.3260197 -0.423260E+02  0.694E-01    1.45       0.0  T
   2    -42.3034902  0.225296E-01  0.864E-01    1.47       1.0  T
   3    -42.3204110 -0.169209E-01  0.577E-01    1.50       1.0  T
   4    -42.3313373 -0.109263E-01  0.220E-01    1.46       1.0  T
   5    -42.3317426 -0.405230E-03  0.680E-02    1.47       1.0  T
   6    -42.3318164 -0.738565E-04  0.435E-02    1.47       1.0  T
   7    -42.3318640 -0.476362E-04  0.178E-02    1.47       1.1  T
   8    -42.3318711 -0.708246E-05  0.550E-03    1.47       3.6  T
   9    -42.3318716 -0.429152E-06  0.175E-03    1.47      11.4  T
  10    -42.3318716 -0.635619E-07  0.822E-04    1.47      24.3  T
  11    -42.3318716 -0.553219E-08  0.334E-04    1.47      59.9  T
     SCC iter.                  ...        0 min,  0.015 sec
     gradient                   ...        0 min,  0.013 sec
 * total energy  :   -41.6807442 Eh     change       -0.5284637E+00 Eh
   gradient norm :     0.4207727 Eh/α   predicted    -0.5478249E+00 (   3.66%)
   displ. norm   :     0.2218790 α      lambda       -0.7006095E-01
   maximum displ.:     0.1872287 α      in ANC's #2, #59, #45, ...

........................................................................
.............................. CYCLE    6 ..............................
........................................................................

 iter      E             dE          RMSdq      gap      omega  full diag
   1    -42.3143038 -0.423143E+02  0.390E-01    1.28       0.0  T
   2    -42.3015361  0.127677E-01  0.630E-01    1.32       1.0  T
   3    -42.3129742 -0.114381E-01  0.350E-01    1.28       1.0  T
   4    -42.3170173 -0.404311E-02  0.109E-01    1.28       1.0  T
   5    -42.3170415 -0.242099E-04  0.677E-02    1.28       1.0  T
   6    -42.3171599 -0.118369E-03  0.179E-02    1.28       1.1  T
   7    -42.3171692 -0.932165E-05  0.731E-03    1.28       2.7  T
   8    -42.3171699 -0.680029E-06  0.293E-03    1.28       6.8  T
   9    -42.3171699 -0.484534E-07  0.112E-03    1.28      17.9  T
  10    -42.3171700 -0.436018E-07  0.378E-04    1.28      52.9  T
  11    -42.3171700 -0.130950E-08  0.179E-04    1.28     111.6  T
     SCC iter.                  ...        0 min,  0.015 sec
     gradient                   ...        0 min,  0.013 sec
 * total energy  :   -41.7267467 Eh     change       -0.4600247E-01 Eh
   gradient norm :     0.2987521 Eh/α   predicted    -0.3741385E-01 ( -18.67%)
   displ. norm   :     0.6319258 α      lambda        0.6319527E-02
   maximum displ.:     0.6087433 α      in ANC's #1, #2, #59, ...

........................................................................
.............................. CYCLE    7 ..............................
........................................................................

 iter      E             dE          RMSdq      gap      omega  full diag
   1    -42.2928357 -0.422928E+02  0.712E-01    1.05       0.0  T
   2    -42.2714846  0.213510E-01  0.866E-01    1.12       1.0  T
   3    -42.2786109 -0.712626E-02  0.724E-01    1.08       1.0  T
   4    -42.2952626 -0.166517E-01  0.322E-01    1.06       1.0  T
   5    -42.2980195 -0.275694E-02  0.112E-01    1.05       1.0  T
   6    -42.2984887 -0.469176E-03  0.236E-02    1.06       1.0  T
   7    -42.2984912 -0.249760E-05  0.136E-02    1.06       1.5  T
   8    -42.2984939 -0.268933E-05  0.353E-03    1.06       5.7  T
   9    -42.2984940 -0.165956E-06  0.150E-03    1.06      13.3  T
  10    -42.2984941 -0.605198E-07  0.651E-04    1.06      30.7  T
  11    -42.2984941 -0.418115E-08  0.206E-04    1.06      97.3  T
     SCC iter.                  ...        0 min,  0.015 sec
     gradient                   ...        0 min,  0.014 sec
 * total energy  :   -41.7217426 Eh     change        0.5004043E-02 Eh
   gradient norm :     0.5960244 Eh/α   predicted     0.4421557E-02 ( -11.64%)
   displ. norm   :     0.1428297 α      lambda       -0.5508878E-01
   maximum displ.:     0.0976192 α      in ANC's #1, #2, #59, ...

........................................................................
.............................. CYCLE    8 ..............................
........................................................................

 iter      E             dE          RMSdq      gap      omega  full diag
   1    -42.3289771 -0.423290E+02  0.293E-01    1.24       0.0  T
   2    -42.3128930  0.160841E-01  0.655E-01    1.25       1.0  T
   3    -42.3304952 -0.176022E-01  0.134E-01    1.24       1.0  T
   4    -42.3306615 -0.166263E-03  0.821E-02    1.24       1.0  T
   5    -42.3307397 -0.781876E-04  0.337E-02    1.24       1.0  T
   6    -42.3307701 -0.304071E-04  0.155E-02    1.24       1.3  T
   7    -42.3307765 -0.641001E-05  0.567E-03    1.24       3.5  T
   8    -42.3307769 -0.477499E-06  0.222E-03    1.24       9.0  T
   9    -42.3307770 -0.772003E-07  0.608E-04    1.24      32.9  T
  10    -42.3307770 -0.645405E-08  0.294E-04    1.24      68.1  T
     SCC iter.                  ...        0 min,  0.014 sec
     gradient                   ...        0 min,  0.013 sec
 * total energy  :   -41.7616268 Eh     change       -0.3988420E-01 Eh
   gradient norm :     0.3197202 Eh/α   predicted    -0.2810650E-01 ( -29.53%)
   displ. norm   :     0.5564289 α      lambda       -0.8098534E-01
   maximum displ.:     0.5088349 α      in ANC's #1, #59, #35, ...

........................................................................
.............................. CYCLE    9 ..............................
........................................................................

 iter      E             dE          RMSdq      gap      omega  full diag
   1    -42.3474484 -0.423474E+02  0.101E+00    1.28       0.0  T
   2    -42.1604577  0.186991E+00  0.243E+00    1.41       1.0  T
   3    -42.3755436 -0.215086E+00  0.459E-01    1.41       1.0  T
   4    -42.3790073 -0.346373E-02  0.280E-01    1.40       1.0  T
   5    -42.3799001 -0.892796E-03  0.102E-01    1.40       1.0  T
   6    -42.3802014 -0.301302E-03  0.355E-02    1.40       1.0  T
   7    -42.3802290 -0.275674E-04  0.121E-02    1.40       1.6  T
   8    -42.3802315 -0.249811E-05  0.465E-03    1.40       4.3  T
   9    -42.3802317 -0.233587E-06  0.156E-03    1.40      12.8  T
  10    -42.3802318 -0.376579E-07  0.742E-04    1.40      27.0  T
  11    -42.3802318 -0.933940E-08  0.385E-04    1.40      52.0  T
     SCC iter.                  ...        0 min,  0.015 sec
     gradient                   ...        0 min,  0.014 sec
 * total energy  :   -41.8293613 Eh     change       -0.6773446E-01 Eh
   gradient norm :     0.1896526 Eh/α   predicted    -0.5303010E-01 ( -21.71%)
   displ. norm   :     0.7561500 α      lambda       -0.7746214E-01
   maximum displ.:     0.7021359 α      in ANC's #1, #59, #35, ...

........................................................................
.............................. CYCLE   10 ..............................
........................................................................

 iter      E             dE          RMSdq      gap      omega  full diag
   1    -42.3433862 -0.423434E+02  0.116E+00    1.26       0.0  T
   2    -42.1573563  0.186030E+00  0.258E+00    1.43       1.0  T
   3    -42.3737469 -0.216391E+00  0.625E-01    1.43       1.0  T
   4    -42.3762506 -0.250371E-02  0.479E-01    1.41       1.0  T
   5    -42.3809886 -0.473807E-02  0.166E-01    1.43       1.0  T
   6    -42.3815376 -0.548909E-03  0.532E-02    1.42       1.0  T
   7    -42.3815997 -0.621477E-04  0.193E-02    1.42       1.0  T
   8    -42.3816120 -0.123472E-04  0.695E-03    1.42       2.9  T
   9    -42.3816128 -0.748047E-06  0.181E-03    1.42      11.0  T
  10    -42.3816128 -0.328737E-07  0.913E-04    1.42      21.9  T
  11    -42.3816128 -0.472836E-08  0.602E-04    1.42      33.2  T
     SCC iter.                  ...        0 min,  0.015 sec
     gradient                   ...        0 min,  0.014 sec
 * total energy  :   -41.8743408 Eh     change       -0.4497947E-01 Eh
   gradient norm :     0.2789043 Eh/α   predicted    -0.6087618E-01 (  35.34%)
   displ. norm   :     0.5898895 α      lambda       -0.9198000E-01
   maximum displ.:     0.2085015 α      in ANC's #1, #36, #35, ...

........................................................................
.............................. CYCLE   11 ..............................
........................................................................

 iter      E             dE          RMSdq      gap      omega  full diag
   1    -42.4100128 -0.424100E+02  0.951E-01    1.75       0.0  T
   2    -42.3804218  0.295910E-01  0.110E+00    1.59       1.0  T
   3    -42.4052431 -0.248214E-01  0.712E-01    1.75       1.0  T
   4    -42.4178329 -0.125898E-01  0.187E-01    1.75       1.0  T
   5    -42.4182350 -0.402052E-03  0.599E-02    1.74       1.0  T
   6    -42.4183373 -0.102346E-03  0.236E-02    1.75       1.0  T
   7    -42.4183423 -0.500268E-05  0.925E-03    1.75       2.2  T
   8    -42.4183430 -0.683761E-06  0.236E-03    1.75       8.5  T
   9    -42.4183431 -0.885976E-07  0.133E-03    1.75      15.1  T
  10    -42.4183431 -0.156790E-07  0.639E-04    1.75      31.3  T
  11    -42.4183431 -0.441119E-08  0.186E-04    1.75     107.5  T
     SCC iter.                  ...        0 min,  0.015 sec
     gradient                   ...        0 min,  0.013 sec
 * total energy  :   -41.8658275 Eh     change        0.8513239E-02 Eh
   gradient norm :     0.6023623 Eh/α   predicted    -0.6199346E-01 (-828.20%)
   displ. norm   :     0.2449111 α      lambda       -0.6417818E-01
   maximum displ.:     0.1368030 α      in ANC's #1, #59, #45, ...

........................................................................
.............................. CYCLE   12 ..............................
........................................................................

 iter      E             dE          RMSdq      gap      omega  full diag
   1    -42.4096479 -0.424096E+02  0.382E-01    1.59       0.0  T
   2    -42.4078473  0.180056E-02  0.345E-01    1.60       1.0  T
   3    -42.4063749  0.147239E-02  0.365E-01    1.61       1.0  T
   4    -42.4102916 -0.391669E-02  0.109E-01    1.59       1.0  T
   5    -42.4104871 -0.195460E-03  0.401E-02    1.61       1.0  T
   6    -42.4105368 -0.497611E-04  0.119E-02    1.60       1.7  T
   7    -42.4105400 -0.316316E-05  0.458E-03    1.60       4.4  T
   8    -42.4105402 -0.145704E-06  0.105E-03    1.60      19.0  T
   9    -42.4105402 -0.233939E-07  0.489E-04    1.60      40.9  T
  10    -42.4105402 -0.197690E-08  0.259E-04    1.60      77.1  T
     SCC iter.                  ...        0 min,  0.014 sec
     gradient                   ...        0 min,  0.014 sec
 * total energy  :   -41.9050768 Eh     change       -0.3924926E-01 Eh
   gradient norm :     0.2237599 Eh/α   predicted    -0.3401383E-01 ( -13.34%)
   displ. norm   :     0.0861297 α      lambda       -0.1306001E-01
   maximum displ.:     0.0522582 α      in ANC's #1, #2, #63, ...

........................................................................
.............................. CYCLE   13 ..............................
........................................................................

 iter      E             dE          RMSdq      gap      omega  full diag
   1    -42.4121053 -0.424121E+02  0.103E-01    1.57       0.0  T
   2    -42.4118249  0.280370E-03  0.110E-01    1.58       1.0  T
   3    -42.4119520 -0.127132E-03  0.951E-02    1.57       1.0  T
   4    -42.4122007 -0.248693E-03  0.330E-02    1.57       1.0  T
   5    -42.4122127 -0.119756E-04  0.895E-03    1.57       2.2  T
   6    -42.4122152 -0.247296E-05  0.401E-03    1.57       5.0  T
   7    -42.4122155 -0.320391E-06  0.185E-03    1.57      10.8  T
   8    -42.4122156 -0.514057E-07  0.553E-04    1.57      36.1  T
   9    -42.4122156 -0.403067E-08  0.139E-04    1.57     143.6  T
     SCC iter.                  ...        0 min,  0.012 sec
     gradient                   ...        0 min,  0.014 sec
 * total energy  :   -41.9156354 Eh     change       -0.1055858E-01 Eh
   gradient norm :     0.1519975 Eh/α   predicted    -0.6578476E-02 ( -37.70%)
   displ. norm   :     0.2265822 α      lambda       -0.3035277E-01
   maximum displ.:     0.0844225 α      in ANC's #39, #2, #63, ...

........................................................................
.............................. CYCLE   14 ..............................
........................................................................

 iter      E             dE          RMSdq      gap      omega  full diag
   1    -42.4324778 -0.424325E+02  0.321E-01    1.55       0.0  T
   2    -42.4302545  0.222336E-02  0.333E-01    1.55       1.0  T
   3    -42.4313409 -0.108639E-02  0.298E-01    1.54       1.0  T
   4    -42.4338482 -0.250732E-02  0.888E-02    1.55       1.0  T
   5    -42.4339213 -0.730867E-04  0.258E-02    1.55       1.0  T
   6    -42.4339318 -0.105246E-04  0.811E-03    1.55       2.5  T
   7    -42.4339323 -0.497280E-06  0.516E-03    1.55       3.9  T
   8    -42.4339326 -0.333246E-06  0.218E-03    1.55       9.2  T
   9    -42.4339327 -0.134677E-06  0.532E-04    1.55      37.6  T
  10    -42.4339327 -0.145906E-08  0.323E-04    1.55      62.0  T
     SCC iter.                  ...        0 min,  0.014 sec
     gradient                   ...        0 min,  0.014 sec
 * total energy  :   -41.9378141 Eh     change       -0.2217870E-01 Eh
   gradient norm :     0.1627622 Eh/α   predicted    -0.1595657E-01 ( -28.05%)
   displ. norm   :     0.3247602 α      lambda       -0.2654182E-01
   maximum displ.:     0.1404588 α      in ANC's #39, #36, #33, ...

........................................................................
.............................. CYCLE   15 ..............................
........................................................................

 iter      E             dE          RMSdq      gap      omega  full diag
   1    -42.4503206 -0.424503E+02  0.429E-01    1.54       0.0  T
   2    -42.4414441  0.887654E-02  0.555E-01    1.56       1.0  T
   3    -42.4496778 -0.823370E-02  0.332E-01    1.53       1.0  T
   4    -42.4524240 -0.274617E-02  0.117E-01    1.54       1.0  T
   5    -42.4526182 -0.194230E-03  0.266E-02    1.54       1.0  T
   6    -42.4526324 -0.142340E-04  0.141E-02    1.54       1.4  T
   7    -42.4526368 -0.433182E-05  0.500E-03    1.54       4.0  T
   8    -42.4526367  0.215999E-07  0.208E-03    1.54       9.6  T
   9    -42.4526368 -0.949645E-07  0.692E-04    1.54      28.9  T
  10    -42.4526368 -0.219809E-08  0.379E-04    1.54      52.8  T
     SCC iter.                  ...        0 min,  0.014 sec
     gradient                   ...        0 min,  0.013 sec
 * total energy  :   -41.9573184 Eh     change       -0.1950439E-01 Eh
   gradient norm :     0.1849210 Eh/α   predicted    -0.1467086E-01 ( -24.78%)
   displ. norm   :     0.3257630 α      lambda       -0.1922298E-01
   maximum displ.:     0.1356015 α      in ANC's #1, #39, #36, ...

........................................................................
.............................. CYCLE   16 ..............................
........................................................................

 iter      E             dE          RMSdq      gap      omega  full diag
   1    -42.4616340 -0.424616E+02  0.402E-01    1.54       0.0  T
   2    -42.4556181  0.601587E-02  0.486E-01    1.57       1.0  T
   3    -42.4611157 -0.549759E-02  0.294E-01    1.53       1.0  T
   4    -42.4631559 -0.204021E-02  0.949E-02    1.54       1.0  T
   5    -42.4632761 -0.120227E-03  0.234E-02    1.54       1.0  T
   6    -42.4632876 -0.115041E-04  0.970E-03    1.54       2.1  T
   7    -42.4632890 -0.141988E-05  0.489E-03    1.54       4.1  T
   8    -42.4632892 -0.138875E-06  0.202E-03    1.54       9.9  T
   9    -42.4632893 -0.101812E-06  0.617E-04    1.54      32.4  T
  10    -42.4632893 -0.153721E-08  0.353E-04    1.54      56.6  T
     SCC iter.                  ...        0 min,  0.014 sec
     gradient                   ...        0 min,  0.014 sec
 * total energy  :   -41.9705806 Eh     change       -0.1326218E-01 Eh
   gradient norm :     0.1373441 Eh/α   predicted    -0.1063166E-01 ( -19.83%)
   displ. norm   :     0.2220171 α      lambda       -0.9280632E-02
   maximum displ.:     0.1435226 α      in ANC's #1, #39, #36, ...

........................................................................
.............................. CYCLE   17 ..............................
........................................................................

 iter      E             dE          RMSdq      gap      omega  full diag
   1    -42.4698402 -0.424698E+02  0.233E-01    1.54       0.0  T
   2    -42.4686059  0.123434E-02  0.252E-01    1.56       1.0  T
   3    -42.4695433 -0.937388E-03  0.177E-01    1.53       1.0  T
   4    -42.4702717 -0.728419E-03  0.583E-02    1.54       1.0  T
   5    -42.4703169 -0.452295E-04  0.165E-02    1.54       1.2  T
   6    -42.4703252 -0.829609E-05  0.534E-03    1.54       3.7  T
   7    -42.4703255 -0.332849E-06  0.345E-03    1.54       5.8  T
   8    -42.4703257 -0.178350E-06  0.884E-04    1.54      22.6  T
   9    -42.4703257 -0.102736E-07  0.381E-04    1.54      52.5  T
     SCC iter.                  ...        0 min,  0.012 sec
     gradient                   ...        0 min,  0.013 sec
 * total energy  :   -41.9774834 Eh     change       -0.6902778E-02 Eh
   gradient norm :     0.1155655 Eh/α   predicted    -0.4869776E-02 ( -29.45%)
   displ. norm   :     0.2413897 α      lambda       -0.9269593E-02
   maximum displ.:     0.1847773 α      in ANC's #1, #36, #39, ...

........................................................................
.............................. CYCLE   18 ..............................
........................................................................

 iter      E             dE          RMSdq      gap      omega  full diag
   1    -42.4796267 -0.424796E+02  0.233E-01    1.51       0.0  T
   2    -42.4792972  0.329555E-03  0.196E-01    1.53       1.0  T
   3    -42.4791540  0.143148E-03  0.187E-01    1.50       1.0  T
   4    -42.4798884 -0.734434E-03  0.813E-02    1.52       1.0  T
   5    -42.4800229 -0.134485E-03  0.264E-02    1.52       1.0  T
   6    -42.4800533 -0.303722E-04  0.579E-03    1.52       3.5  T
   7    -42.4800540 -0.700453E-06  0.311E-03    1.52       6.4  T
   8    -42.4800541 -0.607477E-07  0.754E-04    1.52      26.5  T
   9    -42.4800541 -0.408478E-08  0.341E-04    1.52      58.7  T
     SCC iter.                  ...        0 min,  0.012 sec
     gradient                   ...        0 min,  0.014 sec
 * total energy  :   -41.9846614 Eh     change       -0.7178030E-02 Eh
   gradient norm :     0.1154533 Eh/α   predicted    -0.4905021E-02 ( -31.67%)
   displ. norm   :     0.2956146 α      lambda       -0.1088386E-01
   maximum displ.:     0.2336883 α      in ANC's #1, #57, #36, ...

........................................................................
.............................. CYCLE   19 ..............................
........................................................................

 iter      E             dE          RMSdq      gap      omega  full diag
   1    -42.4903205 -0.424903E+02  0.295E-01    1.44       0.0  T
   2    -42.4903597 -0.391903E-04  0.188E-01    1.46       1.0  T
   3    -42.4898950  0.464656E-03  0.207E-01    1.43       1.0  T
   4    -42.4903562 -0.461182E-03  0.125E-01    1.46       1.0  T
   5    -42.4907635 -0.407278E-03  0.374E-02    1.45       1.0  T
   6    -42.4908284 -0.648929E-04  0.768E-03    1.45       2.6  T
   7    -42.4908298 -0.142387E-05  0.382E-03    1.45       5.2  T
   8    -42.4908299 -0.986594E-07  0.137E-03    1.45      14.6  T
   9    -42.4908299 -0.151008E-07  0.484E-04    1.45      41.3  T
  10    -42.4908299 -0.224301E-08  0.270E-04    1.45      74.0  T
     SCC iter.                  ...        0 min,  0.014 sec
     gradient                   ...        0 min,  0.013 sec
 * total energy  :   -41.9927408 Eh     change       -0.8079413E-02 Eh
   gradient norm :     0.1115832 Eh/α   predicted    -0.5917570E-02 ( -26.76%)
   displ. norm   :     0.2585497 α      lambda       -0.9419173E-02
   maximum displ.:     0.1965398 α      in ANC's #1, #57, #60, ...

........................................................................
.............................. CYCLE   20 ..............................
........................................................................

 iter      E             dE          RMSdq      gap      omega  full diag
   1    -42.4989150 -0.424989E+02  0.295E-01    1.34       0.0  T
   2    -42.4990345 -0.119523E-03  0.156E-01    1.36       1.0  T
   3    -42.4989798  0.547267E-04  0.135E-01    1.35       1.0  T
   4    -42.4992348 -0.255020E-03  0.366E-02    1.36       1.0  T
   5    -42.4992735 -0.386475E-04  0.235E-02    1.36       1.0  T
   6    -42.4992886 -0.151152E-04  0.112E-02    1.36       1.8  T
   7    -42.4992918 -0.320472E-05  0.496E-03    1.36       4.0  T
   8    -42.4992922 -0.357562E-06  0.152E-03    1.36      13.1  T
   9    -42.4992922 -0.169119E-07  0.463E-04    1.36      43.2  T
  10    -42.4992922 -0.258417E-08  0.253E-04    1.36      79.2  T
     SCC iter.                  ...        0 min,  0.014 sec
     gradient                   ...        0 min,  0.014 sec
 * total energy  :   -41.9994996 Eh     change       -0.6758729E-02 Eh
   gradient norm :     0.1186737 Eh/α   predicted    -0.5024576E-02 ( -25.66%)
   displ. norm   :     0.1723699 α      lambda       -0.8841695E-02
   maximum displ.:     0.0890641 α      in ANC's #1, #57, #2, ...
 * RMSD in coord.:     0.7326517 α      energy gain  -0.1408365E+02 Eh

generating ANC from model Hessian ...
Using Lindh-Hessian (1995)
 Shifting diagonal of input Hessian by    1.4879737072809388E-002
 Lowest  eigenvalues of input Hessian
    0.010000    0.010025    0.000000    0.000000    0.000000    0.000000
    0.000000    0.000000    0.016215    0.018146    0.018805    0.019423
    0.020005    0.023144    0.025374    0.025739    0.026134    0.029330
 Highest eigenvalues
    2.132375    2.207083    2.287213    2.391685    2.452341    4.612823


........................................................................
.............................. CYCLE   21 ..............................
........................................................................

 iter      E             dE          RMSdq      gap      omega  full diag
   1    -42.5075382 -0.425075E+02  0.274E-01    1.25       0.0  T
   2    -42.5074199  0.118256E-03  0.169E-01    1.25       1.0  T
   3    -42.5062953  0.112464E-02  0.219E-01    1.29       1.0  T
   4    -42.5074937 -0.119836E-02  0.133E-01    1.24       1.0  T
   5    -42.5078488 -0.355145E-03  0.260E-02    1.26       1.0  T
   6    -42.5078751 -0.262978E-04  0.102E-02    1.26       2.0  T
   7    -42.5078774 -0.233078E-05  0.516E-03    1.26       3.9  T
   8    -42.5078777 -0.308547E-06  0.187E-03    1.26      10.7  T
   9    -42.5078778 -0.405947E-07  0.458E-04    1.26      43.7  T
  10    -42.5078778 -0.203646E-08  0.249E-04    1.26      80.5  T
     SCC iter.                  ...        0 min,  0.014 sec
     gradient                   ...        0 min,  0.013 sec
 * total energy  :   -42.0061258 Eh     change       -0.6626211E-02 Eh
   gradient norm :     0.1337560 Eh/α   predicted     0.0000000E+00 (-100.00%)
   displ. norm   :     0.4340491 α      lambda       -0.4258201E-01
   maximum displ.:     0.1516652 α      in ANC's #26, #29, #27, ...

........................................................................
.............................. CYCLE   22 ..............................
........................................................................

 iter      E             dE          RMSdq      gap      omega  full diag
   1    -42.5348860 -0.425349E+02  0.968E-01    0.89       0.0  T
   2    -42.5330223  0.186369E-02  0.560E-01    1.01       1.0  T
   3    -42.5082452  0.247771E-01  0.115E+00    0.90       1.0  T
   4    -42.5368830 -0.286378E-01  0.235E-01    0.94       1.0  T
   5    -42.5379324 -0.104932E-02  0.739E-02    0.93       1.0  T
   6    -42.5381342 -0.201841E-03  0.349E-02    0.94       1.0  T
   7    -42.5381554 -0.212023E-04  0.198E-02    0.94       1.0  T
   8    -42.5381611 -0.573526E-05  0.342E-03    0.93       5.8  T
   9    -42.5381614 -0.284056E-06  0.114E-03    0.93      17.5  T
  10    -42.5381614 -0.144416E-07  0.548E-04    0.93      36.5  T
  11    -42.5381614 -0.217344E-08  0.188E-04    0.93     106.6  T
     SCC iter.                  ...        0 min,  0.015 sec
     gradient                   ...        0 min,  0.014 sec
 * total energy  :   -42.0430060 Eh     change       -0.3688017E-01 Eh
   gradient norm :     0.1028569 Eh/α   predicted    -0.2530568E-01 ( -31.38%)
   displ. norm   :     0.7768066 α      lambda       -0.6270644E-01
   maximum displ.:     0.2869355 α      in ANC's #26, #27, #36, ...

........................................................................
.............................. CYCLE   23 ..............................
........................................................................

 iter      E             dE          RMSdq      gap      omega  full diag
   1    -42.5215319 -0.425215E+02  0.162E+00    0.52       0.0  T
   2    -42.3354740  0.186058E+00  0.282E+00    1.97       1.0  T
   3    -42.5527290 -0.217255E+00  0.792E-01    0.39       1.0  T
   4    -42.5597313 -0.700226E-02  0.238E-01    0.40       1.0  T
   5    -42.5600733 -0.341991E-03  0.889E-02    0.42       1.0  T
   6    -42.5602229 -0.149610E-03  0.446E-02    0.42       1.0  T
   7    -42.5602510 -0.281284E-04  0.193E-02    0.42       1.0  T
   8    -42.5602563 -0.534621E-05  0.386E-03    0.42       5.2  T
   9    -42.5602566 -0.225504E-06  0.139E-03    0.42      14.4  T
  10    -42.5602566 -0.176692E-07  0.677E-04    0.42      29.6  T
  11    -42.5602566 -0.754051E-08  0.209E-04    0.42      95.7  T
     SCC iter.                  ...        0 min,  0.015 sec
     gradient                   ...        0 min,  0.014 sec
 * total energy  :   -42.0481524 Eh     change       -0.5146460E-02 Eh
   gradient norm :     0.2169935 Eh/α   predicted    -0.5027267E-01 ( 876.84%)
   displ. norm   :     0.3851435 α      lambda       -0.6962465E-01
   maximum displ.:     0.1312428 α      in ANC's #29, #27, #36, ...

........................................................................
.............................. CYCLE   24 ..............................
........................................................................

 iter      E             dE          RMSdq      gap      omega  full diag
   1    -42.5631619 -0.425632E+02  0.918E-01    0.80       0.0  T
   2    -42.4648495  0.983125E-01  0.201E+00    0.96       1.0  T
   3    -42.5718620 -0.107013E+00  0.518E-01    0.72       1.0  T
   4    -42.5754738 -0.361185E-02  0.175E-01    0.66       1.0  T
   5    -42.5757272 -0.253314E-03  0.477E-02    0.64       1.0  T
   6    -42.5757701 -0.429713E-04  0.181E-02    0.64       1.1  T
   7    -42.5757732 -0.303614E-05  0.113E-02    0.64       1.8  T
   8    -42.5757755 -0.231302E-05  0.175E-03    0.64      11.4  T
   9    -42.5757755 -0.500140E-07  0.668E-04    0.64      30.0  T
  10    -42.5757755 -0.936218E-08  0.260E-04    0.64      76.9  T
     SCC iter.                  ...        0 min,  0.014 sec
     gradient                   ...        0 min,  0.014 sec
 * total energy  :   -42.0704672 Eh     change       -0.2231482E-01 Eh
   gradient norm :     0.0662908 Eh/α   predicted    -0.3997622E-01 (  79.15%)
   displ. norm   :     0.1879458 α      lambda       -0.5277341E-02
   maximum displ.:     0.0663444 α      in ANC's #4, #12, #8, ...

........................................................................
.............................. CYCLE   25 ..............................
........................................................................

 iter      E             dE          RMSdq      gap      omega  full diag
   1    -42.5825198 -0.425825E+02  0.251E-01    0.55       0.0  T
   2    -42.5781513  0.436846E-02  0.412E-01    0.67       1.0  T
   3    -42.5818101 -0.365873E-02  0.249E-01    0.55       1.0  T
   4    -42.5830025 -0.119249E-02  0.355E-02    0.57       1.0  T
   5    -42.5830189 -0.163314E-04  0.106E-02    0.57       1.9  T
   6    -42.5830220 -0.309794E-05  0.618E-03    0.57       3.2  T
   7    -42.5830226 -0.613439E-06  0.276E-03    0.57       7.3  T
   8    -42.5830227 -0.113962E-06  0.386E-04    0.57      51.9  T
   9    -42.5830227 -0.206547E-08  0.184E-04    0.57     108.5  T
     SCC iter.                  ...        0 min,  0.012 sec
     gradient                   ...        0 min,  0.014 sec
 * total energy  :   -42.0744086 Eh     change       -0.3941407E-02 Eh
   gradient norm :     0.0410822 Eh/α   predicted    -0.2731879E-02 ( -30.69%)
   displ. norm   :     0.2985451 α      lambda       -0.6139441E-02
   maximum displ.:     0.1041609 α      in ANC's #14, #4, #19, ...

........................................................................
.............................. CYCLE   26 ..............................
........................................................................

 iter      E             dE          RMSdq      gap      omega  full diag
   1    -42.5951447 -0.425951E+02  0.324E-01    0.44       0.0  T
   2    -42.5827499  0.123947E-01  0.729E-01    0.66       1.0  T
   3    -42.5963640 -0.136141E-01  0.147E-01    0.45       1.0  T
   4    -42.5965427 -0.178702E-03  0.443E-02    0.47       1.0  T
   5    -42.5965440 -0.123869E-05  0.204E-02    0.47       1.0  T
   6    -42.5965481 -0.407446E-05  0.142E-02    0.47       1.4  T
   7    -42.5965518 -0.369254E-05  0.242E-03    0.47       8.3  T
   8    -42.5965519 -0.107774E-06  0.620E-04    0.47      32.3  T
   9    -42.5965519 -0.331590E-08  0.333E-04    0.47      60.1  T
     SCC iter.                  ...        0 min,  0.012 sec
     gradient                   ...        0 min,  0.014 sec
 * total energy  :   -42.0755550 Eh     change       -0.1146363E-02 Eh
   gradient norm :     0.0410450 Eh/α   predicted    -0.3343340E-02 ( 191.65%)
   displ. norm   :     0.2015256 α      lambda       -0.3781278E-02
   maximum displ.:     0.1060877 α      in ANC's #12, #10, #9, ...

........................................................................
.............................. CYCLE   27 ..............................
........................................................................

 iter      E             dE          RMSdq      gap      omega  full diag
   1    -42.5929789 -0.425930E+02  0.173E-01    0.48       0.0  T
   2    -42.5929848 -0.593531E-05  0.118E-01    0.47       1.0  T
   3    -42.5918294  0.115546E-02  0.201E-01    0.51       1.0  T
   4    -42.5929137 -0.108435E-02  0.712E-02    0.47       1.0  T
   5    -42.5930203 -0.106543E-03  0.119E-02    0.47       1.7  T
   6    -42.5930227 -0.247704E-05  0.666E-03    0.47       3.0  T
   7    -42.5930234 -0.677347E-06  0.238E-03    0.47       8.4  T
   8    -42.5930235 -0.108453E-06  0.321E-04    0.47      62.4  T
   9    -42.5930235 -0.173692E-08  0.183E-04    0.47     109.0  T
     SCC iter.                  ...        0 min,  0.012 sec
     gradient                   ...        0 min,  0.014 sec
 * total energy  :   -42.0773849 Eh     change       -0.1829921E-02 Eh
   gradient norm :     0.0248159 Eh/α   predicted    -0.1967423E-02 (   7.51%)
   displ. norm   :     0.1125056 α      lambda       -0.1008381E-02
   maximum displ.:     0.0601765 α      in ANC's #7, #6, #4, ...

........................................................................
.............................. CYCLE   28 ..............................
........................................................................

 iter      E             dE          RMSdq      gap      omega  full diag
   1    -42.5941198 -0.425941E+02  0.100E-01    0.49       0.0  T
   2    -42.5940151  0.104670E-03  0.832E-02    0.47       1.0  T
   3    -42.5936728  0.342331E-03  0.140E-01    0.50       1.0  T
   4    -42.5941342 -0.461432E-03  0.657E-03    0.48       3.0  T
   5    -42.5941348 -0.584587E-06  0.217E-03    0.48       9.2  T
   6    -42.5941349 -0.115292E-06  0.973E-04    0.48      20.6  T
   7    -42.5941349 -0.907190E-08  0.452E-04    0.48      44.3  T
     SCC iter.                  ...        0 min,  0.010 sec
     gradient                   ...        0 min,  0.013 sec
 * total energy  :   -42.0780635 Eh     change       -0.6785627E-03 Eh
   gradient norm :     0.0183075 Eh/α   predicted    -0.5105847E-03 ( -24.75%)
   displ. norm   :     0.2604120 α      lambda       -0.1646899E-02
   maximum displ.:     0.1537382 α      in ANC's #6, #3, #49, ...

........................................................................
.............................. CYCLE   29 ..............................
........................................................................

 iter      E             dE          RMSdq      gap      omega  full diag
   1    -42.5977436 -0.425977E+02  0.155E-01    0.47       0.0  T
   2    -42.5973530  0.390648E-03  0.161E-01    0.49       1.0  T
   3    -42.5972814  0.715496E-04  0.149E-01    0.46       1.0  T
   4    -42.5977800 -0.498544E-03  0.182E-02    0.47       1.1  T
   5    -42.5977871 -0.714412E-05  0.749E-03    0.47       2.7  T
   6    -42.5977882 -0.105499E-05  0.313E-03    0.47       6.4  T
   7    -42.5977883 -0.158130E-06  0.611E-04    0.47      32.7  T
   8    -42.5977883 -0.253361E-08  0.336E-04    0.47      59.6  T
     SCC iter.                  ...        0 min,  0.011 sec
     gradient                   ...        0 min,  0.014 sec
 * total energy  :   -42.0792641 Eh     change       -0.1200599E-02 Eh
   gradient norm :     0.0180488 Eh/α   predicted    -0.8792924E-03 ( -26.76%)
   displ. norm   :     0.6114811 α      lambda       -0.2966409E-02
   maximum displ.:     0.3783976 α      in ANC's #6, #3, #4, ...

........................................................................
.............................. CYCLE   30 ..............................
........................................................................

 iter      E             dE          RMSdq      gap      omega  full diag
   1    -42.5911354 -0.425911E+02  0.491E-01    0.40       0.0  T
   2    -42.5798169  0.113184E-01  0.696E-01    0.57       1.0  T
   3    -42.5890039 -0.918697E-02  0.415E-01    0.40       1.0  T
   4    -42.5922685 -0.326459E-02  0.277E-02    0.41       1.0  T
   5    -42.5922819 -0.133878E-04  0.113E-02    0.41       1.8  T
   6    -42.5922838 -0.195551E-05  0.643E-03    0.41       3.1  T
   7    -42.5922843 -0.486024E-06  0.304E-03    0.41       6.6  T
   8    -42.5922844 -0.135928E-06  0.135E-03    0.41      14.8  T
   9    -42.5922845 -0.344494E-07  0.489E-04    0.41      40.9  T
  10    -42.5922845 -0.395984E-08  0.929E-05    0.41     215.2  T
     SCC iter.                  ...        0 min,  0.014 sec
     gradient                   ...        0 min,  0.013 sec
 * total energy  :   -42.0796190 Eh     change       -0.3549404E-03 Eh
   gradient norm :     0.0605962 Eh/α   predicted    -0.2037788E-02 ( 474.12%)
   displ. norm   :     0.1463334 α      lambda       -0.3870924E-02
   maximum displ.:     0.0818725 α      in ANC's #4, #7, #5, ...

........................................................................
.............................. CYCLE   31 ..............................
........................................................................

 iter      E             dE          RMSdq      gap      omega  full diag
   1    -42.6002863 -0.426003E+02  0.135E-01    0.41       0.0  T
   2    -42.6002622  0.241558E-04  0.833E-02    0.41       1.0  T
   3    -42.5994126  0.849582E-03  0.186E-01    0.44       1.0  T
   4    -42.6002859 -0.873293E-03  0.236E-02    0.41       1.0  T
   5    -42.6002988 -0.129425E-04  0.107E-02    0.41       1.9  T
   6    -42.6002999 -0.112803E-05  0.722E-03    0.41       2.8  T
   7    -42.6003009 -0.912712E-06  0.269E-03    0.41       7.4  T
   8    -42.6003010 -0.135520E-06  0.331E-04    0.41      60.4  T
   9    -42.6003010 -0.214820E-08  0.122E-04    0.41     164.6  T
     SCC iter.                  ...        0 min,  0.012 sec
     gradient                   ...        0 min,  0.014 sec
 * total energy  :   -42.0818433 Eh     change       -0.2224316E-02 Eh
   gradient norm :     0.0201905 Eh/α   predicted    -0.1976915E-02 ( -11.12%)
   displ. norm   :     0.3209787 α      lambda       -0.2000271E-02
   maximum displ.:     0.1668070 α      in ANC's #6, #12, #3, ...

........................................................................
.............................. CYCLE   32 ..............................
........................................................................

 iter      E             dE          RMSdq      gap      omega  full diag
   1    -42.6019474 -0.426019E+02  0.259E-01    0.37       0.0  T
   2    -42.5985613  0.338616E-02  0.397E-01    0.45       1.0  T
   3    -42.6020176 -0.345631E-02  0.157E-01    0.37       1.0  T
   4    -42.6023377 -0.320096E-03  0.268E-02    0.38       1.0  T
   5    -42.6023435 -0.584233E-05  0.993E-03    0.38       2.0  T
   6    -42.6023461 -0.253190E-05  0.200E-03    0.38      10.0  T
   7    -42.6023461 -0.365517E-07  0.112E-03    0.38      17.8  T
   8    -42.6023461 -0.136010E-07  0.385E-04    0.38      51.9  T
   9    -42.6023461 -0.241496E-08  0.213E-04    0.38      93.9  T
     SCC iter.                  ...        0 min,  0.012 sec
     gradient                   ...        0 min,  0.014 sec
 * total energy  :   -42.0834916 Eh     change       -0.1648291E-02 Eh
   gradient norm :     0.0226087 Eh/α   predicted    -0.1103188E-02 ( -33.07%)
   displ. norm   :     0.6904762 α      lambda       -0.4173832E-02
   maximum displ.:     0.3972760 α      in ANC's #6, #3, #49, ...

........................................................................
.............................. CYCLE   33 ..............................
........................................................................

 iter      E             dE          RMSdq      gap      omega  full diag
   1    -42.5983714 -0.425984E+02  0.617E-01    0.33       0.0  T
   2    -42.5847929  0.135784E-01  0.778E-01    0.50       1.0  T
   3    -42.5949986 -0.102057E-01  0.504E-01    0.36       1.0  T
   4    -42.6000681 -0.506950E-02  0.491E-02    0.32       1.0  T
   5    -42.6000990 -0.308445E-04  0.175E-02    0.32       1.1  T
   6    -42.6001058 -0.685730E-05  0.582E-03    0.32       3.4  T
   7    -42.6001061 -0.280766E-06  0.331E-03    0.32       6.0  T
   8    -42.6001063 -0.180657E-06  0.103E-03    0.32      19.5  T
   9    -42.6001063 -0.278936E-07  0.354E-04    0.32      56.5  T
  10    -42.6001063 -0.184601E-08  0.118E-04    0.32     169.5  T
     SCC iter.                  ...        0 min,  0.014 sec
     gradient                   ...        0 min,  0.014 sec
 * total energy  :   -42.0859233 Eh     change       -0.2431657E-02 Eh
   gradient norm :     0.0487499 Eh/α   predicted    -0.3081931E-02 (  26.74%)
   displ. norm   :     0.2291712 α      lambda       -0.3734366E-02
   maximum displ.:     0.1225611 α      in ANC's #7, #32, #54, ...

........................................................................
.............................. CYCLE   34 ..............................
........................................................................

 iter      E             dE          RMSdq      gap      omega  full diag
   1    -42.6091596 -0.426092E+02  0.212E-01    0.31       0.0  T
   2    -42.6083941  0.765479E-03  0.223E-01    0.33       1.0  T
   3    -42.6085888 -0.194733E-03  0.172E-01    0.31       1.0  T
   4    -42.6092651 -0.676220E-03  0.350E-02    0.31       1.0  T
   5    -42.6092866 -0.215456E-04  0.951E-03    0.31       2.1  T
   6    -42.6092888 -0.218635E-05  0.448E-03    0.31       4.5  T
   7    -42.6092891 -0.269536E-06  0.250E-03    0.31       8.0  T
   8    -42.6092892 -0.116948E-06  0.568E-04    0.31      35.2  T
   9    -42.6092892 -0.633126E-08  0.260E-04    0.31      76.9  T
     SCC iter.                  ...        0 min,  0.012 sec
     gradient                   ...        0 min,  0.014 sec
 * total energy  :   -42.0885779 Eh     change       -0.2654647E-02 Eh
   gradient norm :     0.0372782 Eh/α   predicted    -0.1965248E-02 ( -25.97%)
   displ. norm   :     0.5418436 α      lambda       -0.5080317E-02
   maximum displ.:     0.3147048 α      in ANC's #7, #32, #6, ...

........................................................................
.............................. CYCLE   35 ..............................
........................................................................

 iter      E             dE          RMSdq      gap      omega  full diag
   1    -42.6051767 -0.426052E+02  0.631E-01    0.31       0.0  T
   2    -42.5909846  0.141921E-01  0.773E-01    0.46       1.0  T
   3    -42.6015422 -0.105576E-01  0.538E-01    0.36       1.0  T
   4    -42.6071794 -0.563728E-02  0.606E-02    0.29       1.0  T
   5    -42.6072408 -0.613807E-04  0.245E-02    0.29       1.0  T
   6    -42.6072624 -0.215462E-04  0.849E-03    0.29       2.4  T
   7    -42.6072638 -0.139618E-05  0.419E-03    0.29       4.8  T
   8    -42.6072639 -0.176352E-06  0.122E-03    0.29      16.4  T
   9    -42.6072640 -0.253777E-07  0.306E-04    0.29      65.3  T
  10    -42.6072640 -0.100957E-08  0.131E-04    0.29     152.2  T
     SCC iter.                  ...        0 min,  0.014 sec
     gradient                   ...        0 min,  0.014 sec
 * total energy  :   -42.0922961 Eh     change       -0.3718184E-02 Eh
   gradient norm :     0.0317158 Eh/α   predicted    -0.3285931E-02 ( -11.63%)
   displ. norm   :     0.4529510 α      lambda       -0.4097606E-02
   maximum displ.:     0.2965948 α      in ANC's #7, #32, #54, ...

........................................................................
.............................. CYCLE   36 ..............................
........................................................................

 iter      E             dE          RMSdq      gap      omega  full diag
   1    -42.6084773 -0.426085E+02  0.521E-01    0.28       0.0  T
   2    -42.6005457  0.793159E-02  0.587E-01    0.35       1.0  T
   3    -42.6055523 -0.500659E-02  0.460E-01    0.33       1.0  T
   4    -42.6096596 -0.410729E-02  0.631E-02    0.25       1.0  T
   5    -42.6097379 -0.783414E-04  0.241E-02    0.26       1.0  T
   6    -42.6097582 -0.202518E-04  0.588E-03    0.25       3.4  T
   7    -42.6097589 -0.702393E-06  0.275E-03    0.25       7.3  T
   8    -42.6097590 -0.688672E-07  0.113E-03    0.25      17.7  T
   9    -42.6097590 -0.211035E-07  0.324E-04    0.25      61.7  T
  10    -42.6097590 -0.164949E-08  0.135E-04    0.25     147.9  T
     SCC iter.                  ...        0 min,  0.014 sec
     gradient                   ...        0 min,  0.013 sec
 * total energy  :   -42.0950582 Eh     change       -0.2762043E-02 Eh
   gradient norm :     0.0394958 Eh/α   predicted    -0.2469147E-02 ( -10.60%)
   displ. norm   :     0.3414963 α      lambda       -0.3640013E-02
   maximum displ.:     0.1561052 α      in ANC's #3, #7, #32, ...

........................................................................
.............................. CYCLE   37 ..............................
........................................................................

 iter      E             dE          RMSdq      gap      omega  full diag
   1    -42.6170844 -0.426171E+02  0.253E-01    0.24       0.0  T
   2    -42.6168923  0.192125E-03  0.169E-01    0.24       1.0  T
   3    -42.6150126  0.187966E-02  0.288E-01    0.30       1.0  T
   4    -42.6171089 -0.209623E-02  0.520E-02    0.24       1.0  T
   5    -42.6171799 -0.710214E-04  0.118E-02    0.24       1.7  T
   6    -42.6171846 -0.469680E-05  0.533E-03    0.24       3.8  T
   7    -42.6171851 -0.554139E-06  0.243E-03    0.24       8.2  T
   8    -42.6171852 -0.633265E-07  0.791E-04    0.24      25.3  T
   9    -42.6171852 -0.709286E-08  0.262E-04    0.24      76.3  T
     SCC iter.                  ...        0 min,  0.012 sec
     gradient                   ...        0 min,  0.014 sec
 * total energy  :   -42.0973238 Eh     change       -0.2265601E-02 Eh
   gradient norm :     0.0325965 Eh/α   predicted    -0.2032258E-02 ( -10.30%)
   displ. norm   :     0.3855690 α      lambda       -0.2442552E-02
   maximum displ.:     0.1960514 α      in ANC's #7, #32, #49, ...

........................................................................
.............................. CYCLE   38 ..............................
........................................................................

 iter      E             dE          RMSdq      gap      omega  full diag
   1    -42.6146197 -0.426146E+02  0.362E-01    0.23       0.0  T
   2    -42.6135375  0.108226E-02  0.268E-01    0.22       1.0  T
   3    -42.6110684  0.246914E-02  0.414E-01    0.31       1.0  T
   4    -42.6147764 -0.370807E-02  0.543E-02    0.21       1.0  T
   5    -42.6148673 -0.908866E-04  0.219E-02    0.22       1.0  T
   6    -42.6148843 -0.170053E-04  0.593E-03    0.22       3.4  T
   7    -42.6148848 -0.444546E-06  0.323E-03    0.22       6.2  T
   8    -42.6148849 -0.128375E-06  0.790E-04    0.22      25.3  T
   9    -42.6148849 -0.111009E-07  0.228E-04    0.22      87.7  T
     SCC iter.                  ...        0 min,  0.012 sec
     gradient                   ...        0 min,  0.014 sec
 * total energy  :   -42.0983949 Eh     change       -0.1071123E-02 Eh
   gradient norm :     0.0397217 Eh/α   predicted    -0.1402843E-02 (  30.97%)
   displ. norm   :     0.3782759 α      lambda       -0.3899405E-02
   maximum displ.:     0.1880122 α      in ANC's #6, #3, #32, ...

........................................................................
.............................. CYCLE   39 ..............................
........................................................................

 iter      E             dE          RMSdq      gap      omega  full diag
   1    -42.6209939 -0.426210E+02  0.267E-01    0.20       0.0  T
   2    -42.6169679  0.402597E-02  0.422E-01    0.30       1.0  T
   3    -42.6213682 -0.440025E-02  0.155E-01    0.20       1.0  T
   4    -42.6216759 -0.307752E-03  0.299E-02    0.20       1.0  T
   5    -42.6216848 -0.889739E-05  0.123E-02    0.20       1.6  T
   6    -42.6216897 -0.493056E-05  0.364E-03    0.20       5.5  T
   7    -42.6216899 -0.121557E-06  0.207E-03    0.20       9.7  T
   8    -42.6216899 -0.588338E-07  0.923E-04    0.20      21.7  T
   9    -42.6216899 -0.173407E-07  0.262E-04    0.20      76.4  T
     SCC iter.                  ...        0 min,  0.012 sec
     gradient                   ...        0 min,  0.014 sec
 * total energy  :   -42.0965418 Eh     change        0.1853059E-02 Eh
   gradient norm :     0.0871283 Eh/α   predicted    -0.2228698E-02 (-220.27%)
   displ. norm   :     0.2019698 α      lambda       -0.7746411E-02
   maximum displ.:     0.1375748 α      in ANC's #6, #49, #16, ...

........................................................................
.............................. CYCLE   40 ..............................
........................................................................

 iter      E             dE          RMSdq      gap      omega  full diag
   1    -42.6200290 -0.426200E+02  0.176E-01    0.22       0.0  T
   2    -42.6185424  0.148661E-02  0.255E-01    0.22       1.0  T
   3    -42.6201270 -0.158456E-02  0.116E-01    0.21       1.0  T
   4    -42.6202899 -0.162897E-03  0.380E-02    0.20       1.0  T
   5    -42.6203223 -0.324532E-04  0.147E-02    0.20       1.4  T
   6    -42.6203295 -0.720949E-05  0.302E-03    0.20       6.6  T
   7    -42.6203297 -0.129097E-06  0.182E-03    0.20      11.0  T
   8    -42.6203297 -0.399979E-07  0.730E-04    0.20      27.4  T
   9    -42.6203297 -0.884248E-08  0.193E-04    0.20     103.9  T
     SCC iter.                  ...        0 min,  0.012 sec
     gradient                   ...        0 min,  0.014 sec
 * total energy  :   -42.1000689 Eh     change       -0.3527047E-02 Eh
   gradient norm :     0.0225246 Eh/α   predicted    -0.4031198E-02 (  14.29%)
   displ. norm   :     0.1497713 α      lambda       -0.1160229E-02
   maximum displ.:     0.0653396 α      in ANC's #32, #6, #1, ...

........................................................................
.............................. CYCLE   41 ..............................
........................................................................

 iter      E             dE          RMSdq      gap      omega  full diag
   1    -42.6205871 -0.426206E+02  0.178E-01    0.21       0.0  T
   2    -42.6187235  0.186369E-02  0.278E-01    0.20       1.0  T
   3    -42.6207081 -0.198468E-02  0.117E-01    0.21       1.0  T
   4    -42.6208867 -0.178577E-03  0.435E-02    0.19       1.0  T
   5    -42.6209460 -0.592741E-04  0.103E-02    0.19       1.9  T
   6    -42.6209492 -0.322949E-05  0.279E-03    0.19       7.2  T
   7    -42.6209494 -0.146138E-06  0.116E-03    0.19      17.3  T
   8    -42.6209494 -0.101246E-07  0.617E-04    0.19      32.4  T
   9    -42.6209494 -0.409271E-08  0.117E-04    0.19     171.0  T
     SCC iter.                  ...        0 min,  0.012 sec
     gradient                   ...        0 min,  0.014 sec
 * total energy  :   -42.1006693 Eh     change       -0.6003747E-03 Eh
   gradient norm :     0.0220681 Eh/α   predicted    -0.5931387E-03 (  -1.21%)
   displ. norm   :     0.1527364 α      lambda       -0.8218189E-03
   maximum displ.:     0.0713151 α      in ANC's #1, #4, #32, ...

........................................................................
.............................. CYCLE   42 ..............................
........................................................................

 iter      E             dE          RMSdq      gap      omega  full diag
   1    -42.6225666 -0.426226E+02  0.901E-02    0.18       0.0  T
   2    -42.6225516  0.149292E-04  0.571E-02    0.17       1.0  T
   3    -42.6223687  0.182900E-03  0.941E-02    0.19       1.0  T
   4    -42.6225676 -0.198862E-03  0.206E-02    0.18       1.0  T
   5    -42.6225792 -0.116350E-04  0.342E-03    0.18       5.8  T
   6    -42.6225795 -0.239508E-06  0.172E-03    0.18      11.6  T
   7    -42.6225795 -0.348453E-07  0.106E-03    0.18      18.9  T
   8    -42.6225795 -0.225617E-07  0.284E-04    0.18      70.5  T
   9    -42.6225795 -0.177507E-08  0.888E-05    0.18     225.3  T
     SCC iter.                  ...        0 min,  0.012 sec
     gradient                   ...        0 min,  0.014 sec
 * total energy  :   -42.1013042 Eh     change       -0.6349087E-03 Eh
   gradient norm :     0.0236344 Eh/α   predicted    -0.4204963E-03 ( -33.77%)
   displ. norm   :     0.4189851 α      lambda       -0.1636953E-02
   maximum displ.:     0.2041873 α      in ANC's #32, #3, #4, ...
 * RMSD in coord.:     0.7231876 α      energy gain  -0.1018046E+00 Eh

generating ANC from model Hessian ...
Using Lindh-Hessian (1995)
 Shifting diagonal of input Hessian by    1.2622855496618384E-002
 Lowest  eigenvalues of input Hessian
    0.010000    0.010087    0.000000    0.000000    0.000000    0.000000
    0.000000    0.000000    0.015357    0.016623    0.018477    0.021101
    0.022825    0.024756    0.026450    0.027876    0.030771    0.036532
 Highest eigenvalues
    2.133548    2.201727    2.225996    2.400903    2.504661    4.909020


........................................................................
.............................. CYCLE   43 ..............................
........................................................................

 iter      E             dE          RMSdq      gap      omega  full diag
   1    -42.6215890 -0.426216E+02  0.303E-01    0.16       0.0  T
   2    -42.6207105  0.878437E-03  0.234E-01    0.14       1.0  T
   3    -42.6196337  0.107680E-02  0.321E-01    0.23       1.0  T
   4    -42.6217274 -0.209362E-02  0.334E-02    0.14       1.0  T
   5    -42.6217679 -0.405013E-04  0.671E-03    0.14       3.0  T
   6    -42.6217693 -0.140137E-05  0.322E-03    0.14       6.2  T
   7    -42.6217694 -0.167349E-06  0.147E-03    0.14      13.6  T
   8    -42.6217695 -0.208298E-07  0.569E-04    0.14      35.2  T
   9    -42.6217695 -0.436113E-08  0.174E-04    0.14     114.8  T
     SCC iter.                  ...        0 min,  0.012 sec
     gradient                   ...        0 min,  0.013 sec
 * total energy  :   -42.1020627 Eh     change       -0.7585056E-03 Eh
   gradient norm :     0.0315146 Eh/α   predicted     0.0000000E+00 (-100.00%)
   displ. norm   :     0.1321356 α      lambda       -0.9680357E-03
   maximum displ.:     0.0818275 α      in ANC's #5, #8, #7, ...

........................................................................
.............................. CYCLE   44 ..............................
........................................................................

 iter      E             dE          RMSdq      gap      omega  full diag
   1    -42.6241177 -0.426241E+02  0.972E-02    0.13       0.0  T
   2    -42.6241247 -0.705648E-05  0.578E-02    0.13       1.0  T
   3    -42.6240744  0.503199E-04  0.461E-02    0.12       1.0  T
   4    -42.6241003 -0.258492E-04  0.317E-02    0.14       1.0  T
   5    -42.6241275 -0.272002E-04  0.668E-03    0.13       3.0  T
   6    -42.6241284 -0.933597E-06  0.206E-03    0.13       9.7  T
   7    -42.6241285 -0.726571E-07  0.123E-03    0.13      16.2  T
   8    -42.6241285 -0.245462E-07  0.397E-04    0.13      50.4  T
   9    -42.6241285 -0.265518E-08  0.105E-04    0.13     190.0  T
     SCC iter.                  ...        0 min,  0.012 sec
     gradient                   ...        0 min,  0.014 sec
 * total energy  :   -42.1027684 Eh     change       -0.7056969E-03 Eh
   gradient norm :     0.0079733 Eh/α   predicted    -0.4936152E-03 ( -30.05%)
   displ. norm   :     0.2337200 α      lambda       -0.6927102E-03
   maximum displ.:     0.1523927 α      in ANC's #5, #8, #2, ...

........................................................................
.............................. CYCLE   45 ..............................
........................................................................

 iter      E             dE          RMSdq      gap      omega  full diag
   1    -42.6252227 -0.426252E+02  0.159E-01    0.11       0.0  T
   2    -42.6252325 -0.977202E-05  0.922E-02    0.11       1.0  T
   3    -42.6251771  0.553757E-04  0.504E-02    0.11       1.0  T
   4    -42.6252215 -0.444036E-04  0.257E-02    0.10       1.0  T
   5    -42.6252339 -0.124317E-04  0.117E-02    0.11       1.7  T
   6    -42.6252380 -0.411650E-05  0.217E-03    0.11       9.2  T
   7    -42.6252381 -0.104599E-06  0.998E-04    0.11      20.0  T
   8    -42.6252381 -0.106664E-07  0.401E-04    0.11      49.9  T
     SCC iter.                  ...        0 min,  0.011 sec
     gradient                   ...        0 min,  0.013 sec
 * total energy  :   -42.1032723 Eh     change       -0.5039329E-03 Eh
   gradient norm :     0.0127772 Eh/α   predicted    -0.3653565E-03 ( -27.50%)
   displ. norm   :     0.2748054 α      lambda       -0.4598095E-03
   maximum displ.:     0.1870428 α      in ANC's #5, #8, #2, ...

........................................................................
.............................. CYCLE   46 ..............................
........................................................................

 iter      E             dE          RMSdq      gap      omega  full diag
   1    -42.6242818 -0.426243E+02  0.178E-01    0.09       0.0  T
   2    -42.6242860 -0.419911E-05  0.104E-01    0.09       1.0  T
   3    -42.6242227  0.633414E-04  0.487E-02    0.09       1.0  T
   4    -42.6242862 -0.634987E-04  0.136E-02    0.09       1.5  T
   5    -42.6242879 -0.177902E-05  0.102E-02    0.09       2.0  T
   6    -42.6242909 -0.296914E-05  0.159E-03    0.09      12.6  T
   7    -42.6242909 -0.125265E-07  0.102E-03    0.09      19.6  T
   8    -42.6242909 -0.133204E-07  0.357E-04    0.09      56.1  T
   9    -42.6242909 -0.193120E-08  0.113E-04    0.09     177.0  T
     SCC iter.                  ...        0 min,  0.012 sec
     gradient                   ...        0 min,  0.014 sec
 * total energy  :   -42.1035702 Eh     change       -0.2979087E-03 Eh
   gradient norm :     0.0145331 Eh/α   predicted    -0.2472669E-03 ( -17.00%)
   displ. norm   :     0.2734670 α      lambda        0.1185455E-03
   maximum displ.:     0.1861323 α      in ANC's #5, #8, #2, ...

........................................................................
.............................. CYCLE   47 ..............................
........................................................................

 iter      E             dE          RMSdq      gap      omega  full diag
   1    -42.6210133 -0.426210E+02  0.176E-01    0.07       0.0  T
   2    -42.6210147 -0.130342E-05  0.104E-01    0.08       1.0  T
   3    -42.6208102  0.204447E-03  0.781E-02    0.05       1.0  T
   4    -42.6209961 -0.185875E-03  0.333E-02    0.08       1.0  T
   5    -42.6210226 -0.265324E-04  0.582E-03    0.07       3.4  T
   6    -42.6210238 -0.117642E-05  0.253E-03    0.07       7.9  T
   7    -42.6210239 -0.654501E-07  0.116E-03    0.07      17.2  T
   8    -42.6210239 -0.169155E-07  0.403E-04    0.07      49.6  T
   9    -42.6210239 -0.252454E-08  0.192E-04    0.07     104.4  T
     SCC iter.                  ...        0 min,  0.012 sec
     gradient                   ...        0 min,  0.014 sec
 * total energy  :   -42.1034057 Eh     change        0.1645013E-03 Eh
   gradient norm :     0.0254193 Eh/α   predicted     0.6370156E-04 ( -61.28%)
   displ. norm   :     0.1105083 α      lambda       -0.6170262E-03
   maximum displ.:     0.0644323 α      in ANC's #5, #8, #7, ...

........................................................................
.............................. CYCLE   48 ..............................
........................................................................

 iter      E             dE          RMSdq      gap      omega  full diag
   1    -42.6249292 -0.426249E+02  0.907E-02    0.08       0.0  T
   2    -42.6249211  0.810542E-05  0.553E-02    0.09       1.0  T
   3    -42.6247484  0.172609E-03  0.912E-02    0.07       1.0  T
   4    -42.6249264 -0.177988E-03  0.179E-02    0.09       1.1  T
   5    -42.6249357 -0.924607E-05  0.735E-03    0.08       2.7  T
   6    -42.6249373 -0.164038E-05  0.227E-03    0.08       8.8  T
   7    -42.6249374 -0.552450E-07  0.121E-03    0.08      16.5  T
   8    -42.6249374 -0.246642E-07  0.274E-04    0.08      72.9  T
   9    -42.6249374 -0.100348E-08  0.776E-05    0.08     257.7  T
     SCC iter.                  ...        0 min,  0.012 sec
     gradient                   ...        0 min,  0.013 sec
 * total energy  :   -42.1037294 Eh     change       -0.3236949E-03 Eh
   gradient norm :     0.0071618 Eh/α   predicted    -0.3123887E-03 (  -3.49%)
   displ. norm   :     0.0616376 α      lambda       -0.7982181E-04
   maximum displ.:     0.0329538 α      in ANC's #5, #2, #10, ...

........................................................................
.............................. CYCLE   49 ..............................
........................................................................

 iter      E             dE          RMSdq      gap      omega  full diag
   1    -42.6258302 -0.426258E+02  0.263E-02    0.08       0.0  T
   2    -42.6258098  0.203963E-04  0.325E-02    0.09       1.0  T
   3    -42.6258297 -0.199225E-04  0.179E-02    0.08       1.1  T
   4    -42.6258343 -0.457430E-05  0.471E-03    0.08       4.2  T
   5    -42.6258346 -0.376563E-06  0.151E-03    0.08      13.2  T
   6    -42.6258347 -0.550771E-07  0.511E-04    0.08      39.2  T
   7    -42.6258347 -0.163862E-08  0.336E-04    0.08      59.6  T
     SCC iter.                  ...        0 min,  0.010 sec
     gradient                   ...        0 min,  0.013 sec
 * total energy  :   -42.1037936 Eh     change       -0.6422544E-04 Eh
   gradient norm :     0.0047067 Eh/α   predicted    -0.4025061E-04 ( -37.33%)
   displ. norm   :     0.1775505 α      lambda       -0.1298503E-03
   maximum displ.:     0.1055470 α      in ANC's #5, #2, #10, ...

........................................................................
.............................. CYCLE   50 ..............................
........................................................................

 iter      E             dE          RMSdq      gap      omega  full diag
   1    -42.6262011 -0.426262E+02  0.696E-02    0.07       0.0  T
   2    -42.6260975  0.103612E-03  0.768E-02    0.10       1.0  T
   3    -42.6261784 -0.809277E-04  0.502E-02    0.06       1.0  T
   4    -42.6262198 -0.414009E-04  0.847E-03    0.07       2.4  T
   5    -42.6262217 -0.187401E-05  0.201E-03    0.08      10.0  T
   6    -42.6262217 -0.680678E-07  0.107E-03    0.07      18.7  T
   7    -42.6262217  0.250233E-08  0.795E-04    0.08      25.1  T
   8    -42.6262218 -0.157073E-07  0.161E-04    0.07     124.5  T
     SCC iter.                  ...        0 min,  0.011 sec
     gradient                   ...        0 min,  0.014 sec
 * total energy  :   -42.1038793 Eh     change       -0.8569257E-04 Eh
   gradient norm :     0.0060727 Eh/α   predicted    -0.6698812E-04 ( -21.83%)
   displ. norm   :     0.1122872 α      lambda       -0.4922071E-04
   maximum displ.:     0.0688150 α      in ANC's #5, #2, #10, ...

[...]
H            3.86929098871052        1.23494839611248        1.00590665458989
H            3.97435493142420        1.22534779233477       -0.76312240800476
H            2.71284599865065        2.18464621001638        0.04620586379086
H            3.70076102795108       -1.52869744416682        0.05013013053451
H           -1.64280313821944        3.06449519167735       -0.07373556895241
H           -2.78685318405400        2.03686658644170       -0.98187907587191
H           -2.83666590601723        2.05161882586676        0.78614063919952
H           -0.70181980074642       -3.43710043724428       -0.07381499648346
H           -2.41920653866210       -2.67757233516974       -0.04815671795272
H           -4.20965075206204       -3.54731851993006        0.30326552264413
H            1.56802095050725       -2.90763618484045       -0.01101367934196

 Bond Distances (Angstroems)
 ---------------------------
C1-N2=1.4390         C1-H15=1.0903        C1-H16=1.0897        C1-H17=1.0895        N2-C1=1.4390         N2-C3=1.3285         
N2-C6=1.3742         C3-N2=1.3285         C3-N4=1.3492         C3-H18=1.0724        N4-C3=1.3492         N4-C5=1.3733         
N4-H25=1.0095        C5-N4=1.3733         C5-C6=1.3901         C5-N13=1.3532        C6-N2=1.3742         C6-C5=1.3901         
C6-C7=1.4461         C7-C6=1.4461         C7-O8=1.2099         C7-N9=1.3999         O8-C7=1.2099         N9-C7=1.3999         
N9-C10=1.4601        N9-C11=1.3670        C10-N9=1.4601        C10-H19=1.0869       C10-H20=1.0890       C10-H21=1.0890       
C11-N9=1.3670        C11-O12=1.1964       C11-N13=1.4589       O12-C11=1.1964       N13-C5=1.3532        N13-C11=1.4589       
N13-C14=1.3423       C14-N13=1.3423       C14-H22=1.0708       C14-H23=1.0821       H15-C1=1.0903        H16-C1=1.0897        
H17-C1=1.0895        H18-C3=1.0724        H19-C10=1.0869       H20-C10=1.0890       H21-C10=1.0890       H22-C14=1.0708       
H23-C14=1.0821       H25-N4=1.0095        
 C  H  Rav=1.0844 sigma=0.0072  Rmin=1.0708  Rmax=1.0903     9
 C  C  Rav=1.4181 sigma=0.0280  Rmin=1.3901  Rmax=1.4461     2
 N  H  Rav=1.0095 sigma=0.0000  Rmin=1.0095  Rmax=1.0095     1
 N  C  Rav=1.3860 sigma=0.0448  Rmin=1.3285  Rmax=1.4601    11
 O  C  Rav=1.2031 sigma=0.0068  Rmin=1.1964  Rmax=1.2099     2

 selected bond angles (degree)
 --------------------
H15-C1-N2=110.25               H16-C1-N2=110.36               H16-C1-H15=108.77              H17-C1-N2=108.68               
H17-C1-H15=109.28              H17-C1-H16=109.49              C3-N2-C1=126.64                C6-N2-C1=125.32                
C6-N2-C3=108.04                N4-C3-N2=110.08                H18-C3-N2=125.23               H18-C3-N4=124.68               
C5-N4-C3=107.83                H25-N4-C3=125.09               H25-N4-C5=127.08               C6-C5-N4=106.74                
N13-C5-N4=129.57               N13-C5-C6=123.70               C5-C6-N2=107.32                C7-C6-N2=130.31                
C7-C6-C5=122.37                O8-C7-C6=126.00                N9-C7-C6=111.10                N9-C7-O8=122.91                
C10-N9-C7=117.07               C11-N9-C7=128.65               C11-N9-C10=114.28              H19-C10-N9=108.01              
H20-C10-N9=109.71              H20-C10-H19=110.33             H21-C10-N9=109.83              H21-C10-H19=110.35             
H21-C10-H20=108.61             

 selected dihedral angles (degree)
 ---------------------------------
C3-N2-C1-H15=298.20           C3-N2-C1-H16= 58.37           C3-N2-C1-H17=178.44           C6-N2-C1-H15=117.34           
C6-N2-C1-H16=237.52           C6-N2-C1-H17=357.59           N4-C3-N2-C1=179.26            N4-C3-N2-C6=  0.00            
H18-C3-N2-C1=359.16           H18-C3-N2-C6=179.90           C5-N4-C3-N2=359.98            C5-N4-C3-H18=180.07           
H25-N4-C3-N2=180.00           H25-N4-C3-H18=  0.10          C6-C5-N4-C3=  0.04            C6-C5-N4-H25=180.01           
N13-C5-N4-C3=180.49           N13-C5-N4-H25=  0.46          C5-C6-N2-C1=180.75            C5-C6-N2-C3=  0.03            
C7-C6-N2-C1=  1.14            C7-C6-N2-C3=180.42            N2-C6-C5-N4=359.95            N2-C6-C5-N13=179.54           
C7-C6-C5-N4=179.60            C7-C6-C5-N13=359.19           O8-C7-C6-N2=  0.00            O8-C7-C6-C5=180.42            
N9-C7-C6-N2=179.88            N9-C7-C6-C5=  0.32            C10-N9-C7-C6=180.63           C10-N9-C7-O8=  0.54           
C11-N9-C7-C6=  0.80           C11-N9-C7-O8=180.71           H19-C10-N9-C7=  0.05          H19-C10-N9-C11=179.90         
H20-C10-N9-C7=120.34          H20-C10-N9-C11=300.20         H21-C10-N9-C7=239.65          H21-C10-N9-C11= 59.50         
           -------------------------------------------------
          |                Final Singlepoint                |
           -------------------------------------------------

          ...................................................
          :                      SETUP                      :
          :.................................................:
          :  # basis functions                  67          :
          :  # atomic orbitals                  67          :
          :  # shells                           39          :
          :  # electrons                        74          :
          :  max. iterations                   250          :
          :  Hamiltonian                  GFN2-xTB          :
          :  restarted?                      false          :
          :  GBSA solvation                  false          :
          :  PC potential                    false          :
          :  electronic temp.         5000.0000000     K    :
          :  accuracy                    1.0000000          :
          :  -> integral cutoff          0.2500000E+02      :
          :  -> integral neglect         0.1000000E-07      :
          :  -> SCF convergence          0.1000000E-05 Eh   :
          :  -> wf. convergence          0.1000000E-03 e    :
          :  Broyden damping             0.4000000          :
          ...................................................

 iter      E             dE          RMSdq      gap      omega  full diag
   1    -42.6262627 -0.426263E+02  0.891E-05    0.07       0.0  T
   2    -42.6262627  0.252022E-09  0.114E-04    0.07     175.2  T
   3    -42.6262627 -0.296190E-09  0.637E-05    0.07     313.9  T

   *** convergence criteria satisfied after 3 iterations ***

         #    Occupation            Energy/Eh            Energy/eV
      -------------------------------------------------------------
         1        2.0000           -0.9170159             -24.9533
       ...           ...                  ...                  ...
        31        1.9997           -0.6197892             -16.8653
        32        1.9987           -0.5989862             -16.2992
        33        1.9976           -0.5893403             -16.0368
        34        1.9969           -0.5851708             -15.9233
        35        1.9882           -0.5640360             -15.3482
        36        1.9874           -0.5629881             -15.3197
        37        0.9986           -0.4827534             -13.1364 (HOMO)
        38        0.9203           -0.4802677             -13.0687 (LUMO)
        39        0.1008           -0.4363153             -11.8727
        40        0.0103           -0.3994891             -10.8707
        41        0.0020           -0.3733076             -10.1582
        42        0.0000           -0.2884549              -7.8493
       ...           ...                  ...                  ...
        67                          0.5568049              15.1514
      -------------------------------------------------------------
                  HL-Gap            0.0024857 Eh            0.0676 eV
             Fermi-level           -0.4827978 Eh          -13.1376 eV

 SCC (total)                   0 d,  0 h,  0 min,  0.024 sec
 SCC setup                      ...        0 min,  0.000 sec (  0.864%)
 Dispersion                     ...        0 min,  0.000 sec (  0.788%)
 classical contributions        ...        0 min,  0.000 sec (  0.306%)
 integral evaluation            ...        0 min,  0.005 sec ( 19.675%)
 iterations                     ...        0 min,  0.005 sec ( 20.454%)
 molecular gradient             ...        0 min,  0.014 sec ( 57.342%)
 printout                       ...        0 min,  0.000 sec (  0.517%)

         :::::::::::::::::::::::::::::::::::::::::::::::::::::
         ::                     SUMMARY                     ::
         :::::::::::::::::::::::::::::::::::::::::::::::::::::
         :: total energy             -42.103957738299 Eh    ::
         :: gradient norm              0.001406828803 Eh/a0 ::
         :: HOMO-LUMO gap              0.067640383916 eV    ::
         ::.................................................::
         :: SCC energy               -42.626262666252 Eh    ::
         :: -> isotropic ES            0.138981955511 Eh    ::
         :: -> anisotropic ES         -0.005089389986 Eh    ::
         :: -> anisotropic XC          0.012485191192 Eh    ::
         :: -> dispersion             -0.022783549522 Eh    ::
         :: repulsion energy           0.522229775769 Eh    ::
         :: add. restraining           0.000000418236 Eh    ::
         :: total charge               1.000000000000 e     ::
         :::::::::::::::::::::::::::::::::::::::::::::::::::::

           -------------------------------------------------
          |                Property Printout                |
           -------------------------------------------------

    * Orbital Energies and Occupations

         #    Occupation            Energy/Eh            Energy/eV
      -------------------------------------------------------------
         1        2.0000           -0.9170159             -24.9533
       ...           ...                  ...                  ...
        25        2.0000           -0.6689635             -18.2034
        26        2.0000           -0.6684024             -18.1882
        27        2.0000           -0.6597370             -17.9524
        28        1.9999           -0.6356252             -17.2962
        29        1.9998           -0.6328091             -17.2196
        30        1.9998           -0.6283515             -17.0983
        31        1.9997           -0.6197892             -16.8653
        32        1.9987           -0.5989862             -16.2992
        33        1.9976           -0.5893403             -16.0368
        34        1.9969           -0.5851708             -15.9233
        35        1.9882           -0.5640360             -15.3482
        36        1.9874           -0.5629881             -15.3197
        37        0.9986           -0.4827534             -13.1364 (HOMO)
        38        0.9203           -0.4802677             -13.0687 (LUMO)
        39        0.1008           -0.4363153             -11.8727
        40        0.0103           -0.3994891             -10.8707
        41        0.0020           -0.3733076             -10.1582
        42        0.0000           -0.2884549              -7.8493
        43                         -0.2130855              -5.7984
        44                         -0.2010485              -5.4708
        45                         -0.1508654              -4.1053
        46                         -0.1345698              -3.6618
        47                         -0.0673650              -1.8331
        48                         -0.0400773              -1.0906
       ...                                ...                  ...
        67                          0.5568049              15.1514
      -------------------------------------------------------------
                  HL-Gap            0.0024857 Eh            0.0676 eV
             Fermi-level           -0.4827978 Eh          -13.1376 eV

     #   Z          covCN         q      C6AA      α(0)
     1   6 C        3.691    -0.097    22.539     6.793
     2   7 N        2.831     0.084    19.776     6.605
     3   6 C        3.051     0.054    26.746     8.482
     4   7 N        2.789    -0.057    22.342     7.020
     5   6 C        3.039     0.093    25.909     8.349
     6   6 C        3.113    -0.016    28.260     8.708
     7   6 C        2.763     0.267    22.499     7.768
     8   8 O        0.858    -0.366    21.015     6.146
     9   7 N        2.744    -0.079    22.775     7.088
    10   6 C        3.714    -0.064    21.864     6.681
    11   6 C        2.734     0.311    21.719     7.630
    12   8 O        0.859    -0.339    20.497     6.070
    13   7 N        2.735     0.009    21.103     6.823
    14   6 C        2.797    -0.058    29.436     8.888
    15   1 H        0.924     0.109     1.708     2.044
    16   1 H        0.925     0.108     1.713     2.047
    17   1 H        0.925     0.139     1.466     1.893
    18   1 H        0.926     0.127     1.554     1.950
    19   1 H        0.925     0.116     1.645     2.005
    20   1 H        0.925     0.098     1.804     2.100
    21   1 H        0.925     0.099     1.795     2.095
    22   1 H        0.926     0.086     1.921     2.167
    23   1 H        0.925     0.133     1.509     1.921
    24   1 H        0.000     0.014     7.031     4.849
    25   1 H        0.860     0.229     0.969     1.542

 Mol. C6AA /au·bohr⁶  :       6812.508724
 Mol. C8AA /au·bohr⁸  :     155526.167965
 Mol. α(0) /au        :        127.663664


Wiberg/Mayer (AO) data.
largest (>0.10) Wiberg bond orders for each atom

 ---------------------------------------------------------------------------
     #   Z sym  total        # sym  WBO       # sym  WBO       # sym  WBO
 ---------------------------------------------------------------------------
     1   6 C    3.912 --     2 N    0.984    16 H    0.960    17 H    0.959
                            15 H    0.958
     2   7 N    3.671 --     3 C    1.385     6 C    1.165     1 C    0.984
     3   6 C    3.840 --     2 N    1.385     4 N    1.288    18 H    0.952
     4   7 N    3.553 --     3 C    1.288     5 C    1.165    25 H    0.918
     5   6 C    3.884 --     6 C    1.338     4 N    1.165    13 N    1.165
     6   6 C    3.857 --     5 C    1.338     2 N    1.165     7 C    1.075
     7   6 C    3.916 --     8 O    1.674     9 N    1.080     6 C    1.075
     8   8 O    1.987 --     7 C    1.674     9 N    0.138
     9   7 N    3.569 --    11 C    1.170     7 C    1.080    10 C    0.963
                            12 O    0.152     8 O    0.138
    10   6 C    3.911 --    19 H    0.968    20 H    0.966    21 H    0.966
                             9 N    0.963
    11   6 C    3.924 --    12 O    1.726     9 N    1.170    13 N    0.933
    12   8 O    2.054 --    11 C    1.726     9 N    0.152
    13   7 N    3.622 --    14 C    1.300     5 C    1.165    11 C    0.933
    14   6 C    3.315 --    13 N    1.300    22 H    0.969    23 H    0.934
    15   1 H    0.985 --     1 C    0.958
    16   1 H    0.985 --     1 C    0.960
    17   1 H    0.980 --     1 C    0.959
    18   1 H    0.983 --     3 C    0.952
    19   1 H    0.985 --    10 C    0.968
    20   1 H    0.987 --    10 C    0.966
    21   1 H    0.986 --    10 C    0.966
    22   1 H    0.991 --    14 C    0.969
    23   1 H    0.981 --    14 C    0.934
    24   1 H    0.028
    25   1 H    0.947 --     4 N    0.918
 ---------------------------------------------------------------------------

Topologies differ in total number of bonds
Writing topology from bond orders to xtbtopo.mol

molecular dipole:
                 x           y           z       tot (Debye)
 q only:        2.727      -1.811       0.020
   full:        3.022      -2.387       0.022       9.790
molecular quadrupole (traceless):
                xx          xy          yy          xz          yz          zz
 q only:       15.597      -6.883       3.204       0.688      -0.037     -18.801
  q+dip:       13.814     -10.062       2.996       0.501      -0.064     -16.810
   full:       12.629      -9.995       2.029       0.494      -0.077     -14.658

           -------------------------------------------------
          |                Geometry Summary                 |
           -------------------------------------------------

      molecular mass/u    :      195.1988581
   center of mass at/Å    :        0.0960856       0.0178656      -0.0133435
  moments of inertia/u·Å² :        0.4766982E+03   0.7333723E+03   0.1203335E+04
rotational constants/cm⁻¹ :        0.3536332E-01   0.2298646E-01   0.1400909E-01

 * 24 selected distances

     #   Z          #   Z                                           value/Å
     1   6 C        2   7 N                                       1.4389957
     2   7 N        3   6 C                                       1.3285402
     3   6 C        4   7 N                                       1.3491698
     4   7 N        5   6 C                                       1.3733339
     2   7 N        6   6 C                                       1.3741938
     5   6 C        6   6 C                                       1.3901253
     6   6 C        7   6 C                                       1.4460624
     7   6 C        8   8 O                                       1.2099147
     7   6 C        9   7 N                                       1.3999078
     9   7 N       10   6 C                                       1.4600989 (max)
     9   7 N       11   6 C                                       1.3669512
    11   6 C       12   8 O                                       1.1963521
     5   6 C       13   7 N                                       1.3532212
    13   7 N       14   6 C                                       1.3422758
     1   6 C       15   1 H                                       1.0902738
     1   6 C       16   1 H                                       1.0897202
     1   6 C       17   1 H                                       1.0894977
     3   6 C       18   1 H                                       1.0724370
    10   6 C       19   1 H                                       1.0869420
    10   6 C       20   1 H                                       1.0889701
    10   6 C       21   1 H                                       1.0890176
    14   6 C       22   1 H                                       1.0708030
    14   6 C       23   1 H                                       1.0821176
     4   7 N       25   1 H                                       1.0095398 (min)

 * 5 distinct bonds (by element types)

   Z      Z             #   av. dist./Å        max./Å        min./Å
   1 H    6 C           9     1.0844199     1.0902738     1.0708030
   6 C    6 C           2     1.4180938     1.4460624     1.3901253
   1 H    7 N           1     1.0095398     1.0095398     1.0095398
   6 C    7 N          10     1.3786688     1.4600989     1.3285402
   6 C    8 O           2     1.2031334     1.2099147     1.1963521


optimized geometry written to: xtbopt.xyz


           -------------------------------------------------
          | TOTAL ENERGY              -42.103957738299 Eh   |
          | GRADIENT NORM               0.001406828803 Eh/α |
          | HOMO-LUMO GAP               0.067640383916 eV   |
           -------------------------------------------------

------------------------------------------------------------------------
 * finished run on 2024/06/05 at 19:59:21.119     
------------------------------------------------------------------------
 total:
 * wall-time:     0 d,  0 h,  0 min,  1.804 sec
 *  cpu-time:     0 d,  0 h,  0 min,  1.776 sec
 * ratio c/w:     0.984 speedup
 SCF:
 * wall-time:     0 d,  0 h,  0 min,  0.037 sec
 *  cpu-time:     0 d,  0 h,  0 min,  0.037 sec
 * ratio c/w:     1.000 speedup
 ANC optimizer:
 * wall-time:     0 d,  0 h,  0 min,  1.732 sec
 *  cpu-time:     0 d,  0 h,  0 min,  1.727 sec
 * ratio c/w:     0.997 speedup

