      -----------------------------------------------------------      
     |                   =====================                   |     
     |                           x T B                           |     
     |                   =====================                   |     
     |                         S. Grimme                         |     
     |          Mulliken Center for Theoretical Chemistry        |     
     |                    University of Bonn                     |     
      -----------------------------------------------------------      

   * xtb version 6.6.1 (8d0f1dd) compiled by 'conda@1efc2f54142f' on 2023-08-01

   xtb is free software: you can redistribute it and/or modify it under
   the terms of the GNU Lesser General Public License as published by
   the Free Software Foundation, either version 3 of the License, or
   (at your option) any later version.
   
   xtb is distributed in the hope that it will be useful,
   but WITHOUT ANY WARRANTY; without even the implied warranty of
   MERCHANTABILITY or FITNESS FOR A PARTICULAR PURPOSE.  See the
   GNU Lesser General Public License for more details.
   
   Cite this work as:
   * C. Bannwarth, E. Caldeweyher, S. Ehlert, A. Hansen, P. Pracht,
     J. Seibert, S. Spicher, S. Grimme, WIREs Comput. Mol. Sci., 2020, 11,
     e01493. DOI: 10.1002/wcms.1493
   
   for GFN2-xTB:
   * C. Bannwarth, S. Ehlert and S. Grimme., J. Chem. Theory Comput., 2019,
     15, 1652-1671. DOI: 10.1021/acs.jctc.8b01176
   for GFN1-xTB:
   * S. Grimme, C. Bannwarth, P. Shushkov, J. Chem. Theory Comput., 2017,
     13, 1989-2009. DOI: 10.1021/acs.jctc.7b00118
   for GFN0-xTB:
   * P. Pracht, E. Caldeweyher, S. Ehlert, S. Grimme, ChemRxiv, 2019, preprint.
     DOI: 10.26434/chemrxiv.8326202.v1
   for GFN-FF:
   * S. Spicher and S. Grimme, Angew. Chem. Int. Ed., 2020, 59, 15665-15673.
     DOI: 10.1002/anie.202004239
   
   for ALPB and GBSA implicit solvation:
   * S. Ehlert, M. Stahn, S. Spicher, S. Grimme, J. Chem. Theory Comput.,
     2021, 17, 4250-4261. DOI: 10.1021/acs.jctc.1c00471
   
   for DFT-D4:
   * E. Caldeweyher, C. Bannwarth and S. Grimme, J. Chem. Phys., 2017,
     147, 034112. DOI: 10.1063/1.4993215
   * E. Caldeweyher, S. Ehlert, A. Hansen, H. Neugebauer, S. Spicher,
     C. Bannwarth and S. Grimme, J. Chem. Phys., 2019, 150, 154122.
     DOI: 10.1063/1.5090222
   * E. Caldeweyher, J.-M. Mewes, S. Ehlert and S. Grimme, Phys. Chem. Chem. Phys.
     2020, 22, 8499-8512. DOI: 10.1039/D0CP00502A
   
   for sTDA-xTB:
   * S. Grimme and C. Bannwarth, J. Chem. Phys., 2016, 145, 054103.
     DOI: 10.1063/1.4959605
   
   in the mass-spec context:
   * V. Asgeirsson, C. Bauer and S. Grimme, Chem. Sci., 2017, 8, 4879.
     DOI: 10.1039/c7sc00601b
   * J. Koopman and S. Grimme, ACS Omega 2019, 4, 12, 15120-15133.
     DOI: 10.1021/acsomega.9b02011
   
   for metadynamics refer to:
   * S. Grimme, J. Chem. Theory Comput., 2019, 155, 2847-2862
     DOI: 10.1021/acs.jctc.9b00143
   
   for SPH calculations refer to:
   * S. Spicher and S. Grimme, J. Chem. Theory Comput., 2021, 17, 1701-1714
     DOI: 10.1021/acs.jctc.0c01306
   
   with help from (in alphabetical order)
   P. Atkinson, C. Bannwarth, F. Bohle, G. Brandenburg, E. Caldeweyher
   M. Checinski, S. Dohm, S. Ehlert, S. Ehrlich, I. Gerasimov, C. Hölzer
   A. Katbashev, J. Koopman, C. Lavigne, S. Lehtola, F. März, M. Müller,
   F. Musil, H. Neugebauer, J. Pisarek, C. Plett, P. Pracht, F. Pultar,
   J. Seibert, P. Shushkov, S. Spicher, M. Stahn, M. Steiner, T. Strunk,
   J. Stückrath, T. Rose, and J. Unsleber
   
 * started run on 2024/06/05 at 19:57:59.379     

           -------------------------------------------------
          |                Calculation Setup                |
           -------------------------------------------------

          program call               : xtb xtbopt.xyz --opt crude --input .xc2 --gfn2
          hostname                   : n-62-21-71
          coordinate file            : xtbopt.xyz
          omp threads                :                     1

   ID    Z sym.   atoms
    1    6 C      1, 3, 5-7, 10, 11, 14
    2    7 N      2, 4, 9, 13
    3    8 O      8, 12
    4    1 H      15-25
########################################################################
[WARNING] Please study the warnings concerning your input carefully
-1- readin_getIntValue: could not parse ''
########################################################################

           -------------------------------------------------
          |                 G F N 2 - x T B                 |
           -------------------------------------------------

        Reference                      10.1021/acs.jctc.8b01176
      * Hamiltonian:
        H0-scaling (s, p, d)           1.850000    2.230000    2.230000
        zeta-weighting                 0.500000
      * Dispersion:
        s8                             2.700000
        a1                             0.520000
        a2                             5.000000
        s9                             5.000000
      * Repulsion:
        kExp                           1.500000    1.000000
        rExp                           1.000000
      * Coulomb:
        alpha                          2.000000
        third order                    shell-resolved
        anisotropic                    true
        a3                             3.000000
        a5                             4.000000
        cn-shift                       1.200000
        cn-exp                         4.000000
        max-rad                        5.000000

q/qsh data taken from xtbrestart
CAMM data taken from xtbrestart

          ...................................................
          :                      SETUP                      :
          :.................................................:
          :  # basis functions                  67          :
          :  # atomic orbitals                  67          :
          :  # shells                           39          :
          :  # electrons                        74          :
          :  max. iterations                   250          :
          :  Hamiltonian                  GFN2-xTB          :
          :  restarted?                       true          :
          :  GBSA solvation                  false          :
          :  PC potential                    false          :
          :  electronic temp.         2500.0000000     K    :
          :  accuracy                    1.0000000          :
          :  -> integral cutoff          0.2500000E+02      :
          :  -> integral neglect         0.1000000E-07      :
          :  -> SCF convergence          0.1000000E-05 Eh   :
          :  -> wf. convergence          0.1000000E-03 e    :
          :  Broyden damping             0.4000000          :
          ...................................................

 iter      E             dE          RMSdq      gap      omega  full diag
   1    -42.3945593 -0.423946E+02  0.245E-05    0.97       0.0  T
   2    -42.3945593 -0.425615E-11  0.175E-05    0.97    1145.9  T
   3    -42.3945593 -0.449774E-11  0.103E-05    0.97    1950.3  T

   *** convergence criteria satisfied after 3 iterations ***

         #    Occupation            Energy/Eh            Energy/eV
      -------------------------------------------------------------
         1        2.0000           -0.9656262             -26.2760
       ...           ...                  ...                  ...
        31        2.0000           -0.6231237             -16.9561
        32        2.0000           -0.6194511             -16.8561
        33        2.0000           -0.5909286             -16.0800
        34        2.0000           -0.5907987             -16.0765
        35        2.0000           -0.5862700             -15.9532
        36        1.9922           -0.5426392             -14.7660
        37        1.8144           -0.5168546             -14.0643 (HOMO)
        38        0.1929           -0.4810899             -13.0911 (LUMO)
        39        0.0007           -0.4354215             -11.8484
        40        0.0000           -0.4002305             -10.8908
        41                         -0.3601743              -9.8008
        42                         -0.2624791              -7.1424
       ...                                ...                  ...
        67                          0.6053950              16.4736
      -------------------------------------------------------------
                  HL-Gap            0.0357648 Eh            0.9732 eV
             Fermi-level           -0.4988049 Eh          -13.5732 eV

 SCC (total)                   0 d,  0 h,  0 min,  0.025 sec
 SCC setup                      ...        0 min,  0.000 sec (  1.100%)
 Dispersion                     ...        0 min,  0.000 sec (  1.427%)
 classical contributions        ...        0 min,  0.000 sec (  0.366%)
 integral evaluation            ...        0 min,  0.006 sec ( 24.465%)
 iterations                     ...        0 min,  0.006 sec ( 22.058%)
 molecular gradient             ...        0 min,  0.013 sec ( 49.917%)
 printout                       ...        0 min,  0.000 sec (  0.613%)

         :::::::::::::::::::::::::::::::::::::::::::::::::::::
         ::                     SUMMARY                     ::
         :::::::::::::::::::::::::::::::::::::::::::::::::::::
         :: total energy             -41.908766227126 Eh    ::
         :: gradient norm              0.005054773774 Eh/a0 ::
         :: HOMO-LUMO gap              0.973208551441 eV    ::
         ::.................................................::
         :: SCC energy               -42.394559323792 Eh    ::
         :: -> isotropic ES            0.120136215132 Eh    ::
         :: -> anisotropic ES         -0.002145927103 Eh    ::
         :: -> anisotropic XC          0.023270370918 Eh    ::
         :: -> dispersion             -0.020866341361 Eh    ::
         :: repulsion energy           0.485557236738 Eh    ::
         :: add. restraining           0.000000000000 Eh    ::
         :: total charge               1.000000000000 e     ::
         :::::::::::::::::::::::::::::::::::::::::::::::::::::

      ----------------------------------------------------------- 
     |                   =====================                   |
     |                        A N C O P T                        |
     |                   =====================                   |
     |               Approximate Normal Coordinate               |
     |                Rational Function Optimizer                |
      ----------------------------------------------------------- 

          ...................................................
          :                      SETUP                      :
          :.................................................:
          :   optimization level             crude          :
          :   max. optcycles                   200          :
          :   ANC micro-cycles                  20          :
          :   degrees of freedom                69          :
          :.................................................:
          :   RF solver                   davidson          :
          :   write xtbopt.log                true          :
          :   linear?                        false          :
          :   energy convergence         0.5000000E-03 Eh   :
          :   grad. convergence          0.1000000E-01 Eh/α :
          :   maxmium RF displ.          1.0000000          :
          :   Hlow (freq-cutoff)         0.1000000E-01      :
          :   Hmax (freq-cutoff)         5.0000000          :
          :   S6 in model hess.         20.0000000          :
          ...................................................

generating ANC from model Hessian ...
Using Lindh-Hessian (1995)
 Shifting diagonal of input Hessian by    9.3376987022881566E-003
 Lowest  eigenvalues of input Hessian
    0.000000    0.000000    0.000000    0.000000    0.000000    0.000000
    0.010000    0.010514    0.011695    0.012848    0.015417    0.017706
    0.018609    0.020482    0.022384    0.024764    0.031415    0.033836
 Highest eigenvalues
    1.742973    1.826649    1.965739    2.088450    2.373904    2.792675


........................................................................
.............................. CYCLE    1 ..............................
........................................................................

 iter      E             dE          RMSdq      gap      omega  full diag
   1    -42.3945593 -0.423946E+02  0.116E-05    0.97       0.0  T
   2    -42.3945593  0.209823E-10  0.270E-05    0.97     740.6  T
   3    -42.3945593 -0.254730E-10  0.159E-06    0.97   12574.3  T
     SCC iter.                  ...        0 min,  0.005 sec
     gradient                   ...        0 min,  0.013 sec
 * total energy  :   -41.9087662 Eh     change       -0.7531753E-12 Eh
   gradient norm :     0.0050548 Eh/α   predicted     0.0000000E+00 (-100.00%)
   displ. norm   :     0.1002369 α      lambda       -0.2288596E-03
   maximum displ.:     0.0525007 α      in ANC's #2, #10, #6, ...

   *** GEOMETRY OPTIMIZATION CONVERGED AFTER 1 ITERATIONS ***

------------------------------------------------------------------------
 total energy gain   :        -0.0000000 Eh       -0.0000 kcal/mol
 total RMSD          :         0.0000001 a0        0.0000 Å
 total power (kW/mol):        -0.0000000 (step)   -0.0000 (real)
------------------------------------------------------------------------

 ANCopt (total)                0 d,  0 h,  0 min,  0.034 sec
 optimizer setup                ...        0 min,  0.000 sec (  1.020%)
 model hessian                  ...        0 min,  0.008 sec ( 23.611%)
 ANC generation                 ...        0 min,  0.001 sec (  2.535%)
 coordinate transformation      ...        0 min,  0.000 sec (  0.027%)
 single point calculation       ...        0 min,  0.023 sec ( 67.543%)
 optimization log               ...        0 min,  0.002 sec (  4.454%)
 hessian update                 ...        0 min,  0.000 sec (  0.005%)
 rational function              ...        0 min,  0.000 sec (  0.274%)

================
 final structure:
================
25
 xtb: 6.6.1 (8d0f1dd)
C            3.24252505544578        1.08642337848086       -0.54517401706467
N            2.28933498022715        0.14633494458179       -0.06196932416955
C            2.44915821762994       -0.95498528405686        0.84589666691053
N            1.47410336295273       -2.02176149829037        0.46696094527060
C            0.99611056944146       -0.86681905137358        1.13820656023408
C            0.94256311045885        0.20391129040030        0.10346670846791
C            0.03361390505254        1.08574203311240       -0.49009168788223
O            0.18726037170033        1.91512034495990       -1.34274519107940
N           -1.38725001949039        0.91351485376503        0.05423695430380
C           -1.92827274217210        2.03332680539353        0.80404350991399
C           -2.09731943871246       -0.06903333300923       -0.30686907342566
O           -3.30882301462243       -0.52919670637052       -0.19407140568135
N           -2.22928695061854       -1.15874602920012       -1.06804457443561
C           -1.78907800740279       -2.47528508993969       -0.72845934997609
H            3.69312120617531        1.65339159886778        0.27601625666226
H            4.03805387329992        0.55102456012362       -1.06655681709103
H            2.74749871134962        1.77673853963341       -1.22709825318089
H            3.35305103382319       -1.14885997835167        1.38799703288406
H           -1.71040822286137        2.94920876625256        0.25097174257689
H           -3.00584211917401        1.92227856116146        0.92657478574862
H           -1.44319959784685        2.07755444496899        1.78113927614005
H           -1.77501285991786       -2.66552856953680        0.34699620719850
H           -0.77718451633273       -2.56771727483799       -1.12709242078003
H           -2.44270236768172       -3.18694754881700       -1.23054256709944
H            1.60841697337507       -2.85145121631515        1.03737965345559

 Bond Distances (Angstroems)
 ---------------------------
C1-N2=1.4233         C1-H15=1.0949        C1-H16=1.0915        C1-H17=1.0893        N2-C1=1.4233         N2-C3=1.4362         
N2-C6=1.3581         C3-N2=1.4362         C3-N4=1.4941         C3-C5=1.4848         C3-H18=1.0717        N4-C3=1.4941         
N4-C5=1.4188         N4-H25=1.0158        C5-C3=1.4848         C5-N4=1.4188         C5-C6=1.4900         C6-N2=1.3581         
C6-C5=1.4900         C6-C7=1.3986         C7-C6=1.3986         C7-O8=1.1994         C7-N9=1.5313         O8-C7=1.1994         
N9-C7=1.5313         N9-C10=1.4522        N9-C11=1.2649        C10-N9=1.4522        C10-H19=1.0919       C10-H20=1.0902       
C10-H21=1.0918       C11-N9=1.2649        C11-O12=1.3009       C11-N13=1.3358       O12-C11=1.3009       O12-N13=1.5250       
N13-C11=1.3358       N13-O12=1.5250       N13-C14=1.4291       C14-N13=1.4291       C14-H22=1.0922       C14-H23=1.0915       
C14-H24=1.0889       H15-C1=1.0949        H16-C1=1.0915        H17-C1=1.0893        H18-C3=1.0717        H19-C10=1.0919       
H20-C10=1.0902       H21-C10=1.0918       H22-C14=1.0922       H23-C14=1.0915       H24-C14=1.0889       H25-N4=1.0158        
 C  H  Rav=1.0894 sigma=0.0061  Rmin=1.0717  Rmax=1.0949    10
 C  C  Rav=1.4578 sigma=0.0419  Rmin=1.3986  Rmax=1.4900     3
 N  H  Rav=1.0158 sigma=0.0000  Rmin=1.0158  Rmax=1.0158     1
 N  C  Rav=1.4144 sigma=0.0734  Rmin=1.2649  Rmax=1.5313    10
 O  C  Rav=1.2501 sigma=0.0507  Rmin=1.1994  Rmax=1.3009     2
 O  N  Rav=1.5250 sigma=0.0000  Rmin=1.5250  Rmax=1.5250     1

 selected bond angles (degree)
 --------------------
H15-C1-N2=111.28               H16-C1-N2=109.04               H16-C1-H15=108.20              H17-C1-N2=109.07               
H17-C1-H15=109.17              H17-C1-H16=110.06              C3-N2-C1=130.28                C6-N2-C1=132.65                
C6-N2-C3= 93.78                N4-C3-N2=108.33                C5-C3-N2= 88.28                C5-C3-N4= 56.88                
H18-C3-N2=123.53               H18-C3-N4=123.34               H18-C3-C5=137.44               C5-N4-C3= 61.23                
H25-N4-C3=110.76               H25-N4-C5=116.35               N4-C5-C3= 61.89                C6-C5-C3= 86.62                
C6-C5-N4=105.58                C5-C6-N2= 91.06                C7-C6-N2=128.28                C7-C6-C5=140.46                
O8-C7-C6=130.88                N9-C7-C6=112.41                N9-C7-O8=116.70                C10-N9-C7=116.26               
C11-N9-C7=120.45               C11-N9-C10=122.50              H19-C10-N9=108.12              H20-C10-N9=110.35              
H20-C10-H19=109.85             H21-C10-N9=109.14              H21-C10-H19=109.31             H21-C10-H20=110.04             

 selected dihedral angles (degree)
 ---------------------------------
C3-N2-C1-H15=300.20           C3-N2-C1-H16= 59.47           C3-N2-C1-H17=179.69           C6-N2-C1-H15= 94.09           
C6-N2-C1-H16=213.37           C6-N2-C1-H17=333.59           N4-C3-N2-C1=211.24            N4-C3-N2-C6= 50.17            
C5-C3-N2-C1=157.09            C5-C3-N2-C6=356.02            H18-C3-N2-C1=  7.31           H18-C3-N2-C6=206.24           
C5-N4-C3-N2=284.71            C5-N4-C3-H18=128.58           H25-N4-C3-N2=175.24           H25-N4-C3-C5=250.53           
H25-N4-C3-H18= 19.11          N4-C5-C3-N2=113.29            N4-C5-C3-H18=254.94           C6-C5-C3-N2=  3.62            
C6-C5-C3-N4=250.34            C6-C5-C3-H18=145.28           C3-C5-N4-H25=100.33           C6-C5-N4-C3= 77.40            
C6-C5-N4-H25=177.73           C5-C6-N2-C1=203.62            C5-C6-N2-C3=  3.96            C7-C6-N2-C1= 19.30            
C7-C6-N2-C3=179.64            N2-C6-C5-C3=356.17            N2-C6-C5-N4=296.60            C7-C6-C5-C3=181.50            
C7-C6-C5-N4=121.93            O8-C7-C6-N2=  6.48            O8-C7-C6-C5=179.68            N9-C7-C6-N2=185.40            
N9-C7-C6-C5=358.60            C10-N9-C7-C6=114.25           C10-N9-C7-O8=293.33           C11-N9-C7-C6=284.31           
C11-N9-C7-O8=103.39           H19-C10-N9-C7= 45.52          H19-C10-N9-C11=235.68         H20-C10-N9-C7=165.68          
H20-C10-N9-C11=355.84         H21-C10-N9-C7=286.72          H21-C10-N9-C11=116.88         
           -------------------------------------------------
          |                Final Singlepoint                |
           -------------------------------------------------

          ...................................................
          :                      SETUP                      :
          :.................................................:
          :  # basis functions                  67          :
          :  # atomic orbitals                  67          :
          :  # shells                           39          :
          :  # electrons                        74          :
          :  max. iterations                   250          :
          :  Hamiltonian                  GFN2-xTB          :
          :  restarted?                      false          :
          :  GBSA solvation                  false          :
          :  PC potential                    false          :
          :  electronic temp.         2500.0000000     K    :
          :  accuracy                    1.0000000          :
          :  -> integral cutoff          0.2500000E+02      :
          :  -> integral neglect         0.1000000E-07      :
          :  -> SCF convergence          0.1000000E-05 Eh   :
          :  -> wf. convergence          0.1000000E-03 e    :
          :  Broyden damping             0.4000000          :
          ...................................................

 iter      E             dE          RMSdq      gap      omega  full diag
   1    -42.3945593 -0.423946E+02  0.103E-06    0.97       0.0  T
   2    -42.3945593 -0.426326E-13  0.789E-07    0.97   25352.0  T
   3    -42.3945593  0.284217E-13  0.923E-07    0.97   21679.9  T

   *** convergence criteria satisfied after 3 iterations ***

         #    Occupation            Energy/Eh            Energy/eV
      -------------------------------------------------------------
         1        2.0000           -0.9656263             -26.2760
       ...           ...                  ...                  ...
        31        2.0000           -0.6231236             -16.9561
        32        2.0000           -0.6194511             -16.8561
        33        2.0000           -0.5909286             -16.0800
        34        2.0000           -0.5907987             -16.0765
        35        2.0000           -0.5862700             -15.9532
        36        1.9922           -0.5426392             -14.7660
        37        1.8144           -0.5168546             -14.0643 (HOMO)
        38        0.1929           -0.4810899             -13.0911 (LUMO)
        39        0.0007           -0.4354216             -11.8484
        40        0.0000           -0.4002305             -10.8908
        41                         -0.3601744              -9.8008
        42                         -0.2624791              -7.1424
       ...                                ...                  ...
        67                          0.6053950              16.4736
      -------------------------------------------------------------
                  HL-Gap            0.0357648 Eh            0.9732 eV
             Fermi-level           -0.4988049 Eh          -13.5732 eV

 SCC (total)                   0 d,  0 h,  0 min,  0.023 sec
 SCC setup                      ...        0 min,  0.000 sec (  0.806%)
 Dispersion                     ...        0 min,  0.000 sec (  0.824%)
 classical contributions        ...        0 min,  0.000 sec (  0.306%)
 integral evaluation            ...        0 min,  0.005 sec ( 21.315%)
 iterations                     ...        0 min,  0.005 sec ( 20.965%)
 molecular gradient             ...        0 min,  0.013 sec ( 55.108%)
 printout                       ...        0 min,  0.000 sec (  0.619%)

         :::::::::::::::::::::::::::::::::::::::::::::::::::::
         ::                     SUMMARY                     ::
         :::::::::::::::::::::::::::::::::::::::::::::::::::::
         :: total energy             -41.908766227127 Eh    ::
         :: gradient norm              0.005054805852 Eh/a0 ::
         :: HOMO-LUMO gap              0.973208462283 eV    ::
         ::.................................................::
         :: SCC energy               -42.394559323793 Eh    ::
         :: -> isotropic ES            0.120136195846 Eh    ::
         :: -> anisotropic ES         -0.002145930690 Eh    ::
         :: -> anisotropic XC          0.023270376074 Eh    ::
         :: -> dispersion             -0.020866342061 Eh    ::
         :: repulsion energy           0.485557236738 Eh    ::
         :: add. restraining           0.000000000000 Eh    ::
         :: total charge               1.000000000000 e     ::
         :::::::::::::::::::::::::::::::::::::::::::::::::::::

           -------------------------------------------------
          |                Property Printout                |
           -------------------------------------------------

    * Orbital Energies and Occupations

         #    Occupation            Energy/Eh            Energy/eV
      -------------------------------------------------------------
         1        2.0000           -0.9656263             -26.2760
       ...           ...                  ...                  ...
        25        2.0000           -0.6590338             -17.9332
        26        2.0000           -0.6542476             -17.8030
        27        2.0000           -0.6498642             -17.6837
        28        2.0000           -0.6391682             -17.3927
        29        2.0000           -0.6364073             -17.3175
        30        2.0000           -0.6335459             -17.2397
        31        2.0000           -0.6231236             -16.9561
        32        2.0000           -0.6194511             -16.8561
        33        2.0000           -0.5909286             -16.0800
        34        2.0000           -0.5907987             -16.0765
        35        2.0000           -0.5862700             -15.9532
        36        1.9922           -0.5426392             -14.7660
        37        1.8144           -0.5168546             -14.0643 (HOMO)
        38        0.1929           -0.4810899             -13.0911 (LUMO)
        39        0.0007           -0.4354216             -11.8484
        40        0.0000           -0.4002305             -10.8908
        41                         -0.3601744              -9.8008
        42                         -0.2624791              -7.1424
        43                         -0.2407382              -6.5508
        44                         -0.2151224              -5.8538
        45                         -0.1585951              -4.3156
        46                         -0.1059591              -2.8833
        47                         -0.0802058              -2.1825
        48                         -0.0719743              -1.9585
       ...                                ...                  ...
        67                          0.6053950              16.4736
      -------------------------------------------------------------
                  HL-Gap            0.0357648 Eh            0.9732 eV
             Fermi-level           -0.4988049 Eh          -13.5732 eV

     #   Z          covCN         q      C6AA      α(0)
     1   6 C        3.684    -0.076    22.176     6.743
     2   7 N        3.019     0.022    20.851     6.782
     3   6 C        4.124     0.088    19.044     6.198
     4   7 N        2.696    -0.212    25.606     7.515
     5   6 C        3.152    -0.052    28.992     8.806
     6   6 C        3.301     0.015    25.901     8.147
     7   6 C        2.750     0.259    22.643     7.792
     8   8 O        0.857    -0.307    19.912     5.983
     9   7 N        2.722    -0.029    21.801     6.935
    10   6 C        3.703    -0.068    21.964     6.701
    11   6 C        2.714     0.330    21.390     7.571
    12   8 O        1.723    -0.168    16.840     5.541
    13   7 N        2.686     0.005    21.174     6.834
    14   6 C        3.689    -0.068    22.004     6.714
    15   1 H        0.924     0.098     1.801     2.099
    16   1 H        0.924     0.106     1.735     2.060
    17   1 H        0.925     0.112     1.683     2.029
    18   1 H        0.926     0.075     2.031     2.229
    19   1 H        0.924     0.125     1.573     1.961
    20   1 H        0.925     0.109     1.704     2.041
    21   1 H        0.924     0.110     1.699     2.038
    22   1 H        0.924     0.087     1.910     2.161
    23   1 H        0.924     0.125     1.576     1.963
    24   1 H        0.925     0.125     1.577     1.964
    25   1 H        0.860     0.190     1.157     1.685

 Mol. C6AA /au·bohr⁶  :       6371.834049
 Mol. C8AA /au·bohr⁸  :     145889.801921
 Mol. α(0) /au        :        120.491388


Wiberg/Mayer (AO) data.
largest (>0.10) Wiberg bond orders for each atom

 ---------------------------------------------------------------------------
     #   Z sym  total        # sym  WBO       # sym  WBO       # sym  WBO
 ---------------------------------------------------------------------------
     1   6 C    3.940 --     2 N    1.014    17 H    0.966    16 H    0.952
                            15 H    0.943
     2   7 N    3.549 --     6 C    1.267     1 C    1.014     3 C    1.006
                             5 C    0.171
     3   6 C    3.868 --     2 N    1.006    18 H    0.962     5 C    0.898
                             4 N    0.891
     4   7 N    2.978 --     5 C    1.040    25 H    0.931     3 C    0.891
     5   6 C    3.393 --     6 C    1.113     4 N    1.040     3 C    0.898
                             2 N    0.171
     6   6 C    3.859 --     2 N    1.267     7 C    1.226     5 C    1.113
     7   6 C    3.892 --     8 O    1.752     6 C    1.226     9 N    0.787
     8   8 O    2.111 --     7 C    1.752
     9   7 N    3.631 --    11 C    1.565    10 C    0.953     7 C    0.787
                            12 O    0.112
    10   6 C    3.908 --    20 H    0.972    21 H    0.961    19 H    0.957
                             9 N    0.953
    11   6 C    3.929 --     9 N    1.565    13 N    1.129    12 O    1.121
    12   8 O    2.196 --    11 C    1.121    13 N    0.846     9 N    0.112
    13   7 N    3.128 --    11 C    1.129    14 C    1.002    12 O    0.846
    14   6 C    3.927 --    13 N    1.002    22 H    0.968    24 H    0.965
                            23 H    0.933
    15   1 H    0.979 --     1 C    0.943
    16   1 H    0.983 --     1 C    0.952
    17   1 H    0.987 --     1 C    0.966
    18   1 H    0.992 --     3 C    0.962
    19   1 H    0.984 --    10 C    0.957
    20   1 H    0.987 --    10 C    0.972
    21   1 H    0.988 --    10 C    0.961
    22   1 H    0.992 --    14 C    0.968
    23   1 H    0.984 --    14 C    0.933
    24   1 H    0.983 --    14 C    0.965
    25   1 H    0.957 --     4 N    0.931
 ---------------------------------------------------------------------------

Topologies differ in total number of bonds
Writing topology from bond orders to xtbtopo.mol

molecular dipole:
                 x           y           z       tot (Debye)
 q only:        0.311      -0.535       0.579
   full:        0.599      -0.702       1.031       3.516
molecular quadrupole (traceless):
                xx          xy          yy          xz          yz          zz
 q only:       13.205       0.721       3.135       0.249       6.203     -16.340
  q+dip:       15.746      -1.403       1.748       2.422       3.918     -17.493
   full:       15.529      -1.456       2.130       1.438       4.569     -17.660

           -------------------------------------------------
          |                Geometry Summary                 |
           -------------------------------------------------

      molecular mass/u    :      195.1988581
   center of mass at/Å    :       -0.1093974      -0.0436057      -0.1121321
  moments of inertia/u·Å² :        0.4764415E+03   0.9111046E+03   0.1194276E+04
rotational constants/cm⁻¹ :        0.3538237E-01   0.1850241E-01   0.1411535E-01

 * 24 selected distances

     #   Z          #   Z                                           value/Å
     1   6 C        2   7 N                                       1.4233147
     2   7 N        3   6 C                                       1.4362001
     3   6 C        4   7 N                                       1.4941005 (max)
     3   6 C        5   6 C                                       1.4847782
     4   7 N        5   6 C                                       1.4187812
     2   7 N        6   6 C                                       1.3581159
     6   6 C        7   6 C                                       1.3986158
     7   6 C        8   8 O                                       1.1993723
     9   7 N       10   6 C                                       1.4522034
     9   7 N       11   6 C                                       1.2649100
    11   6 C       12   8 O                                       1.3008516
    11   6 C       13   7 N                                       1.3357686
    13   7 N       14   6 C                                       1.4291177
     1   6 C       15   1 H                                       1.0949171
     1   6 C       16   1 H                                       1.0914936
     1   6 C       17   1 H                                       1.0893149
     3   6 C       18   1 H                                       1.0716728
    10   6 C       19   1 H                                       1.0918761
    10   6 C       20   1 H                                       1.0901842
    10   6 C       21   1 H                                       1.0917731
    14   6 C       22   1 H                                       1.0922432
    14   6 C       23   1 H                                       1.0915039
    14   6 C       24   1 H                                       1.0889334
     4   7 N       25   1 H                                       1.0157770 (min)

 * 5 distinct bonds (by element types)

   Z      Z             #   av. dist./Å        max./Å        min./Å
   1 H    6 C          10     1.0893912     1.0949171     1.0716728
   6 C    6 C           2     1.4416970     1.4847782     1.3986158
   1 H    7 N           1     1.0157770     1.0157770     1.0157770
   6 C    7 N           9     1.4013902     1.4941005     1.2649100
   6 C    8 O           2     1.2501119     1.3008516     1.1993723


optimized geometry written to: xtbopt.xyz


           -------------------------------------------------
          | TOTAL ENERGY              -41.908766227127 Eh   |
          | GRADIENT NORM               0.005054805852 Eh/α |
          | HOMO-LUMO GAP               0.973208462283 eV   |
           -------------------------------------------------

------------------------------------------------------------------------
 * finished run on 2024/06/05 at 19:57:59.498     
------------------------------------------------------------------------
 total:
 * wall-time:     0 d,  0 h,  0 min,  0.119 sec
 *  cpu-time:     0 d,  0 h,  0 min,  0.095 sec
 * ratio c/w:     0.802 speedup
 SCF:
 * wall-time:     0 d,  0 h,  0 min,  0.026 sec
 *  cpu-time:     0 d,  0 h,  0 min,  0.026 sec
 * ratio c/w:     1.000 speedup
 ANC optimizer:
 * wall-time:     0 d,  0 h,  0 min,  0.063 sec
 *  cpu-time:     0 d,  0 h,  0 min,  0.057 sec
 * ratio c/w:     0.905 speedup

