25
 energy: -43.834297343229 gnorm: 0.106547876394 xtb: 6.6.1 (8d0f1dd)
C            3.24363146992775        1.16598468421301        0.08666890021977
N            2.30397845798382        0.07970365079967        0.03927372367053
C            2.58842765142682       -1.22119679598005        0.03182952047632
N            1.43848751783821       -1.94041029258901        0.00144259862594
C            0.39698192078927       -1.06115764232359       -0.01157184838742
C            0.93519551095407        0.21466334793107        0.01055053630616
C            0.09739192164079        1.39738073763030       -0.01366109438867
O            0.50316537764715        2.55117433623148       -0.01896592169730
N           -1.27208443715939        1.05319925850669       -0.01829544418391
C           -2.24156891707574        2.15839332852439       -0.02166480061429
C           -1.81849277851595       -0.20540688704550       -0.05576221053425
O           -3.00959986508624       -0.39069004734431       -0.08522889928116
N           -0.92525583092124       -1.30536599148147       -0.04442623208805
C           -1.46502141108294       -2.64910494186107       -0.06478026216074
H            3.72156055793761        1.21039462461474        1.06844326401311
H            4.01440411204811        1.03281005842615       -0.67296649747610
H            2.70531516787530        2.09520953434858       -0.08631820694760
H            3.57335019064000       -1.64527030712790        0.04777937403821
H           -1.66704434132747        3.08526931323991       -0.06160421018993
H           -2.85761162207061        2.07362534095250       -0.91527241729439
H           -2.91908792856483        2.17117585418079        0.83434334165177
H           -1.16434349865959       -3.19780020144256        0.82870710290816
H           -1.13816103161469       -3.17943392670976       -0.96005738849245
H           -2.55127797930948       -2.56057772474056       -0.07903032296929
H            1.37754878365376       -2.95009620275947       -0.00974802419030
25
 energy: -43.838222892021 gnorm: 0.039073916214 xtb: 6.6.1 (8d0f1dd)
C            3.24773122080486        1.17556522653507        0.08860946613866
N            2.30837224889125        0.09723381107424        0.03705450473240
C            2.60017406065502       -1.23461401003832        0.03149865370957
N            1.42607050175374       -1.94066509657027        0.00145607383433
C            0.39749228365944       -1.05646524747956       -0.01018663223611
C            0.92721661943019        0.22491110992446        0.01201249662055
C            0.09937932894306        1.39128136021290       -0.00695246505945
O            0.49224085049492        2.56197361820112       -0.01898201006576
N           -1.27766974877979        1.04668907279838       -0.01436314544061
C           -2.23296438720391        2.15109312824341       -0.03731999235138
C           -1.82623207622008       -0.20387566193863       -0.04821283362344
O           -3.02339917095220       -0.39407376170433       -0.08445641840816
N           -0.93508775536761       -1.30193052688242       -0.04229893433268
C           -1.46789280339174       -2.64500606592316       -0.06513011311826
H            3.72887789939084        1.21813058911981        1.07033717440923
H            4.01592822397159        1.04178553207444       -0.67529727140880
H            2.70284276457218        2.10129151656554       -0.08353277367530
H            3.57782848754537       -1.66250562082295        0.04709749632633
H           -1.65272599424103        3.07273494488099       -0.06148730804069
H           -2.85874444108177        2.07340044688017       -0.92678854556372
H           -2.88340789373083        2.13882735971126        0.83849947186376
H           -1.16274843888802       -3.19524924555363        0.82745769480695
H           -1.13724076295960       -3.17651505334629       -0.95996262951082
H           -2.55351562714160       -2.55666284415603       -0.07945811395658
H            1.35736360882019       -2.94488147361219       -0.00990926463589
25
 energy: -43.838953296668 gnorm: 0.018313328292 xtb: 6.6.1 (8d0f1dd)
C            3.24841838897152        1.17075755145571        0.08782214393675
N            2.30763318475732        0.10450240217200        0.03240721227687
C            2.61032124587769       -1.24207879734209        0.03297784564935
N            1.42681722151802       -1.94458109156732        0.00098910983850
C            0.40374162347294       -1.06156778897070       -0.01382211704231
C            0.92030101315095        0.22572229308088        0.00675162567927
C            0.10616478083694        1.38337275822257       -0.00946539751217
O            0.49724654607221        2.55955927750769       -0.01931265340609
N           -1.28241759195685        1.05169303613409       -0.00673052710462
C           -2.24026694536052        2.15859168284173       -0.02964242562086
C           -1.82066739527598       -0.19904908449213       -0.05200090495429
O           -3.01912181027946       -0.39546091138940       -0.08612583733617
N           -0.93549690967821       -1.30213772646816       -0.04684280570735
C           -1.46465525347055       -2.64585352159163       -0.06535253619587
H            3.72316604332293        1.20917290086883        1.07270975338582
H            4.01910153399433        1.02735122456345       -0.67246138506472
H            2.70642875262533        2.09628272557202       -0.09061058820883
H            3.58587606274831       -1.65640866869266        0.05058353200199
H           -1.67419379986463        3.08747523510441       -0.05689997744702
H           -2.86208590510316        2.07673419955368       -0.91887199671062
H           -2.91094561424899        2.16568074172475        0.83286397879446
H           -1.16055290637711       -3.19689900674016        0.82847767710429
H           -1.13437555025116       -3.18279558838129       -0.95824419929746
H           -2.54973989954387       -2.56037890595762       -0.08004202577066
H            1.36919218303651       -2.94721182901460       -0.00947292027411
25
 energy: -43.839190561307 gnorm: 0.009191941925 xtb: 6.6.1 (8d0f1dd)
C            3.24342926889327        1.17239337778148        0.08937841958782
N            2.30383484702997        0.10342234254138        0.03601069611420
C            2.60519457060983       -1.23993486878400        0.03335275192759
N            1.42506526900389       -1.94355339933094        0.00327169854086
C            0.40234081040391       -1.06405391001627       -0.00938766717523
C            0.91842759113187        0.22352243941601        0.01083387180263
C            0.10852041704552        1.38197397506622       -0.01182670634333
O            0.49636185223083        2.55632713813860       -0.02120003114008
N           -1.27995645729961        1.04949405485242       -0.01195829976253
C           -2.23374086494703        2.15536417489667       -0.03083103942376
C           -1.81812997205723       -0.20049764444203       -0.05340948181116
O           -3.01552828531081       -0.39588569960945       -0.08672287604957
N           -0.93584904759378       -1.30372276920754       -0.04357412040431
C           -1.46880178123335       -2.64541477828631       -0.06456989241870
H            3.72671198038773        1.21388170579670        1.06957053183521
H            4.01044226445102        1.04103801764042       -0.67638105659918
H            2.70026117564504        2.09913290394672       -0.07982922832538
H            3.58102104561541       -1.65019146501354        0.04447393525578
H           -1.65582396267329        3.07733747944005       -0.06285876901730
H           -2.85611928133560        2.07284690314377       -0.91971329877586
H           -2.89986516290342        2.16078786248870        0.83622030348272
H           -1.16643080256272       -3.19885616060305        0.82808401833457
H           -1.14060614782215       -3.17796754169238       -0.96047796607353
H           -2.55406648963688       -2.55741694593240       -0.07873847439447
H            1.37319616190207       -2.94755408403721       -0.01003273815288
25
 energy: -43.839183315358 gnorm: 0.008116887809 xtb: 6.6.1 (8d0f1dd)
C            3.24903189535656        1.16782528183430        0.08749742693316
N            2.30444033998623        0.10110878759175        0.03517594657056
C            2.59973789775393       -1.23997767679790        0.03495041426477
N            1.42040697171141       -1.93989322064256        0.00197985150647
C            0.40023878324496       -1.05998184585967       -0.01100512209470
C            0.91951399506561        0.22668941903059        0.01026336172510
C            0.10761523116662        1.38694637416234       -0.01038031921419
O            0.49110353280395        2.56053707059177       -0.01748664592211
N           -1.28171048800221        1.05157600653445       -0.01462279756303
C           -2.23813491697272        2.15305836684416       -0.03207053869750
C           -1.81985179669140       -0.19886981911964       -0.05282205802772
O           -3.01682840658599       -0.39439507236172       -0.08510778069389
N           -0.93634969829457       -1.30010343610130       -0.04424853237409
C           -1.46521832457932       -2.64348100135015       -0.06500426642771
H            3.72779032783103        1.21457857084298        1.06977696423112
H            4.02118291669646        1.03201916002770       -0.67247926318584
H            2.71241861574752        2.09745125421946       -0.08977992965853
H            3.57520374711086       -1.65435307902394        0.04899722351961
H           -1.66226813769049        3.07701512697174       -0.05865367809953
H           -2.86106646213927        2.07302388907328       -0.92187973205288
H           -2.90014617215933        2.14564925100174        0.83791518762273
H           -1.15951498536787       -3.19336185033520        0.82828546301956
H           -1.13380737953850       -3.17562199291851       -0.95981419144369
H           -2.55105649701722       -2.56011854068992       -0.07945875861477
H            1.36715800953821       -2.94484791533173       -0.01034364430876
25
 energy: -43.839301116663 gnorm: 0.003240333679 xtb: 6.6.1 (8d0f1dd)
C            3.24609870267029        1.16998643090015        0.08853708726448
N            2.30613325854701        0.10062135495206        0.03377368878079
C            2.60391857212107       -1.24148118424844        0.03260212698973
N            1.42350397155017       -1.94172646858756        0.00050269094038
C            0.40209747312455       -1.06239795951586       -0.01182766644760
C            0.92036081896629        0.22492297156598        0.00997108508533
C            0.10906646686491        1.38492928975623       -0.00845819666749
O            0.49332147434279        2.55892964646305       -0.01850246055706
N           -1.28194062091129        1.05107016478283       -0.01100758897477
C           -2.23651593662243        2.15596934896139       -0.03299971478437
C           -1.81990731439467       -0.19986226605061       -0.04957721741800
O           -3.01746758127260       -0.39564025255211       -0.08357488948311
N           -0.93583842069895       -1.30183623636336       -0.04398414400922
C           -1.46602717324909       -2.64520652555089       -0.06502725523671
H            3.72444006642344        1.21357049550454        1.07144927427128
H            4.01671921561642        1.03691065853247       -0.67356181560631
H            2.70362576697017        2.09731769263027       -0.08559341532506
H            3.58071745393634       -1.65514835392359        0.04704593815978
H           -1.66276543741915        3.08102708562303       -0.06104046130902
H           -2.85952564190156        2.07589266995684       -0.92262235817191
H           -2.90069247970614        2.15696286995579        0.83467228865377
H           -1.16219527292749       -3.19655019659848        0.82810086779569
H           -1.13644638946837       -3.17993193443341       -0.95913047677214
H           -2.55159898491340       -2.55927324969909       -0.07951299041166
H            1.37080701132615       -2.94658294386720       -0.01054981575266
25
 energy: -43.839288377201 gnorm: 0.003534744937 xtb: 6.6.1 (8d0f1dd)
C            3.24637676914563        1.17070912132183        0.08798159876006
N            2.30613619807397        0.10193381679454        0.03500006640096
C            2.60457333890559       -1.24075210040391        0.03523268513400
N            1.42399127063811       -1.94148158699417        0.00382032697048
C            0.40235291484689       -1.06278241803763       -0.01092283480486
C            0.91983547138128        0.22524481218516        0.00966027468426
C            0.10994807432369        1.38434463918987       -0.01183303332155
O            0.49384747278827        2.55872586150877       -0.02157749741755
N           -1.28198884040968        1.05028699312812       -0.01263796497244
C           -2.23653632462769        2.15470359024163       -0.02954855990565
C           -1.81960594012931       -0.20017734732561       -0.05460357999407
O           -3.01725020502192       -0.39601473321360       -0.08943106804251
N           -0.93601977280952       -1.30213183216072       -0.04534570901773
C           -1.46751444203968       -2.64484324604241       -0.06552128751085
H            3.72788847342586        1.21326677125398        1.06939339444960
H            4.01451136367174        1.03495728051221       -0.67608216367408
H            2.70521717749049        2.09887835170380       -0.08519714239372
H            3.58163198264500       -1.65264674876201        0.04903311948703
H           -1.66223404919063        3.07923887645366       -0.05826130158525
H           -2.86015118302893        2.07396941586114       -0.91822404085821
H           -2.90116112203409        2.15664509979840        0.83819416758336
H           -1.16483055018830       -3.19687061906046        0.82776267893110
H           -1.13834049403918       -3.17884129308045       -0.96015549964087
H           -2.55299620901814       -2.55757853816788       -0.08015649423895
H            1.37220762417504       -2.94631105851022       -0.00689555400842
25
 energy: -43.839312576388 gnorm: 0.001623559980 xtb: 6.6.1 (8d0f1dd)
C            3.24633895749985        1.17011122730835        0.08892578942925
N            2.30565533605977        0.10149317914460        0.03483492110646
C            2.60323225312521       -1.24089469726514        0.03344222392952
N            1.42290873751912       -1.94123860017821        0.00132101889470
C            0.40168160792557       -1.06242018687518       -0.01095776168649
C            0.91947076046999        0.22548290459450        0.01024556665199
C            0.11000675281705        1.38485714613301       -0.01006647654885
O            0.49354449611627        2.55903744982901       -0.01922546065162
N           -1.28212184683817        1.05059425816359       -0.01167418755825
C           -2.23646230529892        2.15477350240625       -0.03164999426538
C           -1.81979715143912       -0.19982194560140       -0.05205704199614
O           -3.01734460823590       -0.39543998712573       -0.08547910205417
N           -0.93634809657406       -1.30172008917708       -0.04398833784698
C           -1.46658295785843       -2.64487446216516       -0.06444927231873
H            3.72636847046222        1.21306234929617        1.07096465842353
H            4.01600803783233        1.03520351890708       -0.67373710855097
H            2.70575869753533        2.09837058614981       -0.08493758996237
H            3.58004549249265       -1.65307768531028        0.04598119724280
H           -1.66143760229542        3.07893366561871       -0.06091306065136
H           -2.85856221084561        2.07312328897341       -0.92139317468281
H           -2.90214832689967        2.15675572279684        0.83527670360578
H           -1.16216598535545       -3.19659591442977        0.82840561740117
H           -1.13691138646304       -3.17776568716834       -0.95953834690463
H           -2.55219489091913       -2.55930694067840       -0.07840508836992
H            1.37094676814204       -2.94616949515262       -0.01124111162238
25
 energy: -43.839288548105 gnorm: 0.003434429735 xtb: 6.6.1 (8d0f1dd)
C            3.24566157421683        1.16997245734880        0.08711520237717
N            2.30619819780241        0.09987325565603        0.03343949568148
C            2.60309859863941       -1.24184643130782        0.03434842894509
N            1.42323750305891       -1.94184515101517        0.00214636338058
C            0.40196532759518       -1.06291757871039       -0.01182188556753
C            0.92016842699287        0.22478642613391        0.00945805324581
C            0.11035444414567        1.38504722466303       -0.00946970962851
O            0.49348964153286        2.55885793585422       -0.01852427572827
N           -1.28204387291952        1.05101264217542       -0.01196170593804
C           -2.23612309124315        2.15589688558181       -0.03206289864727
C           -1.81947442689570       -0.19985737903060       -0.05043659582427
O           -3.01687721145542       -0.39555028228813       -0.08332560830324
N           -0.93574531673769       -1.30184726257550       -0.04470262450957
C           -1.46597176450600       -2.64524995799187       -0.06624901378855
H            3.72331634486221        1.21558129136058        1.07016479067396
H            4.01722034845651        1.03776410358501       -0.67424581892432
H            2.70253799195045        2.09648567227795       -0.08826130108287
H            3.57995438851661       -1.65514133815705        0.05000869007194
H           -1.66224758141761        3.08105650490903       -0.05947729122989
H           -2.86048426046539        2.07794559985941       -0.92110276080477
H           -2.89905175282376        2.15487999135581        0.83674752462158
H           -1.16324839350887       -3.19610013264546        0.82747638253310
H           -1.13545734082105       -3.18027275689820       -0.95983733502593
H           -2.55148126224797       -2.55908210728901       -0.08221651039650
H            1.37089248624667       -2.94697650465777       -0.00752501511706
25
 energy: -43.839313492593 gnorm: 0.001437664443 xtb: 6.6.1 (8d0f1dd)
C            3.24639898370487        1.16998088671836        0.08810444064139
N            2.30631786318329        0.10059061346881        0.03402925770926
C            2.60346001184599       -1.24134485015167        0.03377603162803
N            1.42347022541048       -1.94144967561251        0.00179709949592
C            0.40205793027871       -1.06268428895105       -0.01153930928194
C            0.92003179608506        0.22523037147102        0.00983449539845
C            0.11023550404908        1.38506091010934       -0.00971429160908
O            0.49311736853224        2.55911946116659       -0.01927340629748
N           -1.28232697897567        1.05078548580030       -0.01200501755134
C           -2.23664861901034        2.15531542604380       -0.03195813384842
C           -1.81962351431945       -0.19995502197400       -0.05139078986933
O           -3.01706512878759       -0.39581137783627       -0.08534348352478
N           -0.93583614074611       -1.30178107219183       -0.04454206607922
C           -1.46646340327895       -2.64499175915258       -0.06534340319591
H            3.72575843804155        1.21355348843356        1.07046352725982
H            4.01654403201269        1.03672649687161       -0.67446339763418
H            2.70446652326065        2.09749707554341       -0.08561187589296
H            3.58043654694928       -1.65421370080952        0.04811087059685
H           -1.66276928826983        3.08036001451250       -0.05998510435082
H           -2.86037448993533        2.07584713966902       -0.92112682128044
H           -2.90046113521461        2.15548796648414        0.83624640770176
H           -1.16315819711547       -3.19620729997729        0.82803786977408
H           -1.13698533391658       -3.17966565181380       -0.95948133432129
H           -2.55198071432688       -2.55847750683597       -0.08006970999354
H            1.37128671951739       -2.94650002279195       -0.00886727446069
25
 energy: -43.833923297374 gnorm: 0.080452172835 xtb: 6.6.1 (8d0f1dd)
C            3.24993930747261        1.16553309180496        0.08896450626444
N            2.30922752557629        0.08394027971263        0.03861137253512
C            2.59645713935189       -1.22816477338609        0.03375033977247
N            1.43874138211718       -1.94653078331605        0.00209854236984
C            0.40342583333066       -1.06350162862493       -0.01543340597043
C            0.93514539888487        0.21570297070203        0.00408429294044
C            0.09976215019727        1.38888378902710       -0.02199322730736
O            0.50421593038720        2.55061437913608       -0.03637402992546
N           -1.29198958401450        1.05294735111777       -0.00086009863455
C           -2.26412511848239        2.16604227673597        0.00521193573953
C           -1.81849933771137       -0.20992322306910       -0.06502374091961
O           -3.01250582257845       -0.40255612306146       -0.10136724711987
N           -0.92425284792752       -1.30787640028845       -0.05214513073373
C           -1.46020184203060       -2.65168462941570       -0.06928450753060
H            3.73047455390824        1.20571799643872        1.07162831369053
H            4.02083182434816        1.03118828156604       -0.67226668717480
H            2.71162381845803        2.09275498683037       -0.08145041973835
H            3.57990316047015       -1.65346060484548        0.05356074719451
H           -1.66409327407374        3.07933637350690       -0.09792543075944
H           -2.89124371261582        2.05221784821679       -0.87817981856876
H           -2.95814178757446        2.26579722649902        0.85479894087045
H           -1.15806855776418       -3.19963429301511        0.82495387992195
H           -1.13071083660602       -3.18371091812975       -0.96326141109944
H           -2.54707871370529       -2.56457654523983       -0.08346920321382
H            1.37790474902116       -2.95610780848324       -0.00411320626642
25
 energy: -43.836322039580 gnorm: 0.034141481962 xtb: 6.6.1 (8d0f1dd)
C            3.25140113147410        1.17341081234616        0.09030759220055
N            2.30890753892714        0.09885202719430        0.03639903181326
C            2.60164356487903       -1.23692758765357        0.03322951781467
N            1.42533014177628       -1.94213433316349        0.00233377748022
C            0.39922960131825       -1.05768127154229       -0.01180156830997
C            0.92435043759918        0.22606818195494        0.00922443255652
C            0.09756393940113        1.38675708676580       -0.00800206988672
O            0.48634608411946        2.55981717453687       -0.03480324202450
N           -1.29330114485549        1.04719284232295        0.00584846744258
C           -2.24555964254117        2.15765665748639       -0.02579941861675
C           -1.82801459805491       -0.20716748174926       -0.04866659186668
O           -3.02474367918819       -0.40413544546821       -0.09979146229852
N           -0.93535561071104       -1.30269805549189       -0.04727835427389
C           -1.46391987286475       -2.64692587604939       -0.07013316674827
H            3.73523548854241        1.21237997750378        1.07169687343456
H            4.01990241940182        1.04011868202226       -0.67425587278031
H            2.70901903221802        2.10037870882525       -0.07888349895520
H            3.57883703903945       -1.66525403826292        0.05181273108779
H           -1.65099055462701        3.07031688350865       -0.09846050594721
H           -2.89150070717637        2.05319220665939       -0.89877202870624
H           -2.88818565222292        2.20330583208297        0.86095937540159
H           -1.15715066928977       -3.19617691531842        0.82289524323263
H           -1.13117419904926       -3.17917637770571       -0.96403431660098
H           -2.54986020768293       -2.56152008301534       -0.08439940824707
H            1.35873145800694       -2.94670048737004       -0.00511023086541
25
 energy: -43.837618963138 gnorm: 0.012121961364 xtb: 6.6.1 (8d0f1dd)
C            3.25430031324361        1.16829458630618        0.09019364159780
N            2.31040073596597        0.10065308852149        0.03168495840020
C            2.60980454218365       -1.24351318937473        0.03423400698078
N            1.42801907227009       -1.94559220757818        0.00125497743149
C            0.40436202951874       -1.06203365085863       -0.01756647405445
C            0.92150765088627        0.22524559397867        0.00175495912801
C            0.10054165727924        1.38217466564919       -0.01303041428629
O            0.49039325277784        2.55630792964029       -0.03673915406343
N           -1.29667146842511        1.05229685636726        0.01518415533382
C           -2.25480277058260        2.16398150954911       -0.01427763547836
C           -1.82503259022327       -0.20295015938650       -0.05452491885896
O           -3.02139039378965       -0.40633207636301       -0.10176860016078
N           -0.93405408119849       -1.30187979167327       -0.05408829590115
C           -1.46018984415018       -2.64725320043292       -0.07033840150330
H            3.73268348469585        1.20609559379869        1.07405828806347
H            4.02532359733770        1.03001227957638       -0.67111767435652
H            2.71321501786300        2.09537848397515       -0.08402774316591
H            3.58613879866477       -1.66413496461140        0.05655011990221
H           -1.67080101992027        3.07912332769603       -0.09191749646874
H           -2.89582527144180        2.05404936949559       -0.88661613045737
H           -2.92135937453347        2.23692134572760        0.85134058571409
H           -1.15436138692784       -3.19536214738176        0.82471817845081
H           -1.12764544497486       -3.18541723237241       -0.96140866029335
H           -2.54562874657379       -2.56360734071582       -0.08502489090246
H            1.36781357849400       -2.94950954911381       -0.00401207471500
25
 energy: -43.837579614545 gnorm: 0.009250244594 xtb: 6.6.1 (8d0f1dd)
C            3.24772291639830        1.17107241036970        0.09150073741024
N            2.30716345747861        0.10121905774373        0.03617904608387
C            2.60849438928985       -1.24269785712628        0.03569289005778
N            1.42827985125813       -1.94679723124986        0.00544574234976
C            0.40505156330921       -1.06692362981586       -0.01151423736101
C            0.91915022333393        0.22202456753607        0.00602108162168
C            0.10488515665078        1.37917843335807       -0.01714133929485
O            0.49531786652045        2.55208144695135       -0.03774475339681
N           -1.29411435563708        1.05101487498513        0.01002488803420
C           -2.24985234174371        2.16340113850362       -0.01074245807960
C           -1.82150524860421       -0.20387995732650       -0.05977239496045
O           -3.01726086389916       -0.40744529085092       -0.10415772488500
N           -0.93388370841686       -1.30487411187959       -0.05062916452633
C           -1.46464000472894       -2.64835669678301       -0.06932478341520
H            3.73388318097823        1.21097186384377        1.07110322655874
H            4.01342378363118        1.04144323342431       -0.67653492922113
H            2.70348227275586        2.09782867409178       -0.07496293134911
H            3.58536606790343       -1.65596702045742        0.04856173680599
H           -1.65312623519173        3.07034213820572       -0.09893057582944
H           -2.88784036955995        2.05219456675557       -0.88466360338073
H           -2.92173660585780        2.24445067119870        0.85462871732966
H           -1.16156177722923       -3.20210515945753        0.82333903436042
H           -1.13475156031352       -3.18130464065900       -0.96436401302960
H           -2.55024138553715       -2.56202973297780       -0.08340529614264
H            1.37503506565074       -2.95189262796455       -0.00409358940382
25
 energy: -43.837755124798 gnorm: 0.004713327301 xtb: 6.6.1 (8d0f1dd)
C            3.25292933323493        1.16703076803020        0.09056789455426
N            2.30748777011418        0.10123815567762        0.03465967776651
C            2.60538580189867       -1.24284273282065        0.03647514483493
N            1.42468211367662       -1.94424787236910        0.00316964538246
C            0.40399665374820       -1.06361395411798       -0.01373042003368
C            0.91920928106440        0.22520894851212        0.00453637363380
C            0.10432479912063        1.38264245763689       -0.01684401872096
O            0.49209916476403        2.55601481528556       -0.03603870920450
N           -1.29569903614013        1.05298606244615        0.00751802746599
C           -2.25436450689122        2.16198208364189       -0.01202888801956
C           -1.82256714582454       -0.20208884871946       -0.05902721582920
O           -3.01825823051742       -0.40620344685440       -0.10178325305081
N           -0.93430976052786       -1.30202869461523       -0.05151772704396
C           -1.46155939882948       -2.64673948535845       -0.06922736262449
H            3.73427969903212        1.20781044512727        1.07249696413217
H            4.02315572421172        1.03163750476721       -0.67211321243036
H            2.71533739012718        2.09649471447137       -0.08214897669065
H            3.58137407348962       -1.65803279819745        0.05277785929944
H           -1.66213893349574        3.07326431056510       -0.09614318858901
H           -2.89303650143270        2.05175591399380       -0.88656130541898