      -----------------------------------------------------------      
     |                   =====================                   |     
     |                           x T B                           |     
     |                   =====================                   |     
     |                         S. Grimme                         |     
     |          Mulliken Center for Theoretical Chemistry        |     
     |                    University of Bonn                     |     
      -----------------------------------------------------------      

   * xtb version 6.6.1 (8d0f1dd) compiled by 'conda@1efc2f54142f' on 2023-08-01

   xtb is free software: you can redistribute it and/or modify it under
   the terms of the GNU Lesser General Public License as published by
   the Free Software Foundation, either version 3 of the License, or
   (at your option) any later version.
   
   xtb is distributed in the hope that it will be useful,
   but WITHOUT ANY WARRANTY; without even the implied warranty of
   MERCHANTABILITY or FITNESS FOR A PARTICULAR PURPOSE.  See the
   GNU Lesser General Public License for more details.
   
   Cite this work as:
   * C. Bannwarth, E. Caldeweyher, S. Ehlert, A. Hansen, P. Pracht,
     J. Seibert, S. Spicher, S. Grimme, WIREs Comput. Mol. Sci., 2020, 11,
     e01493. DOI: 10.1002/wcms.1493
   
   for GFN2-xTB:
   * C. Bannwarth, S. Ehlert and S. Grimme., J. Chem. Theory Comput., 2019,
     15, 1652-1671. DOI: 10.1021/acs.jctc.8b01176
   for GFN1-xTB:
   * S. Grimme, C. Bannwarth, P. Shushkov, J. Chem. Theory Comput., 2017,
     13, 1989-2009. DOI: 10.1021/acs.jctc.7b00118
   for GFN0-xTB:
   * P. Pracht, E. Caldeweyher, S. Ehlert, S. Grimme, ChemRxiv, 2019, preprint.
     DOI: 10.26434/chemrxiv.8326202.v1
   for GFN-FF:
   * S. Spicher and S. Grimme, Angew. Chem. Int. Ed., 2020, 59, 15665-15673.
     DOI: 10.1002/anie.202004239
   
   for ALPB and GBSA implicit solvation:
   * S. Ehlert, M. Stahn, S. Spicher, S. Grimme, J. Chem. Theory Comput.,
     2021, 17, 4250-4261. DOI: 10.1021/acs.jctc.1c00471
   
   for DFT-D4:
   * E. Caldeweyher, C. Bannwarth and S. Grimme, J. Chem. Phys., 2017,
     147, 034112. DOI: 10.1063/1.4993215
   * E. Caldeweyher, S. Ehlert, A. Hansen, H. Neugebauer, S. Spicher,
     C. Bannwarth and S. Grimme, J. Chem. Phys., 2019, 150, 154122.
     DOI: 10.1063/1.5090222
   * E. Caldeweyher, J.-M. Mewes, S. Ehlert and S. Grimme, Phys. Chem. Chem. Phys.
     2020, 22, 8499-8512. DOI: 10.1039/D0CP00502A
   
   for sTDA-xTB:
   * S. Grimme and C. Bannwarth, J. Chem. Phys., 2016, 145, 054103.
     DOI: 10.1063/1.4959605
   
   in the mass-spec context:
   * V. Asgeirsson, C. Bauer and S. Grimme, Chem. Sci., 2017, 8, 4879.
     DOI: 10.1039/c7sc00601b
   * J. Koopman and S. Grimme, ACS Omega 2019, 4, 12, 15120-15133.
     DOI: 10.1021/acsomega.9b02011
   
   for metadynamics refer to:
   * S. Grimme, J. Chem. Theory Comput., 2019, 155, 2847-2862
     DOI: 10.1021/acs.jctc.9b00143
   
   for SPH calculations refer to:
   * S. Spicher and S. Grimme, J. Chem. Theory Comput., 2021, 17, 1701-1714
     DOI: 10.1021/acs.jctc.0c01306
   
   with help from (in alphabetical order)
   P. Atkinson, C. Bannwarth, F. Bohle, G. Brandenburg, E. Caldeweyher
   M. Checinski, S. Dohm, S. Ehlert, S. Ehrlich, I. Gerasimov, C. Hölzer
   A. Katbashev, J. Koopman, C. Lavigne, S. Lehtola, F. März, M. Müller,
   F. Musil, H. Neugebauer, J. Pisarek, C. Plett, P. Pracht, F. Pultar,
   J. Seibert, P. Shushkov, S. Spicher, M. Stahn, M. Steiner, T. Strunk,
   J. Stückrath, T. Rose, and J. Unsleber
   
 * started run on 2024/06/05 at 19:58:02.570     

           -------------------------------------------------
          |                Calculation Setup                |
           -------------------------------------------------

          program call               : xtb struc.xyz --opt loose --input .xc1 --gfn2
          hostname                   : n-62-21-70
          coordinate file            : struc.xyz
          omp threads                :                     1

   ID    Z sym.   atoms
    1    6 C      1, 3, 5-7, 10, 11, 14
    2    7 N      2, 4, 9, 13
    3    8 O      8, 12
    4    1 H      15-25
constraining bond 11 23 to    3.7133300 Å, actual value:    3.1827480 Å

           -------------------------------------------------
          |                 G F N 2 - x T B                 |
           -------------------------------------------------

        Reference                      10.1021/acs.jctc.8b01176
      * Hamiltonian:
        H0-scaling (s, p, d)           1.850000    2.230000    2.230000
        zeta-weighting                 0.500000
      * Dispersion:
        s8                             2.700000
        a1                             0.520000
        a2                             5.000000
        s9                             5.000000
      * Repulsion:
        kExp                           1.500000    1.000000
        rExp                           1.000000
      * Coulomb:
        alpha                          2.000000
        third order                    shell-resolved
        anisotropic                    true
        a3                             3.000000
        a5                             4.000000
        cn-shift                       1.200000
        cn-exp                         4.000000
        max-rad                        5.000000


          ...................................................
          :                      SETUP                      :
          :.................................................:
          :  # basis functions                  67          :
          :  # atomic orbitals                  67          :
          :  # shells                           39          :
          :  # electrons                        74          :
          :  max. iterations                   250          :
          :  Hamiltonian                  GFN2-xTB          :
          :  restarted?                      false          :
          :  GBSA solvation                  false          :
          :  PC potential                    false          :
          :  electronic temp.         5000.0000000     K    :
          :  accuracy                    1.0000000          :
          :  -> integral cutoff          0.2500000E+02      :
          :  -> integral neglect         0.1000000E-07      :
          :  -> SCF convergence          0.1000000E-05 Eh   :
          :  -> wf. convergence          0.1000000E-03 e    :
          :  Broyden damping             0.4000000          :
          ...................................................

 iter      E             dE          RMSdq      gap      omega  full diag
   1    -42.5894031 -0.425894E+02  0.445E+00    3.52       0.0  T
   2    -42.7683054 -0.178902E+00  0.251E+00    3.36       1.0  T
   3    -42.7759211 -0.761567E-02  0.147E+00    3.35       1.0  T
   4    -42.7728404  0.308066E-02  0.553E-01    3.33       1.0  T
   5    -42.7789548 -0.611444E-02  0.112E-01    3.35       1.0  T
   6    -42.7790473 -0.924914E-04  0.614E-02    3.33       1.0  T
   7    -42.7790721 -0.247928E-04  0.258E-02    3.34       1.0  T
   8    -42.7790772 -0.508996E-05  0.938E-03    3.34       2.1  T
   9    -42.7790779 -0.669422E-06  0.448E-03    3.34       4.5  T
  10    -42.7790780 -0.821511E-07  0.115E-03    3.34      17.4  T
  11    -42.7790780 -0.322662E-08  0.553E-04    3.34      36.2  T
  12    -42.7790780 -0.287052E-08  0.180E-04    3.34     111.1  T

   *** convergence criteria satisfied after 12 iterations ***

         #    Occupation            Energy/Eh            Energy/eV
      -------------------------------------------------------------
         1        2.0000           -0.9185990             -24.9964
       ...           ...                  ...                  ...
        31        1.9996           -0.6230278             -16.9534
        32        1.9995           -0.6194601             -16.8564
        33        1.9979           -0.5974976             -16.2587
        34        1.9932           -0.5789629             -15.7544
        35        1.9817           -0.5631863             -15.3251
        36        1.9779           -0.5602245             -15.2445
        37        1.9748           -0.5581234             -15.1873 (HOMO)
        38        0.0652           -0.4353579             -11.8467 (LUMO)
        39        0.0099           -0.4050467             -11.0219
        40        0.0013           -0.3732218             -10.1559
        41        0.0000           -0.2886859              -7.8555
        42                         -0.2065804              -5.6213
       ...                                ...                  ...
        67                          0.5625656              15.3082
      -------------------------------------------------------------
                  HL-Gap            0.1227656 Eh            3.3406 eV
             Fermi-level           -0.4890455 Eh          -13.3076 eV

 SCC (total)                   0 d,  0 h,  0 min,  0.038 sec
 SCC setup                      ...        0 min,  0.000 sec (  0.699%)
 Dispersion                     ...        0 min,  0.000 sec (  0.875%)
 classical contributions        ...        0 min,  0.000 sec (  0.226%)
 integral evaluation            ...        0 min,  0.006 sec ( 15.811%)
 iterations                     ...        0 min,  0.018 sec ( 47.634%)
 molecular gradient             ...        0 min,  0.013 sec ( 34.306%)
 printout                       ...        0 min,  0.000 sec (  0.410%)

         :::::::::::::::::::::::::::::::::::::::::::::::::::::
         ::                     SUMMARY                     ::
         :::::::::::::::::::::::::::::::::::::::::::::::::::::
         :: total energy             -44.258491217685 Eh    ::
         :: gradient norm              5.672821136727 Eh/a0 ::
         :: HOMO-LUMO gap              3.340621582928 eV    ::
         ::.................................................::
         :: SCC energy               -42.779077977399 Eh    ::
         :: -> isotropic ES            0.141123876439 Eh    ::
         :: -> anisotropic ES         -0.005230418907 Eh    ::
         :: -> anisotropic XC          0.011966818540 Eh    ::
         :: -> dispersion             -0.022657731803 Eh    ::
         :: repulsion energy           0.531105277918 Eh    ::
         :: add. restraining          -2.010632677213 Eh    ::
         :: total charge               1.000000000002 e     ::
         :::::::::::::::::::::::::::::::::::::::::::::::::::::

      ----------------------------------------------------------- 
     |                   =====================                   |
     |                        A N C O P T                        |
     |                   =====================                   |
     |               Approximate Normal Coordinate               |
     |                Rational Function Optimizer                |
      ----------------------------------------------------------- 

          ...................................................
          :                      SETUP                      :
          :.................................................:
          :   optimization level             loose          :
          :   max. optcycles                   200          :
          :   ANC micro-cycles                  20          :
          :   degrees of freedom                69          :
          :.................................................:
          :   RF solver                   davidson          :
          :   write xtbopt.log                true          :
          :   linear?                        false          :
          :   energy convergence         0.5000000E-04 Eh   :
          :   grad. convergence          0.4000000E-02 Eh/α :
          :   maxmium RF displ.          1.0000000          :
          :   Hlow (freq-cutoff)         0.1000000E-01      :
          :   Hmax (freq-cutoff)         5.0000000          :
          :   S6 in model hess.         20.0000000          :
          ...................................................

generating ANC from model Hessian ...
Using Lindh-Hessian (1995)
 Shifting diagonal of input Hessian by    7.3491240895640200     
 Lowest  eigenvalues of input Hessian
    0.010000    0.000000    0.000000    0.000000    0.000000    0.000000
    0.000000    7.352128    7.353526    7.357816    7.359084    7.360946
    7.362255    7.367981    7.371281    7.374810    7.387682    7.391012
 Highest eigenvalues
    9.441012    9.501033    9.570159    9.677478    9.776656   10.413292


........................................................................
.............................. CYCLE    1 ..............................
........................................................................

 iter      E             dE          RMSdq      gap      omega  full diag
   1    -42.7790780 -0.427791E+02  0.626E-05    3.34       0.0  T
   2    -42.7790780 -0.124203E-10  0.329E-05    3.34     607.4  T
   3    -42.7790780  0.106581E-12  0.193E-05    3.34    1034.2  T
     SCC iter.                  ...        0 min,  0.005 sec
     gradient                   ...        0 min,  0.013 sec
 * total energy  :   -44.2584912 Eh     change       -0.6650680E-10 Eh
   gradient norm :     5.6728210 Eh/α   predicted     0.0000000E+00 (-100.00%)
   displ. norm   :     0.9981313 α      lambda       -0.5651914E+01
   maximum displ.:     0.9970103 α      in ANC's #1, #9, #11, ...

........................................................................
.............................. CYCLE    2 ..............................
........................................................................

 iter      E             dE          RMSdq      gap      omega  full diag
   1    -42.7187828 -0.427188E+02  0.127E+00    3.17       0.0  T
   2    -42.7330721 -0.142893E-01  0.888E-01    2.39       1.0  T
   3    -42.7365319 -0.345978E-02  0.470E-01    2.81       1.0  T
   4    -42.7366739 -0.142007E-03  0.219E-01    2.52       1.0  T
   5    -42.7372993 -0.625397E-03  0.703E-02    2.68       1.0  T
   6    -42.7374019 -0.102624E-03  0.193E-02    2.65       1.0  T
   7    -42.7374026 -0.659653E-06  0.574E-03    2.66       3.5  T
   8    -42.7374028 -0.192999E-06  0.137E-03    2.66      14.6  T
   9    -42.7374028 -0.941034E-08  0.689E-04    2.66      29.0  T
  10    -42.7374028 -0.352606E-08  0.288E-04    2.66      69.5  T
     SCC iter.                  ...        0 min,  0.014 sec
     gradient                   ...        0 min,  0.013 sec
 * total energy  :   -53.7057661 Eh     change       -0.9447275E+01 Eh
   gradient norm :    13.2176536 Eh/α   predicted    -0.5646768E+01 ( -40.23%)
   displ. norm   :     0.9991661 α      lambda       -0.1320435E+02
   maximum displ.:     0.9979586 α      in ANC's #1, #9, #2, ...

........................................................................
.............................. CYCLE    3 ..............................
........................................................................

 iter      E             dE          RMSdq      gap      omega  full diag
   1    -42.5030503 -0.425031E+02  0.163E+00    2.35       0.0  T
   2    -42.4863712  0.166791E-01  0.166E+00    1.26       1.0  T
   3    -42.5393191 -0.529479E-01  0.726E-01    2.15       1.0  T
   4    -42.5408754 -0.155637E-02  0.482E-01    1.67       1.0  T
   5    -42.5453679 -0.449250E-02  0.186E-01    1.86       1.0  T
   6    -42.5459216 -0.553670E-03  0.463E-02    1.89       1.0  T
   7    -42.5459515 -0.299282E-04  0.194E-02    1.89       1.0  T
   8    -42.5459527 -0.115548E-05  0.720E-03    1.89       2.8  T
   9    -42.5459534 -0.731042E-06  0.250E-03    1.89       8.0  T
  10    -42.5459535 -0.106968E-06  0.895E-04    1.89      22.4  T
  11    -42.5459535 -0.455687E-08  0.396E-04    1.89      50.5  T
     SCC iter.                  ...        0 min,  0.015 sec
     gradient                   ...        0 min,  0.013 sec
 * total energy  :   -70.6358165 Eh     change       -0.1693005E+02 Eh
   gradient norm :    20.7888389 Eh/α   predicted    -0.1319336E+02 ( -22.07%)
   displ. norm   :     0.9990147 α      lambda       -0.2076458E+02
   maximum displ.:     0.9959093 α      in ANC's #1, #2, #13, ...

........................................................................
.............................. CYCLE    4 ..............................
........................................................................

 iter      E             dE          RMSdq      gap      omega  full diag
   1    -42.2500028 -0.422500E+02  0.169E+00    1.10       0.0  T
   2    -42.2423015  0.770127E-02  0.131E+00    0.67       1.0  T
   3    -42.2343839  0.791761E-02  0.972E-01    1.22       1.0  T
   4    -42.2609656 -0.265817E-01  0.336E-01    0.83       1.0  T
   5    -42.2626817 -0.171609E-02  0.180E-01    0.93       1.0  T
   6    -42.2634240 -0.742325E-03  0.620E-02    0.88       1.0  T
   7    -42.2634865 -0.624155E-04  0.309E-02    0.90       1.0  T
   8    -42.2635048 -0.183918E-04  0.132E-02    0.89       1.5  T
   9    -42.2635082 -0.339201E-05  0.471E-03    0.90       4.2  T
  10    -42.2635087 -0.510633E-06  0.205E-03    0.90       9.8  T
  11    -42.2635087  0.135659E-07  0.114E-03    0.90      17.6  T
  12    -42.2635088 -0.410606E-07  0.327E-04    0.90      61.2  T
  13    -42.2635088 -0.133355E-08  0.134E-04    0.90     148.9  T
     SCC iter.                  ...        0 min,  0.018 sec
     gradient                   ...        0 min,  0.013 sec
 * total energy  :   -95.4525969 Eh     change       -0.2481678E+02 Eh
   gradient norm :    28.9214735 Eh/α   predicted    -0.2074422E+02 ( -16.41%)
   displ. norm   :     0.9987855 α      lambda       -0.2888116E+02
   maximum displ.:     0.9927346 α      in ANC's #1, #2, #11, ...

........................................................................
.............................. CYCLE    5 ..............................
........................................................................

 iter      E             dE          RMSdq      gap      omega  full diag
   1    -42.0151739 -0.420152E+02  0.282E+00    0.15       0.0  T
   2    -40.9056435  0.110953E+01  0.561E+00    0.18       1.0  T
   3    -42.1082258 -0.120258E+01  0.158E+00    0.21       1.0  T
   4    -42.1396198 -0.313940E-01  0.118E+00    0.32       1.0  T
   5    -42.1754932 -0.358734E-01  0.487E-01    0.20       1.0  T
   6    -42.1797374 -0.424427E-02  0.192E-01    0.22       1.0  T
   7    -42.1804997 -0.762253E-03  0.802E-02    0.25       1.0  T
   8    -42.1805974 -0.976850E-04  0.404E-02    0.24       1.0  T
   9    -42.1806147 -0.173687E-04  0.197E-02    0.23       1.0  T
  10    -42.1806247 -0.994358E-05  0.886E-03    0.23       2.3  T
  11    -42.1806262 -0.150641E-05  0.352E-03    0.24       5.7  T
  12    -42.1806264 -0.246651E-06  0.162E-03    0.23      12.4  T
  13    -42.1806264 -0.239940E-07  0.515E-04    0.23      38.8  T
  14    -42.1806265 -0.533029E-08  0.247E-04    0.23      81.1  T
     SCC iter.                  ...        0 min,  0.019 sec
     gradient                   ...        0 min,  0.013 sec
 * total energy  :  -120.9295577 Eh     change       -0.2547696E+02 Eh
   gradient norm :     8.0875378 Eh/α   predicted    -0.2884617E+02 (  13.22%)
   displ. norm   :     0.7004846 α      lambda       -0.3621901E+01
   maximum displ.:     0.4220144 α      in ANC's #2, #11, #1, ...

........................................................................
.............................. CYCLE    6 ..............................
........................................................................

 iter      E             dE          RMSdq      gap      omega  full diag
   1    -42.0516606 -0.420517E+02  0.245E+00    0.41       0.0  T
   2    -41.7531268  0.298534E+00  0.361E+00    0.42       1.0  T
   3    -42.1904546 -0.437328E+00  0.125E+00    0.18       1.0  T
   4    -42.1322341  0.582205E-01  0.166E+00    0.02       1.0  T
   5    -42.2239281 -0.916940E-01  0.481E-01    0.24       1.0  T
   6    -42.2234144  0.513730E-03  0.322E-01    0.27       1.0  T
   7    -42.2274416 -0.402722E-02  0.553E-02    0.28       1.0  T
   8    -42.2275011 -0.594838E-04  0.222E-02    0.28       1.0  T
   9    -42.2274885  0.125415E-04  0.194E-02    0.28       1.0  T
  10    -42.2275039 -0.153416E-04  0.588E-03    0.28       3.4  T
  11    -42.2275044 -0.513797E-06  0.349E-03    0.28       5.7  T
  12    -42.2275048 -0.406231E-06  0.838E-04    0.28      23.9  T
  13    -42.2275048 -0.133365E-07  0.469E-04    0.28      42.6  T
     SCC iter.                  ...        0 min,  0.018 sec
     gradient                   ...        0 min,  0.014 sec
 * total energy  :  -116.1990670 Eh     change        0.4730491E+01 Eh
   gradient norm :    27.2634795 Eh/α   predicted    -0.2699549E+01 (-157.07%)
   displ. norm   :     0.3649865 α      lambda       -0.7982286E+01
   maximum displ.:     0.1939302 α      in ANC's #24, #2, #9, ...

........................................................................
.............................. CYCLE    7 ..............................
........................................................................

 iter      E             dE          RMSdq      gap      omega  full diag
   1    -42.2563548 -0.422564E+02  0.715E-01    0.28       0.0  T
   2    -42.1478809  0.108474E+00  0.178E+00    0.27       1.0  T
   3    -42.2661497 -0.118269E+00  0.334E-01    0.33       1.0  T
   4    -42.2642778  0.187192E-02  0.253E-01    0.36       1.0  T
   5    -42.2651672 -0.889478E-03  0.220E-01    0.34       1.0  T
   6    -42.2671833 -0.201604E-02  0.184E-02    0.36       1.1  T
   7    -42.2671843 -0.103645E-05  0.123E-02    0.36       1.6  T
   8    -42.2671875 -0.321671E-05  0.508E-03    0.35       3.9  T
   9    -42.2671877 -0.199765E-06  0.314E-03    0.36       6.4  T
  10    -42.2671880 -0.302415E-06  0.141E-03    0.35      14.2  T
  11    -42.2671881 -0.189794E-07  0.748E-04    0.35      26.7  T
  12    -42.2671881 -0.163920E-07  0.282E-04    0.35      71.0  T
     SCC iter.                  ...        0 min,  0.016 sec
     gradient                   ...        0 min,  0.013 sec
 * total energy  :  -121.3172270 Eh     change       -0.5118160E+01 Eh
   gradient norm :     9.1133888 Eh/α   predicted    -0.4522829E+01 ( -11.63%)
   displ. norm   :     0.3734440 α      lambda       -0.2691436E+01
   maximum displ.:     0.3178515 α      in ANC's #1, #4, #11, ...

........................................................................
.............................. CYCLE    8 ..............................
........................................................................

 iter      E             dE          RMSdq      gap      omega  full diag
   1    -42.2158988 -0.422159E+02  0.131E+00    0.41       0.0  T
   2    -42.1197795  0.961193E-01  0.187E+00    0.44       1.0  T
   3    -42.1855635 -0.657840E-01  0.129E+00    0.29       1.0  T
   4    -42.2397840 -0.542205E-01  0.493E-01    0.45       1.0  T
   5    -42.2456700 -0.588603E-02  0.246E-01    0.45       1.0  T
   6    -42.2473270 -0.165693E-02  0.544E-02    0.48       1.0  T
   7    -42.2473469 -0.199455E-04  0.341E-02    0.48       1.0  T
   8    -42.2473902 -0.432971E-04  0.103E-02    0.47       1.9  T
   9    -42.2473927 -0.253735E-05  0.379E-03    0.48       5.3  T
  10    -42.2473931 -0.341434E-06  0.122E-03    0.48      16.3  T
  11    -42.2473931 -0.127344E-07  0.496E-04    0.48      40.3  T
  12    -42.2473931 -0.249055E-08  0.227E-04    0.48      88.2  T
     SCC iter.                  ...        0 min,  0.016 sec
     gradient                   ...        0 min,  0.013 sec
 * total energy  :  -119.8334031 Eh     change        0.1483824E+01 Eh
   gradient norm :    42.8459751 Eh/α   predicted    -0.1533394E+01 (-203.34%)
   displ. norm   :     0.7051376 α      lambda       -0.2800295E+02
   maximum displ.:     0.4836503 α      in ANC's #2, #24, #1, ...

........................................................................
.............................. CYCLE    9 ..............................
........................................................................

 iter      E             dE          RMSdq      gap      omega  full diag
   1    -42.1712295 -0.421712E+02  0.128E+00    0.45       0.0  T
   2    -42.1146593  0.565702E-01  0.141E+00    0.31       1.0  T
   3    -42.1195020 -0.484272E-02  0.137E+00    0.32       1.0  T
   4    -42.1801493 -0.606473E-01  0.500E-01    0.44       1.0  T
   5    -42.1836182 -0.346893E-02  0.236E-01    0.49       1.0  T
   6    -42.1858879 -0.226964E-02  0.378E-02    0.49       1.0  T
   7    -42.1859044 -0.165580E-04  0.161E-02    0.49       1.2  T
   8    -42.1859034  0.102284E-05  0.962E-03    0.49       2.1  T
   9    -42.1859052 -0.174620E-05  0.309E-03    0.49       6.5  T
  10    -42.1859054 -0.200556E-06  0.123E-03    0.49      16.3  T
  11    -42.1859054 -0.269870E-07  0.437E-04    0.49      45.8  T
  12    -42.1859054  0.130584E-09  0.247E-04    0.49      81.0  T
     SCC iter.                  ...        0 min,  0.016 sec
     gradient                   ...        0 min,  0.013 sec
 * total energy  :  -107.4423015 Eh     change        0.1239110E+02 Eh
   gradient norm :    30.4351041 Eh/α   predicted    -0.2096328E+02 (-269.18%)
   displ. norm   :     0.3387800 α      lambda       -0.9125531E+01
   maximum displ.:     0.2044716 α      in ANC's #2, #1, #24, ...

........................................................................
.............................. CYCLE   10 ..............................
........................................................................

 iter      E             dE          RMSdq      gap      omega  full diag
   1    -42.1882877 -0.421883E+02  0.819E-01    0.46       0.0  T
   2    -42.1747815  0.135062E-01  0.767E-01    0.33       1.0  T
   3    -42.1943228 -0.195414E-01  0.421E-01    0.48       1.0  T
   4    -42.1954581 -0.113525E-02  0.292E-01    0.40       1.0  T
   5    -42.1964407 -0.982575E-03  0.224E-01    0.46       1.0  T
   6    -42.1984628 -0.202211E-02  0.246E-02    0.45       1.0  T
   7    -42.1984655 -0.267497E-05  0.155E-02    0.45       1.3  T
   8    -42.1984718 -0.634365E-05  0.559E-03    0.45       3.6  T
   9    -42.1984721 -0.291146E-06  0.225E-03    0.45       8.9  T
  10    -42.1984722 -0.129624E-06  0.819E-04    0.45      24.4  T
  11    -42.1984722 -0.660101E-08  0.348E-04    0.45      57.5  T
     SCC iter.                  ...        0 min,  0.015 sec
     gradient                   ...        0 min,  0.013 sec
 * total energy  :  -115.7206127 Eh     change       -0.8278311E+01 Eh
   gradient norm :    27.6243008 Eh/α   predicted    -0.5086449E+01 ( -38.56%)
   displ. norm   :     0.7726222 α      lambda       -0.2081003E+02
   maximum displ.:     0.5044830 α      in ANC's #2, #24, #9, ...

........................................................................
.............................. CYCLE   11 ..............................
........................................................................

 iter      E             dE          RMSdq      gap      omega  full diag
   1    -42.2663496 -0.422663E+02  0.169E+00    0.39       0.0  T
   2    -41.9622249  0.304125E+00  0.311E+00    0.27       1.0  T
   3    -42.2508999 -0.288675E+00  0.134E+00    0.30       1.0  T
   4    -42.3059573 -0.550573E-01  0.474E-01    0.50       1.0  T
   5    -42.3037920  0.216526E-02  0.340E-01    0.46       1.0  T
   6    -42.3089816 -0.518956E-02  0.946E-02    0.50       1.0  T
   7    -42.3092580 -0.276410E-03  0.294E-02    0.50       1.0  T
   8    -42.3092595 -0.155569E-05  0.198E-02    0.49       1.0  T
   9    -42.3092725 -0.129564E-04  0.565E-03    0.50       3.5  T
  10    -42.3092729 -0.449480E-06  0.239E-03    0.50       8.4  T
  11    -42.3092729  0.100694E-07  0.133E-03    0.50      15.0  T
  12    -42.3092730 -0.483169E-07  0.442E-04    0.50      45.2  T
  13    -42.3092730 -0.127056E-08  0.277E-04    0.50      72.1  T
     SCC iter.                  ...        0 min,  0.018 sec
     gradient                   ...        0 min,  0.013 sec
 * total energy  :  -119.9012833 Eh     change       -0.4180671E+01 Eh
   gradient norm :    42.9469599 Eh/α   predicted    -0.1661625E+02 ( 297.45%)
   displ. norm   :     0.8670286 α      lambda       -0.3608620E+02
   maximum displ.:     0.4864552 α      in ANC's #1, #9, #2, ...

........................................................................
.............................. CYCLE   12 ..............................
........................................................................

 iter      E             dE          RMSdq      gap      omega  full diag
   1    -42.2795107 -0.422795E+02  0.198E+00    0.18       0.0  T
   2    -42.3206309 -0.411202E-01  0.116E+00    0.34       1.0  T
   3    -42.3041236  0.165072E-01  0.108E+00    0.23       1.0  T
   4    -42.3010320  0.309169E-02  0.109E+00    0.23       1.0  T
   5    -42.3257351 -0.247031E-01  0.610E-01    0.39       1.0  T
   6    -42.3419015 -0.161665E-01  0.120E-01    0.23       1.0  T
   7    -42.3423236 -0.422063E-03  0.402E-02    0.27       1.0  T
   8    -42.3423357 -0.121077E-04  0.206E-02    0.27       1.0  T
   9    -42.3423438 -0.814294E-05  0.863E-03    0.26       2.3  T
  10    -42.3423454 -0.155266E-05  0.295E-03    0.26       6.8  T
  11    -42.3423454 -0.290438E-07  0.195E-03    0.26      10.3  T
  12    -42.3423456 -0.145800E-06  0.441E-04    0.26      45.3  T
  13    -42.3423456 -0.284473E-08  0.190E-04    0.26     105.3  T
     SCC iter.                  ...        0 min,  0.018 sec
     gradient                   ...        0 min,  0.013 sec
 * total energy  :  -102.2090107 Eh     change        0.1769227E+02 Eh
   gradient norm :    30.7716024 Eh/α   predicted    -0.3160685E+02 (-278.65%)
   displ. norm   :     0.3566016 α      lambda       -0.1032676E+02
   maximum displ.:     0.1849342 α      in ANC's #9, #11, #1, ...

........................................................................
.............................. CYCLE   13 ..............................
........................................................................

 iter      E             dE          RMSdq      gap      omega  full diag
   1    -42.3156273 -0.423156E+02  0.112E+00    0.45       0.0  T
   2    -42.2827256  0.329016E-01  0.129E+00    0.13       1.0  T
   3    -42.3309603 -0.482347E-01  0.676E-01    0.46       1.0  T
   4    -42.3346311 -0.367081E-02  0.555E-01    0.36       1.0  T
   5    -42.3388114 -0.418024E-02  0.424E-01    0.29       1.0  T
   6    -42.3455572 -0.674585E-02  0.602E-02    0.41       1.0  T
   7    -42.3456315 -0.742442E-04  0.243E-02    0.40       1.0  T
   8    -42.3456466 -0.150829E-04  0.866E-03    0.40       2.3  T
   9    -42.3456473 -0.744072E-06  0.597E-03    0.40       3.3  T
  10    -42.3456484 -0.108921E-05  0.146E-03    0.40      13.7  T
  11    -42.3456484 -0.441896E-08  0.963E-04    0.40      20.8  T
  12    -42.3456484 -0.290899E-07  0.224E-04    0.40      89.4  T
     SCC iter.                  ...        0 min,  0.017 sec
     gradient                   ...        0 min,  0.013 sec
 * total energy  :  -112.2686086 Eh     change       -0.1005960E+02 Eh
   gradient norm :    29.9375858 Eh/α   predicted    -0.5819985E+01 ( -42.14%)
   displ. norm   :     0.9509887 α      lambda       -0.2822933E+02
   maximum displ.:     0.5567353 α      in ANC's #1, #2, #9, ...

........................................................................
.............................. CYCLE   14 ..............................
........................................................................

 iter      E             dE          RMSdq      gap      omega  full diag
   1    -42.1854064 -0.421854E+02  0.211E+00    0.48       0.0  T
   2    -42.2057944 -0.203880E-01  0.133E+00    0.50       1.0  T
   3    -42.2320576 -0.262631E-01  0.818E-01    0.48       1.0  T
   4    -42.2267335  0.532407E-02  0.610E-01    0.44       1.0  T
   5    -42.2310683 -0.433479E-02  0.553E-01    0.52       1.0  T
   6    -42.2426217 -0.115534E-01  0.957E-02    0.48       1.0  T
   7    -42.2428575 -0.235805E-03  0.427E-02    0.50       1.0  T
   8    -42.2429035 -0.460273E-04  0.141E-02    0.49       1.4  T
   9    -42.2429051 -0.161987E-05  0.543E-03    0.49       3.7  T
  10    -42.2429057 -0.603788E-06  0.176E-03    0.49      11.4  T
  11    -42.2429058 -0.431824E-07  0.527E-04    0.49      38.0  T
  12    -42.2429058 -0.247074E-08  0.279E-04    0.49      71.8  T
     SCC iter.                  ...        0 min,  0.017 sec
     gradient                   ...        0 min,  0.014 sec
 * total energy  :  -120.4906065 Eh     change       -0.8221998E+01 Eh
   gradient norm :    31.8296813 Eh/α   predicted    -0.2687971E+02 ( 226.92%)
   displ. norm   :     0.9974475 α      lambda       -0.2967803E+02
   maximum displ.:     0.5646256 α      in ANC's #1, #2, #9, ...

........................................................................
.............................. CYCLE   15 ..............................
........................................................................

 iter      E             dE          RMSdq      gap      omega  full diag
   1    -42.1488530 -0.421489E+02  0.191E+00    0.53       0.0  T
   2    -42.1360882  0.127648E-01  0.109E+00    0.56       1.0  T
   3    -42.1268232  0.926493E-02  0.135E+00    0.45       1.0  T
   4    -42.1557973 -0.289741E-01  0.706E-01    0.57       1.0  T
   5    -42.1462024  0.959492E-02  0.792E-01    0.42       1.0  T
   6    -42.1721360 -0.259336E-01  0.105E-01    0.54       1.0  T
   7    -42.1722765 -0.140492E-03  0.446E-02    0.54       1.0  T
   8    -42.1722618  0.146776E-04  0.363E-02    0.55       1.0  T
   9    -42.1722869 -0.250843E-04  0.841E-03    0.54       2.4  T
  10    -42.1722869  0.128414E-08  0.657E-03    0.55       3.0  T
  11    -42.1722881 -0.122251E-05  0.201E-03    0.54       9.9  T
  12    -42.1722882 -0.773390E-07  0.712E-04    0.54      28.1  T
  13    -42.1722882 -0.706253E-08  0.315E-04    0.54      63.4  T
     SCC iter.                  ...        0 min,  0.018 sec
     gradient                   ...        0 min,  0.013 sec
 * total energy  :   -98.2008764 Eh     change        0.2228973E+02 Eh
   gradient norm :    29.4334489 Eh/α   predicted    -0.2960244E+02 (-232.81%)
   displ. norm   :     0.4198627 α      lambda       -0.1221301E+02
   maximum displ.:     0.2650703 α      in ANC's #1, #2, #9, ...

........................................................................
.............................. CYCLE   16 ..............................
........................................................................

 iter      E             dE          RMSdq      gap      omega  full diag
   1    -42.1723669 -0.421724E+02  0.949E-01    0.55       0.0  T
   2    -42.1616818  0.106851E-01  0.741E-01    0.47       1.0  T
   3    -42.1659412 -0.425943E-02  0.763E-01    0.58       1.0  T
   4    -42.1692092 -0.326801E-02  0.602E-01    0.44       1.0  T
   5    -42.1821823 -0.129731E-01  0.141E-01    0.54       1.0  T
   6    -42.1825993 -0.416945E-03  0.411E-02    0.53       1.0  T
   7    -42.1826028 -0.348125E-05  0.314E-02    0.52       1.0  T
   8    -42.1826253 -0.225467E-04  0.106E-02    0.53       1.9  T
   9    -42.1826271 -0.180467E-05  0.259E-03    0.53       7.7  T
  10    -42.1826272 -0.764241E-07  0.155E-03    0.53      12.9  T
  11    -42.1826272 -0.236650E-07  0.467E-04    0.53      42.8  T
  12    -42.1826272 -0.341532E-08  0.126E-04    0.53     158.9  T
     SCC iter.                  ...        0 min,  0.016 sec
     gradient                   ...        0 min,  0.013 sec
 * total energy  :  -110.6273986 Eh     change       -0.1242652E+02 Eh
   gradient norm :    30.0832794 Eh/α   predicted    -0.7182986E+01 ( -42.20%)
   displ. norm   :     0.4179060 α      lambda       -0.1239575E+02
   maximum displ.:     0.2457833 α      in ANC's #1, #2, #24, ...

........................................................................
.............................. CYCLE   17 ..............................
........................................................................

 iter      E             dE          RMSdq      gap      omega  full diag
   1    -42.2102750 -0.422103E+02  0.886E-01    0.51       0.0  T
   2    -42.2040059  0.626911E-02  0.656E-01    0.45       1.0  T
   3    -42.2044537 -0.447806E-03  0.674E-01    0.59       1.0  T
   4    -42.2024396  0.201410E-02  0.617E-01    0.40       1.0  T
   5    -42.2153099 -0.128702E-01  0.173E-01    0.52       1.0  T
   6    -42.2166156 -0.130570E-02  0.294E-02    0.49       1.0  T
   7    -42.2166283 -0.127460E-04  0.119E-02    0.49       1.7  T
   8    -42.2166280  0.338833E-06  0.628E-03    0.49       3.2  T
   9    -42.2166287 -0.677442E-06  0.184E-03    0.50      10.9  T
  10    -42.2166288 -0.997429E-07  0.808E-04    0.49      24.7  T
  11    -42.2166288 -0.137554E-07  0.347E-04    0.49      57.6  T
     SCC iter.                  ...        0 min,  0.015 sec
     gradient                   ...        0 min,  0.013 sec
 * total energy  :  -120.9483337 Eh     change       -0.1032094E+02 Eh
   gradient norm :    14.3371897 Eh/α   predicted    -0.7280305E+01 ( -29.46%)
   displ. norm   :     0.3299841 α      lambda       -0.4497212E+01
   maximum displ.:     0.1945317 α      in ANC's #2, #1, #24, ...

........................................................................
.............................. CYCLE   18 ..............................
........................................................................

 iter      E             dE          RMSdq      gap      omega  full diag
   1    -42.2628885 -0.422629E+02  0.810E-01    0.48       0.0  T
   2    -42.2615979  0.129064E-02  0.529E-01    0.51       1.0  T
   3    -42.2573998  0.419809E-02  0.574E-01    0.41       1.0  T
   4    -42.2583629 -0.963128E-03  0.532E-01    0.54       1.0  T
   5    -42.2667403 -0.837738E-02  0.191E-01    0.47       1.0  T
   6    -42.2681632 -0.142287E-02  0.259E-02    0.48       1.0  T
   7    -42.2681691 -0.589520E-05  0.132E-02    0.48       1.5  T
   8    -42.2681722 -0.310064E-05  0.599E-03    0.49       3.3  T
   9    -42.2681734 -0.122839E-05  0.177E-03    0.49      11.3  T
  10    -42.2681734 -0.382948E-07  0.605E-04    0.49      33.1  T
  11    -42.2681734 -0.422902E-08  0.184E-04    0.49     108.6  T
     SCC iter.                  ...        0 min,  0.015 sec
     gradient                   ...        0 min,  0.013 sec
 * total energy  :  -106.3425409 Eh     change        0.1460579E+02 Eh
   gradient norm :   291.2419356 Eh/α   predicted    -0.2493455E+01 (-117.07%)
   displ. norm   :     0.2100011 α      lambda       -0.6065392E+02
   maximum displ.:     0.1052002 α      in ANC's #2, #9, #11, ...

........................................................................
.............................. CYCLE   19 ..............................
........................................................................

 iter      E             dE          RMSdq      gap      omega  full diag
   1    -42.2233273 -0.422233E+02  0.520E-01    0.50       0.0  T
   2    -42.2039831  0.193442E-01  0.830E-01    0.34       1.0  T
   3    -42.2244662 -0.204831E-01  0.338E-01    0.52       1.0  T
   4    -42.2235750  0.891225E-03  0.327E-01    0.42       1.0  T
   5    -42.2278145 -0.423949E-02  0.568E-02    0.46       1.0  T
   6    -42.2278944 -0.798896E-04  0.152E-02    0.47       1.3  T
   7    -42.2279002 -0.584415E-05  0.623E-03    0.46       3.2  T
   8    -42.2279006 -0.334527E-06  0.322E-03    0.46       6.2  T
   9    -42.2279007 -0.141828E-06  0.104E-03    0.46      19.3  T
  10    -42.2279007 -0.159737E-07  0.490E-04    0.46      40.8  T
  11    -42.2279007 -0.127005E-08  0.255E-04    0.46      78.6  T
     SCC iter.                  ...        0 min,  0.015 sec
     gradient                   ...        0 min,  0.013 sec
 * total energy  :  -121.6601918 Eh     change       -0.1531765E+02 Eh
   gradient norm :     0.2760939 Eh/α   predicted    -0.3166446E+02 ( 106.72%)
   displ. norm   :     0.0657961 α      lambda       -0.1395295E-01
   maximum displ.:     0.0254205 α      in ANC's #22, #13, #32, ...

........................................................................
.............................. CYCLE   20 ..............................
........................................................................

 iter      E             dE          RMSdq      gap      omega  full diag
   1    -42.2284648 -0.422285E+02  0.131E-01    0.46       0.0  T
   2    -42.2279968  0.468016E-03  0.150E-01    0.44       1.0  T
   3    -42.2282807 -0.283872E-03  0.110E-01    0.48       1.0  T
   4    -42.2284995 -0.218809E-03  0.733E-02    0.45       1.0  T
   5    -42.2286623 -0.162755E-03  0.269E-02    0.46       1.0  T
   6    -42.2286892 -0.269193E-04  0.791E-03    0.46       2.5  T
   7    -42.2286895 -0.331731E-06  0.514E-03    0.46       3.9  T
   8    -42.2286903 -0.834176E-06  0.123E-03    0.46      16.3  T
   9    -42.2286904 -0.145720E-07  0.461E-04    0.46      43.4  T
  10    -42.2286904 -0.278391E-09  0.286E-04    0.46      69.9  T
     SCC iter.                  ...        0 min,  0.014 sec
     gradient                   ...        0 min,  0.013 sec
 * total energy  :  -121.6728478 Eh     change       -0.1265600E-01 Eh
   gradient norm :     0.2548267 Eh/α   predicted    -0.7007398E-02 ( -44.63%)
   displ. norm   :     0.3373527 α      lambda       -0.7103527E-01
   maximum displ.:     0.1329107 α      in ANC's #32, #22, #26, ...
 * RMSD in coord.:     0.8666868 α      energy gain  -0.7741436E+02 Eh

generating ANC from model Hessian ...
Using Lindh-Hessian (1995)
 Shifting diagonal of input Hessian by    3.1597749824240893     
 Lowest  eigenvalues of input Hessian
    0.010000    0.000000    0.000000    0.000000    0.000000    0.000000
    0.000000    3.161941    3.163881    3.164195    3.165013    3.169476
    3.171103    3.177196    3.179077    3.181143    3.181869    3.187557
 Highest eigenvalues
    5.356483    5.451348    5.502809    5.544710  131.312558  150.242520


........................................................................
.............................. CYCLE   21 ..............................
........................................................................

 iter      E             dE          RMSdq      gap      omega  full diag
   1    -42.2300995 -0.422301E+02  0.546E-01    0.43       0.0  T
   2    -42.2203371  0.976233E-02  0.685E-01    0.30       1.0  T
   3    -42.2325631 -0.122259E-01  0.280E-01    0.44       1.0  T
   4    -42.2327931 -0.229989E-03  0.228E-01    0.38       1.0  T
   5    -42.2324102  0.382843E-03  0.194E-01    0.45       1.0  T
   6    -42.2341213 -0.171105E-02  0.486E-02    0.41       1.0  T
   7    -42.2341543 -0.330493E-04  0.246E-02    0.41       1.0  T
   8    -42.2341703 -0.159431E-04  0.528E-03    0.41       3.8  T
   9    -42.2341704 -0.188368E-06  0.243E-03    0.41       8.2  T
  10    -42.2341704 -0.284074E-08  0.141E-03    0.41      14.2  T
  11    -42.2341705 -0.312707E-07  0.471E-04    0.41      42.5  T
  12    -42.2341705 -0.174200E-08  0.215E-04    0.41      93.2  T
     SCC iter.                  ...        0 min,  0.016 sec
     gradient                   ...        0 min,  0.013 sec
 * total energy  :  -121.7262386 Eh     change       -0.5339081E-01 Eh
   gradient norm :     0.2916119 Eh/α   predicted     0.0000000E+00 (-100.00%)
   displ. norm   :     0.9456804 α      lambda       -0.1866103E+00
   maximum displ.:     0.9443153 α      in ANC's #1, #69, #39, ...

........................................................................
.............................. CYCLE   22 ..............................
........................................................................

 iter      E             dE          RMSdq      gap      omega  full diag
   1    -42.2306219 -0.422306E+02  0.211E+00    0.20       0.0  T
   2    -41.5174320  0.713190E+00  0.483E+00    0.31       1.0  T
   3    -42.2557385 -0.738306E+00  0.168E+00    0.21       1.0  T
   4    -42.3498282 -0.940898E-01  0.749E-01    0.40       1.0  T
   5    -42.3617343 -0.119060E-01  0.325E-01    0.50       1.0  T
   6    -42.3619524 -0.218121E-03  0.173E-01    0.48       1.0  T
   7    -42.3626083 -0.655913E-03  0.529E-02    0.51       1.0  T
   8    -42.3626556 -0.472636E-04  0.291E-02    0.49       1.0  T
   9    -42.3626747 -0.191852E-04  0.124E-02    0.50       1.6  T
  10    -42.3626767 -0.193711E-05  0.478E-03    0.50       4.2  T
  11    -42.3626772 -0.502710E-06  0.146E-03    0.50      13.7  T
  12    -42.3626772 -0.346460E-07  0.697E-04    0.50      28.7  T
  13    -42.3626772 -0.233827E-08  0.281E-04    0.50      71.2  T
     SCC iter.                  ...        0 min,  0.018 sec
     gradient                   ...        0 min,  0.013 sec
 * total energy  :  -115.4486187 Eh     change        0.6277620E+01 Eh
   gradient norm :    28.6165387 Eh/α   predicted    -0.1767945E+00 (-102.82%)
   displ. norm   :     0.5983891 α      lambda       -0.1711956E+02
   maximum displ.:     0.5963838 α      in ANC's #1, #60, #61, ...

........................................................................
.............................. CYCLE   23 ..............................
........................................................................

 iter      E             dE          RMSdq      gap      omega  full diag
   1    -42.2708468 -0.422708E+02  0.123E+00    0.50       0.0  T
   2    -42.1919221  0.789247E-01  0.182E+00    0.14       1.0  T
   3    -42.2995962 -0.107674E+00  0.527E-01    0.47       1.0  T
   4    -42.3020240 -0.242785E-02  0.319E-01    0.38       1.0  T
   5    -42.3009732  0.105085E-02  0.262E-01    0.48       1.0  T
   6    -42.3040607 -0.308749E-02  0.469E-02    0.42       1.0  T
   7    -42.3040847 -0.240406E-04  0.273E-02    0.42       1.0  T
   8    -42.3040925 -0.777739E-05  0.165E-02    0.42       1.2  T
   9    -42.3040972 -0.472542E-05  0.808E-03    0.42       2.5  T
  10    -42.3040996 -0.239802E-05  0.159E-03    0.42      12.6  T
  11    -42.3040996  0.130404E-07  0.114E-03    0.42      17.5  T
  12    -42.3040996 -0.247366E-07  0.351E-04    0.42      57.0  T
  13    -42.3040996 -0.700012E-09  0.211E-04    0.42      94.6  T
     SCC iter.                  ...        0 min,  0.018 sec
     gradient                   ...        0 min,  0.013 sec
================
 final structure:
================
25
 xtb: 6.6.1 (8d0f1dd)
C            3.21786164340000        1.13591514650000        0.01837059260000
N            2.27034809790000        0.05199982890000        0.00038279530000
C            2.54167221030000       -1.23971668410000       -0.00834188300000
N            1.39367826450000       -1.95088267900000       -0.00850347120000
C            0.35269634020000       -1.06748964300000        0.00059917290000
C            0.90759959010000        0.20069750900000        0.00663590170000
C            0.07590235260000        1.39864294500000       -0.00284827040000
O            0.48715076820000        2.53168346660000       -0.01725767220000
N           -1.27221500230000        1.06666939660000        0.00165480230000
C           -2.23229981500000        2.16656245330000       -0.00245172030000
C           -1.84872931540000       -0.19179276200000        0.00496135950000
O           -3.03273030250000       -0.36103538130000        0.00858583760000
N           -0.96599111670000       -1.30060631840000        0.00174701630000
C           -1.52030655580000       -2.64076660390000       -0.00239033190000
H            3.71480285180000        1.18589984860000        0.98803183970000
H            3.97079415090000        0.99383197990000       -0.75543416370000
H            2.68321036910000        2.07051068580000       -0.15067179540000
H            3.52469367910000       -1.66989040330000       -0.01523639120000
H           -1.67672429040000        3.10039111610000        0.00486339690000
H           -2.85755792270000        2.10547813320000       -0.89185337000000
H           -2.87119733260000        2.09858159720000        0.87661144540000
H           -1.20589108080000       -3.18768007210000        0.88663215920000
H           -1.21982032550000       -3.17678505510000       -0.90288069810000
H           -2.60531402170000       -2.54255916880000        0.00649952960000
H            1.32879827740000       -2.95942079410000       -0.01653446370000

 Bond Distances (Angstroems)
 ---------------------------
C1-N2=1.4398         C1-H15=1.0907        C1-H16=1.0890        C1-H17=1.0899        N2-C1=1.4398         N2-C3=1.3199         
N2-C6=1.3709         C3-N2=1.3199         C3-N4=1.3504         C3-H18=1.0730        N4-C3=1.3504         N4-C5=1.3653         
N4-H25=1.0107        C5-N4=1.3653         C5-C6=1.3843         C5-N13=1.3391        C6-N2=1.3709         C6-C5=1.3843         
C6-C7=1.4584         C7-C6=1.4584         C7-O8=1.2055         C7-N9=1.3884         O8-C7=1.2055         N9-C7=1.3884         
N9-C10=1.4600        N9-C11=1.3842        C10-N9=1.4600        C10-H19=1.0866       C10-H20=1.0889       C10-H21=1.0888       
C11-N9=1.3842        C11-O12=1.1960       C11-N13=1.4173       O12-C11=1.1960       N13-C5=1.3391        N13-C11=1.4173       
N13-C14=1.4503       C14-N13=1.4503       C14-H22=1.0901       C14-H23=1.0902       C14-H24=1.0895       H15-C1=1.0907        
H16-C1=1.0890        H17-C1=1.0899        H18-C3=1.0730        H19-C10=1.0866       H20-C10=1.0889       H21-C10=1.0888       
H22-C14=1.0901       H23-C14=1.0902       H24-C14=1.0895       H25-N4=1.0107        
 C  H  Rav=1.0877 sigma=0.0050  Rmin=1.0730  Rmax=1.0907    10
 C  C  Rav=1.4213 sigma=0.0370  Rmin=1.3843  Rmax=1.4584     2
 N  H  Rav=1.0107 sigma=0.0000  Rmin=1.0107  Rmax=1.0107     1
 N  C  Rav=1.3896 sigma=0.0445  Rmin=1.3199  Rmax=1.4600    11
 O  C  Rav=1.2007 sigma=0.0047  Rmin=1.1960  Rmax=1.2055     2

 selected bond angles (degree)
 --------------------
H15-C1-N2=110.21               H16-C1-N2=110.36               H16-C1-H15=108.82              H17-C1-N2=108.71               
H17-C1-H15=108.79              H17-C1-H16=109.93              C3-N2-C1=126.98                C6-N2-C1=124.92                
C6-N2-C3=108.09                N4-C3-N2=109.91                H18-C3-N2=125.50               H18-C3-N4=124.59               
C5-N4-C3=107.90                H25-N4-C3=125.46               H25-N4-C5=126.64               C6-C5-N4=106.69                
N13-C5-N4=129.66               N13-C5-C6=123.66               C5-C6-N2=107.40                C7-C6-N2=130.99                
C7-C6-C5=121.59                O8-C7-C6=125.28                N9-C7-C6=110.94                N9-C7-O8=123.78                
C10-N9-C7=117.28               C11-N9-C7=128.45               C11-N9-C10=114.27              H19-C10-N9=108.13              
H20-C10-N9=109.73              H20-C10-H19=110.32             H21-C10-N9=109.67              H21-C10-H19=110.38             
H21-C10-H20=108.60             

 selected dihedral angles (degree)
 ---------------------------------
C3-N2-C1-H15=289.54           C3-N2-C1-H16= 49.76           C3-N2-C1-H17=170.39           C6-N2-C1-H15=108.66           
C6-N2-C1-H16=228.88           C6-N2-C1-H17=349.51           N4-C3-N2-C1=179.26            N4-C3-N2-C6=  0.00            
H18-C3-N2-C1=359.21           H18-C3-N2-C6=179.97           C5-N4-C3-N2=  0.00            C5-N4-C3-H18=180.05           
H25-N4-C3-N2=179.85           H25-N4-C3-H18=359.90          C6-C5-N4-C3=  0.00            C6-C5-N4-H25=180.14           
N13-C5-N4-C3=179.88           N13-C5-N4-H25=  0.03          C5-C6-N2-C1=180.71            C5-C6-N2-C3=359.97            
C7-C6-N2-C1=  1.78            C7-C6-N2-C3=181.03            N2-C6-C5-N4=  0.03            N2-C6-C5-N13=180.13           
C7-C6-C5-N4=179.08            C7-C6-C5-N13=359.18           O8-C7-C6-N2=359.91            O8-C7-C6-C5=181.10            
N9-C7-C6-N2=179.67            N9-C7-C6-C5=  0.86            C10-N9-C7-C6=179.81           C10-N9-C7-O8=359.58           
C11-N9-C7-C6=359.56           C11-N9-C7-O8=179.33           H19-C10-N9-C7=359.25          H19-C10-N9-C11=179.46         
H20-C10-N9-C7=119.63          H20-C10-N9-C11=299.84         H21-C10-N9-C7=238.84          H21-C10-N9-C11= 59.06         
           -------------------------------------------------
          |                Final Singlepoint                |
           -------------------------------------------------

          ...................................................
          :                      SETUP                      :
          :.................................................:
          :  # basis functions                  67          :
          :  # atomic orbitals                  67          :
          :  # shells                           39          :
          :  # electrons                        74          :
          :  max. iterations                   250          :
          :  Hamiltonian                  GFN2-xTB          :
          :  restarted?                      false          :
          :  GBSA solvation                  false          :
          :  PC potential                    false          :
          :  electronic temp.         5000.0000000     K    :
          :  accuracy                    1.0000000          :
          :  -> integral cutoff          0.2500000E+02      :
          :  -> integral neglect         0.1000000E-07      :
          :  -> SCF convergence          0.1000000E-05 Eh   :
          :  -> wf. convergence          0.1000000E-03 e    :
          :  Broyden damping             0.4000000          :
          ...................................................

 iter      E             dE          RMSdq      gap      omega  full diag
   1    -42.6005376 -0.426005E+02  0.292E+00    1.88       0.0  T
   2    -42.7432976 -0.142760E+00  0.179E+00    3.69       1.0  T
   3    -42.7767337 -0.334362E-01  0.969E-01    3.33       1.0  T
   4    -42.7773315 -0.597813E-03  0.342E-01    3.34       1.0  T
   5    -42.7789308 -0.159929E-02  0.108E-01    3.30       1.0  T
   6    -42.7790393 -0.108428E-03  0.579E-02    3.35       1.0  T
   7    -42.7790757 -0.364361E-04  0.209E-02    3.34       1.0  T
   8    -42.7790771 -0.144090E-05  0.956E-03    3.34       2.1  T
   9    -42.7790779 -0.778598E-06  0.375E-03    3.34       5.3  T
  10    -42.7790780 -0.407096E-07  0.145E-03    3.34      13.8  T
  11    -42.7790780 -0.218258E-07  0.568E-04    3.34      35.2  T
  12    -42.7790780 -0.193442E-08  0.243E-04    3.34      82.4  T

   *** convergence criteria satisfied after 12 iterations ***

         #    Occupation            Energy/Eh            Energy/eV
      -------------------------------------------------------------
         1        2.0000           -0.9185959             -24.9963
       ...           ...                  ...                  ...
        31        1.9996           -0.6230262             -16.9534
        32        1.9995           -0.6194594             -16.8563
        33        1.9979           -0.5974994             -16.2588
        34        1.9932           -0.5789659             -15.7545
        35        1.9817           -0.5631862             -15.3251
        36        1.9779           -0.5602269             -15.2445
        37        1.9748           -0.5581232             -15.1873 (HOMO)
        38        0.0652           -0.4353550             -11.8466 (LUMO)
        39        0.0099           -0.4050458             -11.0219
        40        0.0013           -0.3732227             -10.1559
        41        0.0000           -0.2886862              -7.8556
        42                         -0.2065807              -5.6213
       ...                                ...                  ...
        67                          0.5625646              15.3082
      -------------------------------------------------------------
                  HL-Gap            0.1227681 Eh            3.3407 eV
             Fermi-level           -0.4890447 Eh          -13.3076 eV

 SCC (total)                   0 d,  0 h,  0 min,  0.035 sec
 SCC setup                      ...        0 min,  0.000 sec (  0.549%)
 Dispersion                     ...        0 min,  0.000 sec (  0.560%)
 classical contributions        ...        0 min,  0.000 sec (  0.201%)
 integral evaluation            ...        0 min,  0.005 sec ( 14.371%)
 iterations                     ...        0 min,  0.016 sec ( 46.966%)
 molecular gradient             ...        0 min,  0.013 sec ( 36.922%)
 printout                       ...        0 min,  0.000 sec (  0.390%)

         :::::::::::::::::::::::::::::::::::::::::::::::::::::
         ::                     SUMMARY                     ::
         :::::::::::::::::::::::::::::::::::::::::::::::::::::
         :: total energy             -44.258491217171 Eh    ::
         :: gradient norm              5.672821987459 Eh/a0 ::
         :: HOMO-LUMO gap              3.340690371383 eV    ::
         ::.................................................::
         :: SCC energy               -42.779077976885 Eh    ::
         :: -> isotropic ES            0.141126822683 Eh    ::
         :: -> anisotropic ES         -0.005230690087 Eh    ::
         :: -> anisotropic XC          0.011966936653 Eh    ::
         :: -> dispersion             -0.022657735330 Eh    ::
         :: repulsion energy           0.531105277918 Eh    ::
         :: add. restraining          -2.010632677213 Eh    ::
         :: total charge               1.000000000002 e     ::
         :::::::::::::::::::::::::::::::::::::::::::::::::::::


last geometry written to: xtblast.xyz

########################################################################
[ERROR] Program stopped due to fatal error
-5- Geometry optimization failed
-4- xtb_geoopt: Trying to recover from failed geometry optimization
-3- xtb_geoopt: Geometry optimization did not converge
-2- optimizer_ancopt: Could not relax structure
-1- optimizer_relax: |grad| > 500, something is totally wrong!
########################################################################
