25
 energy: -43.833816528995 gnorm: 0.124419873856 xtb: 6.6.1 (8d0f1dd)
C            3.27313072568590        1.16523469796831        0.08916472309817
N            2.32311119565493        0.10237142934417        0.03453274249889
C            2.60610790648967       -1.23721412785954        0.02845883433400
N            1.41295279946712       -1.93996239722463       -0.01280932860295
C            0.40786461357643       -1.03920812658066       -0.01194418116056
C            0.92207474155053        0.24724421884833        0.01486239990771
C            0.06418292003381        1.37080876383402        0.01537197888582
O            0.44394687109904        2.56401705659251        0.02777368722142
N           -1.33968794873027        1.05242153997470       -0.03342934933437
C           -2.28307760178160        2.17350507249204       -0.06197917143475
C           -1.89748420975657       -0.19989870559691       -0.02488096564944
O           -3.04566084720890       -0.40173254078347       -0.05844435634030
N           -0.94767951945783       -1.27746816494098       -0.02476760574247
C           -1.44501315443351       -2.64301567333667       -0.05738054049385
H            3.74174612791813        1.22775743281200        1.08438771332656
H            4.08470387221450        0.98892662476719       -0.63931324508892
H            2.78419964060682        2.08732677913264       -0.13899185899700
H            3.58706061822516       -1.67079522700033        0.03593435417281
H           -1.71541416342854        3.09354559344380       -0.03602400969863
H           -2.87591887821372        2.15114461854320       -0.96314559628392
H           -2.93672782078983        2.13061449345254        0.80101548906682
H           -1.11950275041857       -3.20533865227351        0.82016861507831
H           -1.12621924358220       -3.16278811487897       -0.96456267922102
H           -2.52817233354427       -2.57249328633217       -0.04135316015793
H            1.34927908852516       -2.94399801877424       -0.02834200647147
25
 energy: -43.838223174944 gnorm: 0.032319664927 xtb: 6.6.1 (8d0f1dd)
C            3.27208864635243        1.16649603650696        0.08951902779903
N            2.31461042391667        0.10941069512477        0.03248396512005
C            2.59780663030714       -1.23852080632944        0.02829017365809
N            1.40568972296732       -1.93250720914055       -0.00936602130053
C            0.39849443076016       -1.03886681129405       -0.01188630263918
C            0.91725832837956        0.24849014107476        0.01334019279784
C            0.07543768758044        1.38191140800951        0.00948971692466
O            0.44056926160843        2.56835493070910        0.02624624703352
N           -1.31997385391283        1.04940735981709       -0.03414150459772
C           -2.26528574885570        2.16185259829407       -0.05787285970537
C           -1.87444345795873       -0.19978410423104       -0.03781579074496
O           -3.05796990452091       -0.41034179879428       -0.05499355852901
N           -0.94626841280888       -1.28134533275070       -0.02701246859828
C           -1.45011994260529       -2.63849591281720       -0.05511986253149
H            3.73413730850486        1.23066343072841        1.08397418753874
H            4.07368684345470        0.99265324167566       -0.64050844103238
H            2.76956398063159        2.09834730403314       -0.13291801004407
H            3.57215713300515       -1.67254068499369        0.03332422704418
H           -1.68692882475365        3.08165849817228       -0.03135267080580
H           -2.86421394328762        2.13090070839940       -0.96520142555180
H           -2.92686593206955        2.11429024307289        0.80551635049676
H           -1.11713456222935       -3.19693875719878        0.82295079887839
H           -1.12620403373584       -3.15494953269477       -0.96197628528402
H           -2.53621827662689       -2.57351812843089       -0.04530522248169
H            1.33992914559816       -2.93562223131925       -0.02536198053201
25
 energy: -43.838269021361 gnorm: 0.021540269903 xtb: 6.6.1 (8d0f1dd)
C            3.28823598499875        1.15544836470543        0.08837859726666
N            2.31539138632660        0.11016963760883        0.03245448402850
C            2.60345617918811       -1.24258944525377        0.03033187540960
N            1.41081597156104       -1.93110965019993       -0.01175130313401
C            0.39702976912250       -1.04220338080965       -0.00890217332488
C            0.91631183419640        0.24600480726891        0.01898114820200
C            0.07564879295371        1.38591954671456        0.01658159256575
O            0.43584317499017        2.56626231397184        0.03049206070058
N           -1.32354468381714        1.05618321383435       -0.02603040195828
C           -2.28124245771633        2.16652617062697       -0.06150465710557
C           -1.86104507887621       -0.19600280998524       -0.02729729717947
O           -3.05817940571840       -0.41378320683687       -0.05099209973658
N           -0.94494693456006       -1.28257051874344       -0.02236530680962
C           -1.44639844586386       -2.63872230143849       -0.05732907478535
H            3.74503897305480        1.22345762202907        1.08294555859041
H            4.08770681961464        0.97519401244315       -0.63638447783898
H            2.79065221871190        2.09391904322449       -0.14207027995582
H            3.57915192474097       -1.67115370438277        0.03603175825688
H           -1.72297476219724        3.10029822260424       -0.04015714462383
H           -2.88911606109671        2.14003644722916       -0.96778701534157
H           -2.95263241769790        2.13018496042500        0.79736091559557
H           -1.11353914979293       -3.20584844812838        0.81576374798865
H           -1.12746074840718       -3.15604627517689       -0.96687400320282
H           -2.53201947661216       -2.57309467164740       -0.04245199796714
H            1.34761924259791       -2.93547466445976       -0.03312202272777
25
 energy: -43.838808930418 gnorm: 0.008726583255 xtb: 6.6.1 (8d0f1dd)
C            3.27712206848085        1.16213549458490        0.08978580519162
N            2.31323223177221        0.10919972393139        0.03041008525325
C            2.60465534245044       -1.24345016826859        0.02843045725543
N            1.41167324527242       -1.93428745991339       -0.01062979435187
C            0.39601266425252       -1.04632638956666       -0.01218023175618
C            0.91512456684216        0.24104467120544        0.01456637803019
C            0.07551306994194        1.38068286757005        0.01053338411450
O            0.43763997340766        2.56121216840135        0.02483423358982
N           -1.32469620684483        1.05176455632161       -0.03218825788369
C           -2.27042044702418        2.16816304852985       -0.05816453847722
C           -1.86307867289757       -0.19802558148481       -0.03401296618031
O           -3.05600401855250       -0.41131219901189       -0.06146997278748
N           -0.94832700762474       -1.28510607356987       -0.02637379715622
C           -1.44912372209345       -2.64127313021128       -0.05546820143018
H            3.73389341512141        1.23148427942864        1.08444995113587
H            4.07625272950226        0.99495939694203       -0.63875005463586
H            2.77161078549535        2.09571465881599       -0.13584270401511
H            3.58240349282467       -1.66907300478205        0.03497680494004
H           -1.69990179748238        3.09299514556733       -0.03144443005493
H           -2.87607768408565        2.15184193311821       -0.96397485277842
H           -2.93403354945346        2.12833426267412        0.80491055172554
H           -1.12095344689322       -3.20250871075524        0.82311564632367
H           -1.12756527382329       -3.16455928716402       -0.96096894360869
H           -2.53411805860862       -2.57317558841137       -0.04342894058898
H            1.34896894972137       -2.93942932832836       -0.02681312894186
25
 energy: -43.838743916769 gnorm: 0.011943897105 xtb: 6.6.1 (8d0f1dd)
C            3.27908182622157        1.16206545238740        0.08972756718482
N            2.31327525915233        0.11149429628152        0.03186547329532
C            2.59998850489866       -1.24177873891063        0.02859380305307
N            1.40580242639232       -1.93025341065271       -0.01005575172474
C            0.39443289794338       -1.03938946990887       -0.01065217380055
C            0.91581537122823        0.24668866275746        0.01663741142497
C            0.07544086963408        1.38480097908584        0.01306376714025
O            0.43761388810648        2.56756095895279        0.02826473843634
N           -1.32565374660731        1.05059010535111       -0.02954847811908
C           -2.27096606296205        2.16044530653988       -0.06043207979458
C           -1.86710025583014       -0.19685592058162       -0.02844470366107
O           -3.05557859161530       -0.40776545677712       -0.05244790370220
N           -0.95051131495372       -1.27973417706017       -0.02384790551779
C           -1.44839456847416       -2.63606039984990       -0.05705380476639
H            3.73964517667224        1.22718186964692        1.08327911098598
H            4.07626120566953        0.98751991465712       -0.64092893005386
H            2.77924442282635        2.09703009997421       -0.13468246935453
H            3.57561504538419       -1.67147541504740        0.03306627069127
H           -1.69823027372024        3.08310392690426       -0.03711837332553
H           -2.86815518971904        2.12697304623608       -0.96926432704414
H           -2.93314344363223        2.11439402394108        0.80229521627334
H           -1.11460651445652       -3.19817002180109        0.81886006071992
H           -1.12479698559085       -3.15037584682549       -0.96646107716475
H           -2.53377643317672       -2.57192237072268       -0.04407004501415
H            1.33849913631031       -2.93506212895461       -0.02634291324897
25
 energy: -43.838958760974 gnorm: 0.002428442288 xtb: 6.6.1 (8d0f1dd)
C            3.27999304967123        1.16122564887948        0.08957370762985
N            2.31363913177911        0.11102464148828        0.03117346210780
C            2.60221939603385       -1.24252374674470        0.02964222013609
N            1.40904584398147       -1.93143565905173       -0.01119058926899
C            0.39567085851250       -1.04211245967769       -0.01238887801211
C            0.91600579256257        0.24475241693195        0.01480275914037
C            0.07609675061494        1.38402044278882        0.01084705893577
O            0.43780961609058        2.56558852745542        0.02749927445647
N           -1.32594110967621        1.05178059456212       -0.03207026775148
C           -2.27263594460665        2.16466072923384       -0.05830158201753
C           -1.86428863351487       -0.19771830158622       -0.03436613845839
O           -3.05573643684634       -0.41079341794844       -0.05701128942123
N           -0.94895532676371       -1.28220402182106       -0.02638662233271
C           -1.44832489300447       -2.63870211456769       -0.05546029176326
H            3.73689990715716        1.22889048142157        1.08433505716108
H            4.07961020103029        0.98609804430592       -0.63747797753427
H            2.77898259229163        2.09603934732609       -0.13821340819125
H            3.57823196355052       -1.67053358959980        0.03565956197670
H           -1.70289766191727        3.08990447346288       -0.03294560464660
H           -2.87572837784004        2.14011088259153       -0.96460361442651
H           -2.93680458121226        2.12203921561189        0.80376239973906
H           -1.11679320265377       -3.20020690506488        0.82184597624324
H           -1.12643139402426       -3.15877702143127       -0.96225233714851
H           -2.53381799383290       -2.57372553632518       -0.04335304712697
H            1.34395310231827       -2.93639738661774       -0.02881734651371
25
 energy: -43.838901822697 gnorm: 0.004974531548 xtb: 6.6.1 (8d0f1dd)
C            3.27838428861290        1.16193567496982        0.08936214603918
N            2.31353907212856        0.11018918815698        0.03169694351702
C            2.60353814888729       -1.24339428179260        0.02833683506030
N            1.41066355182442       -1.93292583266786       -0.00921564243955
C            0.39611164698828       -1.04439866063890       -0.00854585538723
C            0.91595711694158        0.24262863164539        0.01863947058028
C            0.07671957474870        1.38237088764130        0.01499172055561
O            0.43824408111015        2.56339630521007        0.02721654254318
N           -1.32585419571846        1.05138941295385       -0.02849820879593
C           -2.27131281765980        2.16607694879688       -0.06121397491613
C           -1.86342362672623       -0.19837921665176       -0.02808801020141
O           -3.05576904531647       -0.41128248843772       -0.05395559281043
N           -0.94874072967392       -1.28357603325495       -0.02244571657520
C           -1.44898684738050       -2.63953320846616       -0.05710784647528
H            3.73876054646034        1.22841750869793        1.08247814212928
H            4.07536313514636        0.99278257427859       -0.64176280013406
H            2.77353500524307        2.09622476723818       -0.13343563772451
H            3.58025830946614       -1.67001230541120        0.03137022452786
H           -1.70140098590632        3.09145849529089       -0.03796428384873
H           -2.87399321944595        2.14180117276733       -0.96830263666931
H           -2.93737834168337        2.12856277985991        0.79985602198078
H           -1.11879155634222       -3.20500808694963        0.81808929092523
H           -1.12788780999633       -3.15705158363228       -0.96589482694750
H           -2.53433239914548       -2.57259842124001       -0.04458928295390
H            1.34659974713865       -2.93806894274068       -0.02671453906666
25
 energy: -43.838970991884 gnorm: 0.000773487421 xtb: 6.6.1 (8d0f1dd)
C            3.27949361557834        1.16132308381530        0.08959421268313
N            2.31356967238519        0.11065026712331        0.03099168972194
C            2.60249788700643       -1.24301834055028        0.02913714142835
N            1.40937965014607       -1.93195635183574       -0.01054556301622
C            0.39569748093100       -1.04280781619933       -0.01139498356082
C            0.91598998010231        0.24401355210273        0.01567532535108
C            0.07647103214579        1.38342998762702        0.01185876469787
O            0.43773839975213        2.56485087146559        0.02658108478470
N           -1.32617119167849        1.05157087502534       -0.03097330065916
C           -2.27225334028230        2.16473013227458       -0.05919888313818
C           -1.86419205794468       -0.19784070319658       -0.03190121395311
O           -3.05585880284831       -0.41035816159949       -0.05648419313677
N           -0.94913229972243       -1.28232981162443       -0.02519829834346
C           -1.44839923502275       -2.63860669692504       -0.05617876363598
H            3.73751847086233        1.22844284846801        1.08388136357432
H            4.07830581609253        0.98880661764427       -0.63891833703464
H            2.77741511983727        2.09596231161313       -0.13634543206840
H            3.57885473402833       -1.67045548914949        0.03467305507372
H           -1.70255289361046        3.08999799809733       -0.03424915715305
H           -2.87521838368295        2.14035986474937       -0.96579269229407
H           -2.93630541774881        2.12267443288450        0.80305956671961
H           -1.11715191442794       -3.20082569913980        0.82071173979065
H           -1.12648780234115       -3.15783867624042       -0.96362459969080
H           -2.53379608285761       -2.57274531585299       -0.04358769519299
H            1.34439021300154       -2.93702449495352       -0.02746834803479
25
 energy: -43.838964734668 gnorm: 0.001505766866 xtb: 6.6.1 (8d0f1dd)
C            3.27928557060189        1.16167244332792        0.08946701753036
N            2.31336246782416        0.11108388565866        0.03158607437858
C            2.60224207449112       -1.24254355099230        0.02926895155361
N            1.40929647736141       -1.93154030816918       -0.01129682174139
C            0.39558357686803       -1.04257623184984       -0.01141139972744
C            0.91578716213714        0.24435515372125        0.01627526896659
C            0.07648031881001        1.38367001444129        0.01303852065684
O            0.43747565138120        2.56523927508797        0.02971128443795
N           -1.32638785181154        1.05142364946907       -0.03069823781970
C           -2.27173967706310        2.16492550169033       -0.05938026099952
C           -1.86431799766886       -0.19818928613993       -0.03257430296563
O           -3.05582777245188       -0.41063768334357       -0.05628906967303
N           -0.94929052450559       -1.28256117004168       -0.02523097053769
C           -1.44853412459117       -2.63918675911687       -0.05560412824333
H            3.73707519898021        1.22980754732953        1.08381980760665
H            4.07828501937633        0.98704517654966       -0.63844593797128
H            2.77779306555508        2.09619670175184       -0.13809209427203
H            3.57861862892189       -1.66990005002990        0.03397360873580
H           -1.70108400368267        3.08962516209408       -0.03473718798727
H           -2.87366556146186        2.14001320892289       -0.96649418351786
H           -2.93682983127565        2.12427320457562        0.80215364872040
H           -1.11744984934688       -3.20173460756721        0.82120669976149
H           -1.12667738195902       -3.15865771169451       -0.96280795188506
H           -2.53403277637804       -2.57423856376040       -0.04349749879314
H            1.34435478958915       -2.93655971629133       -0.02963835330095
25
 energy: -43.838971448868 gnorm: 0.000425809214 xtb: 6.6.1 (8d0f1dd)
C            3.27943801499999        1.16146894788938        0.08962843180747
N            2.31357769879686        0.11083158335018        0.03127624889907
C            2.60243894736289       -1.24285572405142        0.02933875633087
N            1.40943982396945       -1.93175738144684       -0.01044430491955
C            0.39576268802993       -1.04270497968553       -0.01129534095343
C            0.91598871702386        0.24420388730687        0.01576785054191
C            0.07676490035615        1.38362799493231        0.01169831607986
O            0.43782299839257        2.56511495436916        0.02690371200074
N           -1.32631006353232        1.05156798498813       -0.03111477081189
C           -2.27216455416796        2.16476374072056       -0.05908494106148
C           -1.86409220521482       -0.19805861321920       -0.03230159751043
O           -3.05568996036030       -0.41052545833459       -0.05596566773751
N           -0.94911313678262       -1.28239481724268       -0.02520459661004
C           -1.44852599580708       -2.63880400024026       -0.05609730941677
H            3.73764962063911        1.22860394968977        1.08383101746205
H            4.07814437788499        0.98820654232188       -0.63891808382039
H            2.77749362188570        2.09612728790717       -0.13648105657035
H            3.57880848796756       -1.67026380529229        0.03443693097516
H           -1.70227292319408        3.08993678816242       -0.03448390922269
H           -2.87506590099310        2.14003155250934       -0.96562935726415
H           -2.93653307164359        2.12340790611236        0.80297933483942
H           -1.11743631527308       -3.20152459775038        0.82057495249770
H           -1.12676648965513       -3.15791109082998       -0.96358265179938
H           -2.53398181827947       -2.57327551185735       -0.04384714872422
H            1.34442518729584       -2.93681185468563       -0.02768233209905
25
 energy: -43.813309849711 gnorm: 0.253019241941 xtb: 6.6.1 (8d0f1dd)
C            3.30729996863271        1.15120870515148        0.09298801810377
N            2.34716598947407        0.12739469521257        0.01976409561936
C            2.62633733589046       -1.26421798233573        0.02241663289517
N            1.38790139425337       -1.92857359066969       -0.03222492938775
C            0.41588783905716       -1.01152422672009       -0.01520864521111
C            0.90768466147690        0.28066688163540        0.01586737029054
C            0.01865244402088        1.35720158583933        0.04109463932724
O            0.38087380125514        2.56996200044067        0.06172560076195
N           -1.42957785477018        1.05828978067720       -0.03497983223375
C           -2.34426590123588        2.19923717502172       -0.07617594736349
C           -1.97649691543949       -0.20032677030016        0.00231865588465
O           -3.07917763073830       -0.43791868370708       -0.03644767519962
N           -0.96111924547421       -1.24844113853908       -0.00808195232917
C           -1.41997631453374       -2.64190357793861       -0.05469395259833
H            3.76288270734379        1.23149971545618        1.11449253867883
H            4.15129242277761        0.93214196699998       -0.60088876591016
H            2.86931392075397        2.07866269719524       -0.18704899978187
H            3.59412192237819       -1.70587719809523        0.01837590118766
H           -1.76018987740928        3.10844071122386       -0.04487423806669
H           -2.92640739812268        2.20808035924121       -0.97751980797192
H           -2.99793855164115        2.18106516981263        0.78227063258161
H           -1.06788761334461       -3.21198867677000        0.80805075421708
H           -1.11028252776996       -3.14741192165182       -0.97461961411153
H           -2.50409289019147       -2.59497142009155       -0.00912682484693
H            1.32447425959220       -2.93543727770653       -0.05336879267093
25
 energy: -43.831245938884 gnorm: 0.052691920502 xtb: 6.6.1 (8d0f1dd)
C            3.30425391296324        1.14704746852921        0.09308090050875
N            2.32359599166973        0.12362158572810        0.01967307218330
C            2.59758878052522       -1.24836353667424        0.02252497538841
N            1.38424996046406       -1.92139282820164       -0.02656923309725
C            0.39707813180253       -1.01764976026139       -0.01491570229099
C            0.90449892938939        0.27331705235596        0.01483568132776
C            0.03610234151851        1.37953287981402        0.02917655281152
O            0.38074303037046        2.57366633328729        0.06225523964215
N           -1.38621772229414        1.05714889873938       -0.03487200369496
C           -2.31847427531479        2.18383631484906       -0.06862783352026
C           -1.93098898714301       -0.19842349940899       -0.02006966323262
O           -3.10125108182137       -0.44571682322747       -0.03057568007334
N           -0.95545319321871       -1.26065491335054       -0.01166732163747
C           -1.42751415340359       -2.63638063179973       -0.05041386683521
H            3.74581581747998        1.23248254744169        1.10525969492393
H            4.13696219204035        0.93244316351360       -0.59803469308470
H            2.85578938824720        2.09082672772212       -0.17849884048290
H            3.56742918581500       -1.68886760576509        0.01377130204266
H           -1.73198257976057        3.09858025589462       -0.03854213095272
H           -2.91109195528142        2.17914374488085       -0.97972321809693
H           -2.98816895158245        2.16039541080445        0.78876564089497
H           -1.06486994844442       -3.20125613425129        0.81160054375012
H           -1.11118965355137       -3.13444843629435       -0.97060823762116
H           -2.51379172735234       -2.59763890198295       -0.01430730685200
H            1.32336251311802       -2.92599033296078       -0.04941301013644
25
 energy: -43.831803498933 gnorm: 0.021552188574 xtb: 6.6.1 (8d0f1dd)
C            3.32331564068314        1.13710508945104        0.09438146952422
N            2.32385355969844        0.11776477756196        0.02257030368013
C            2.60097847812602       -1.24822124617448        0.02394905991882
N            1.39316871701324       -1.91815052103186       -0.03024930328655
C            0.39193458532070       -1.01960548349830       -0.01174675999307
C            0.90782747622564        0.26885459367548        0.02411351256758
C            0.03275598141595        1.38633024211178        0.03919057705434
O            0.37029065093488        2.57157749679233        0.06305072212099
N           -1.38769947022499        1.06307045526854       -0.02317711490510
C           -2.33680260340779        2.18784784444990       -0.07495084321039
C           -1.91072188341621       -0.19525752786977       -0.00246401187527
O           -3.09379478051289       -0.44936366014821       -0.02337926301367
N           -0.95426495648165       -1.26224537815959       -0.00667787524183
C           -1.42278234656570       -2.63462094888132       -0.05480878360421
H            3.76004450158109        1.22554808303622        1.10313981258938
H            4.14770828410666        0.91947085419255       -0.59717018400459
H            2.87457470479385        2.08446435382713       -0.18509869995580
H            3.57440968383915       -1.69652561118615        0.01777050090344
H           -1.76673019136342        3.11395509578087       -0.05101231448876
H           -2.93939707824715        2.18911592085151       -0.98490269705922
H           -3.01534629899038        2.17792624728581        0.77820562141825
H           -1.06190970180234       -3.20968346788279        0.80174527124941
H           -1.11357222317522       -3.13750258183349       -0.97699309252653
H           -2.50761184537547       -2.59356284147490       -0.01183104215328
H            1.32624706205995       -2.92303280676237       -0.05955000384368
25
 energy: -43.832421443328 gnorm: 0.013653709392 xtb: 6.6.1 (8d0f1dd)
C            3.31335125731717        1.14667156756436        0.09561422535003
N            2.32054438882087        0.11787273805463        0.01794754120836
C            2.60229978816630       -1.24773268155534        0.02021253321735
N            1.39508785842431       -1.91988503473843       -0.02751168036887
C            0.38734882291543       -1.02347392972461       -0.01666352198538
C            0.90695417281967        0.26312712216558        0.01591546666000
C            0.03174250638022        1.38280176521527        0.03049889730004
O            0.37094885170012        2.56647401812657        0.05872178384395
N           -1.38757489504914        1.05631096283093       -0.03169971764381
C           -2.32209734191090        2.18884212953500       -0.06855683046504
C           -1.90966219368277       -0.19854079617176       -0.01660408981461
O           -3.09267341340770       -0.44787527783232       -0.04210960962681
N           -0.96021687805348       -1.26591564413883       -0.01313923199631
C           -1.42679469144841       -2.63718701087018       -0.05080490232566
H            3.74294844525959        1.23570212565376        1.10640798619894
H            4.13685571635056        0.93919953132616       -0.59763080911787
H            2.85313586704060        2.08977408132832       -0.18287193341068
H            3.57715666241384       -1.69671335372663        0.01633953886205
H           -1.73658361059251        3.10441720418171       -0.03586599775433
H           -2.92359314877812        2.20374994026006       -0.97799956858572
H           -2.99259956078100        2.17209642670051        0.78958347409721
H           -1.06974687386077       -3.20448285308688        0.81309161357458
H           -1.11214646113886       -3.14785228486766       -0.96759677238285
H           -2.51182222057784       -2.59651358019050       -0.01241234294836
H            1.32361289790834       -2.92560818665785       -0.04876119002159
25
 energy: -43.832469393015 gnorm: 0.011236621393 xtb: 6.6.1 (8d0f1dd)
C            3.31498337798175        1.14714009169877        0.09545670828984
N            2.32043768731737        0.12237185783340        0.01931491331520
C            2.59853135311914       -1.24549580897083        0.02023374781283
N            1.39018658942470       -1.91671813880734       -0.02701889023960
C            0.38656586891777       -1.01700101614378       -0.01317865961127
C            0.90736518976501        0.26897158075631        0.01793603268750
C            0.03312213116683        1.38667741911376        0.03263008260264
O            0.37744751700894        2.57289122376920        0.06388678907541
N           -1.38823004770219        1.05496429338311       -0.02814291346134
C           -2.32199543937124        2.18073838129871       -0.07189350357883
C           -1.91589175633023       -0.19744930220238       -0.00840719889341
O           -3.09613478197766       -0.44294497974291       -0.02779680903063
N           -0.96302488999428       -1.26031690964208       -0.00747053345075
C           -1.42721502249873       -2.63160012163678       -0.05210342718673
H            3.74983828065133        1.22825846334831        1.10504635172422
H            4.13604215279703        0.92881056266078       -0.59929542057570
H            2.86051761395228        2.09205327089080       -0.17957115872062
H            3.57041093584051       -1.69420818604634        0.01331386961494
H           -1.73822868309936        3.09724153504908       -0.04576301517535
H           -2.91383462363971        2.17142879461896       -0.98532215584201