25
 energy: 0.000000000000 xtb: 6.6.1 (8d0f1dd)
C            3.23720132972391        1.16630909158653        0.08434468864950
N            2.29877796055224        0.07527476373246        0.03981602671198
C            2.58028186251803       -1.21425391179017        0.03006175752192
N            1.43813944744728       -1.93419254010258        0.00098261751768
C            0.39035684826767       -1.05887462812143       -0.00790371763344
C            0.93510047688824        0.21347817468824        0.01709077332874
C            0.09450143016486        1.40504290868848       -0.00410946993748
O            0.49712746915594        2.54126690785742       -0.00342325656480
N           -1.25076628431515        1.06271869620815       -0.03085477937476
C           -2.21907191394203        2.15522079838987       -0.05001256521996
C           -1.81739470187490       -0.20012724136556       -0.04692818139228
O           -2.99983858926755       -0.37846413507442       -0.07008877579474
N           -0.92618577614240       -1.30210203518959       -0.03682761236648
C           -1.46982251276835       -2.64643077634382       -0.06029819901142
H            3.71247229913541        1.21471443890471        1.06488839270555
H            4.00791460421487        1.03430799217987       -0.67357688121503
H            2.69909982127087        2.09770098766290       -0.09130154035862
H            3.56654087521359       -1.63682977417947        0.04233139674524
H           -1.67107945562430        3.09322822573871       -0.02552706696334
H           -2.82428927394145        2.09428605349656       -0.95318074103337
H           -2.87644002486466        2.07745706351925        0.81450059976605
H           -1.17061985538665       -3.19584861009707        0.83242224714061
H           -1.14560246782873       -3.17511580834413       -0.95688266944647
H           -2.55549768731684       -2.55659960601237       -0.07459039105944
H            1.38130842369251       -2.94313824728853       -0.01389874052104
25
 energy: -6.045448298629 xtb: 6.6.1 (8d0f1dd)
C            3.23998498418406        1.17285674155659        0.08686194818058
N            2.31155468803206        0.09577179837885        0.03401904495040
C            2.63167716541892       -1.24664353682091        0.03284450153127
N            1.43946604972259       -1.94468618844131        0.00175901537101
C            0.40958874218039       -1.06857089083109       -0.00854503575615
C            0.92488087075777        0.21868174336031        0.01316444134842
C            0.11499842039619        1.38135776631540       -0.00605088103097
O            0.48936440945617        2.55804419968620       -0.00535760850484
N           -1.26945771366481        1.04964321921646       -0.03155522953391
C           -2.22296504423044        2.14888022023930       -0.04921924551583
C           -1.81669741339288       -0.19644207723934       -0.04740857063515
O           -3.01559228826471       -0.38401119124661       -0.07007888661390
N           -0.93453025093631       -1.30102384442163       -0.03736980652320
C           -1.47747629346422       -2.63959372537951       -0.06073250686795
H            3.71444118328178        1.21668792225354        1.07102211655760
H            4.00868478217445        1.03480196092450       -0.67556450846233
H            2.69510130125187        2.09777007593327       -0.09131847555796
H            3.63748569006269       -1.62924831295040        0.04544843819535
H           -1.66617683502178        3.08323195330362       -0.02509371329478
H           -2.83011287665075        2.09571385289060       -0.95274040595745
H           -2.88034255114616        2.07868328696780        0.81697692684543
H           -1.17700860678772       -3.19282242454791        0.83177571996344
H           -1.15165324061446       -3.17253077495426       -0.95687107340717
H           -2.56347218644852       -2.54914985798119       -0.07528269602096
H            1.37016900237498       -2.94946330219797       -0.01059546968765
25
 energy: -4.806043978448 xtb: 6.6.1 (8d0f1dd)
C            3.23923708445007        1.17169791206041        0.08687121555560
N            2.31987063797383        0.08868827734858        0.03210263979928
C            2.66358340690523       -1.25518652695594        0.03312994884324
N            1.45705517691630       -1.94966263310305        0.00258033131181
C            0.41936574762723       -1.07549351396932       -0.00868907439409
C            0.93055687921622        0.21176505426732        0.01184646154605
C            0.11461450482882        1.37528669459629       -0.00634245297875
O            0.48378898341230        2.55403898103186       -0.00510660658698
N           -1.27198889760547        1.04782305377198       -0.03157924756544
C           -2.22656441628629        2.14816450880216       -0.04916465981178
C           -1.81926696654127       -0.19739324040016       -0.04767023280100
O           -3.01857073305685       -0.38497178814342       -0.07031477907140
N           -0.93165879880891       -1.30142969198812       -0.03745570382603
C           -1.48317803034729       -2.63733224030478       -0.06089896586748
H            3.71133778578137        1.21414873498795        1.07222819182790
H            4.00587630845369        1.03351393786624       -0.67729637315986
H            2.69114913899817        2.09487383857683       -0.09116997039100
H            3.69881135535692       -1.61205459398498        0.04743849199932
H           -1.67018092750996        3.08259167690675       -0.02498369633327
H           -2.83484644518242        2.09740476635299       -0.95241929804824
H           -2.88505661478698        2.08043762091038        0.81673482621484
H           -1.18563677006471       -3.19177525528599        0.83151404994021
H           -1.15968487331148       -3.17143246476353       -0.95688436315743
H           -2.56971355703161       -2.54373489297403       -0.07571934074478
H            1.36376591435262       -2.95291201627073       -0.00872391250344
25
 energy: -2.575900177301 xtb: 6.6.1 (8d0f1dd)
C            3.23631294139147        1.17067366337883        0.08652007118505
N            2.32581351909807        0.08134122489144        0.02894659736728
C            2.69416675635386       -1.26170022456681        0.03328028271920
N            1.47390091159136       -1.95418591377920        0.00292699293543
C            0.42816034432836       -1.08285722999747       -0.00877751889320
C            0.93455730331161        0.20466412517751        0.01136182933466
C            0.11365216678454        1.36823266132746       -0.00591648262902
O            0.47866470253212        2.54804621446458       -0.00413185967174
N           -1.27450732638951        1.04580124204993       -0.03143879558833
C           -2.22921623681560        2.14813288781920       -0.04942901828986
C           -1.82132332345384       -0.19860342509446       -0.04812790375423
O           -3.02071835811409       -0.38714270908127       -0.07086001690430
N           -0.92879617843549       -1.30301733417675       -0.03724684746636
C           -1.48851523950184       -2.63607384991865       -0.06077385320059
H            3.70721018125096        1.21323567968487        1.07229290624113
H            4.00091248888266        1.03352508720944       -0.67917742935533
H            2.68579045561213        2.09264150201718       -0.09061107531521
H            3.76072758067857       -1.58450801899267        0.05010610171380
H           -1.67319205646822        3.08262964762826       -0.02476789068413
H           -2.83812912138383        2.10055186553153       -0.95259990073155
H           -2.88948731229273        2.08355303649683        0.81551954865745
H           -1.19405656943704       -3.19195518924207        0.83162316214333
H           -1.16825245590024       -3.17142054063163       -0.95704902939840
H           -2.57520721860545       -2.53690279354966       -0.07534310135882
H            1.35601262150165       -2.95466678269675       -0.00980412843641
25
 energy: 0.743482916739 xtb: 6.6.1 (8d0f1dd)
C            3.23454301598381        1.16964394667333        0.08634247336684
N            2.33084679287147        0.07511308144034        0.02539021851746
C            2.72552086561257       -1.26638915054100        0.03365075962694
N            1.49062555940504       -1.95675569353288        0.00351889943246
C            0.43598090689284       -1.08883799705994       -0.00878798485889
C            0.93683243575923        0.20012234546393        0.01104183633454
C            0.11105162740447        1.36214159351890       -0.00639467199360
O            0.47104449669526        2.54306918340399       -0.00444037387154
N           -1.27861184141629        1.04367598360898       -0.03163757945090
C           -2.23255947084301        2.14784311287469       -0.04921546752167
C           -1.82548450786594       -0.19956445746424       -0.04841758282441
O           -3.02531068222875       -0.38828940261647       -0.07118678813334
N           -0.92765394205679       -1.30361761871106       -0.03738346833665
C           -1.49540616309952       -2.63424182874251       -0.06079741478099
H            3.70340945041511        1.21129148261890        1.07292182107704
H            3.99865190967303        1.03660051680039       -0.67989878931815
H            2.68330289727450        2.09109235202107       -0.09007711291764
H            3.82437316221757       -1.55719325042369        0.05227084647597
H           -1.67565021859386        3.08178562966533       -0.02441837722312
H           -2.84199466037997        2.10220238599829       -0.95237065596317
H           -2.89300936250416        2.08489792271639        0.81594368277672
H           -1.20356033442897       -3.19131252351935        0.83150020361278
H           -1.17772898838146       -3.17111332291801       -0.95690212046404
H           -2.58253659532823       -2.53211144242761       -0.07533412311822
H            1.34921980881511       -2.95391752674337       -0.01232860370562
25
 energy: 4.883689975429 xtb: 6.6.1 (8d0f1dd)
C            3.23147554585372        1.16688415422150        0.08622666950465
N            2.33127220476621        0.06933042807545        0.02529228147164
C            2.74938136075073       -1.27183468040794        0.03748016832293
N            1.49970616799781       -1.95925820670789        0.00534435293473
C            0.43706757491167       -1.09261371070799       -0.00826879936694
C            0.93622986627438        0.19611008839131        0.01095659086481
C            0.10899424366983        1.35866693565529       -0.00582867314250
O            0.46576663406656        2.53953675356552       -0.00350323635511
N           -1.28262250864662        1.04273869648711       -0.03156219090248
C           -2.23604998861722        2.14856396970651       -0.04920290782574
C           -1.83032233959317       -0.19967432498700       -0.04897463093750
O           -3.03027861257442       -0.38889104791251       -0.07268125413110
N           -0.92950013580667       -1.30377215837510       -0.03807212437638
C           -1.50172225689993       -2.63268160856755       -0.06112361435911
H            3.70043251305954        1.20815243549592        1.07256478997601
H            3.99510637989549        1.03228361820883       -0.67983619900717
H            2.68022037696478        2.08825928050429       -0.09022881335728
H            3.88338588017204       -1.54222677528651        0.05253709233266
H           -1.67920990598244        3.08243111636825       -0.02395967698868
H           -2.84569185919316        2.10480571306192       -0.95239791982685
H           -2.89736963939546        2.08704570688128        0.81546225791241
H           -1.21163545196857       -3.19047221814345        0.83126476218060
H           -1.18533371956045       -3.17057572457473       -0.95703399628478
H           -2.58888437642658       -2.52703571259383       -0.07586535512197
H            1.33882979441780       -2.95337693598327       -0.01693746574165
25
 energy: 9.391309610358 xtb: 6.6.1 (8d0f1dd)
C            3.22526473577829        1.16433976636685        0.08768710133788
N            2.32541570614325        0.06678182745548        0.03065485217435
C            2.74793690544451       -1.27383150487448        0.05725201795716
N            1.49287564381855       -1.96012700401812        0.00334783410769
C            0.43055995028266       -1.09134932233662       -0.00822828253496
C            0.93038641653158        0.19677698996203        0.01190513144745
C            0.10502241468564        1.36160001087768       -0.00371186348500
O            0.45995959498103        2.54191729653824       -0.00124660123220
N           -1.28757806881497        1.04406552014034       -0.03085214214842
C           -2.24011433186178        2.15134708557471       -0.05092287861385
C           -1.83534575657077       -0.19822111938718       -0.04811725412355
O           -3.03452286015654       -0.38913742198763       -0.07438362672602
N           -0.93475610137690       -1.30262075785072       -0.03792573442089
C           -1.50760473605657       -2.63062184629697       -0.06035540233781
H            3.69433076660593        1.20842770097014        1.07360479810144
H            3.98869262424703        1.02497990190677       -0.67799983882230
H            2.67241648467930        2.08428207556733       -0.09183837059750
H            3.93385824135097       -1.54253630820052        0.05009947784766
H           -1.68296248825795        3.08511994954612       -0.02598848104249
H           -2.84954212130904        2.10959153502499       -0.95420919885613
H           -2.90300016563001        2.09327571822493        0.81253053680477
H           -1.21725606695839       -3.18971597127740        0.83134729294747
H           -1.19358585612609       -3.16863606019722       -0.95716789582499
H           -2.59439243420935       -2.51995352664133       -0.07311172735788
H            1.32482417674603       -2.95310464726685       -0.02696968575110
25
 energy: 15.904354745742 xtb: 6.6.1 (8d0f1dd)
C            3.22104704898661        1.16093080945436        0.08763774039096
N            2.31998838864123        0.06440289377316        0.03398828131555
C            2.74292440943432       -1.27430943526768        0.09541042658514
N            1.48533947156784       -1.95869659226295        0.00120606000688
C            0.42338456250323       -1.08886754335010       -0.01212571588561
C            0.92496857022258        0.19837271521663        0.00741653625120
C            0.10069575129773        1.36576463610013       -0.00572855972248
O            0.45382813297580        2.54572331664190       -0.00228964107621
N           -1.29251733566063        1.04631240649054       -0.03045425553485
C           -2.24538006853728        2.15404901906662       -0.05103166740301
C           -1.84090342793248       -0.19649923005770       -0.04704709360959
O           -3.04002909549552       -0.38665579743087       -0.07597936108592
N           -0.94063019794047       -1.30080257331465       -0.03857047756591
C           -1.51421703169052       -2.62809268234042       -0.06001196931371
H            3.68678677893700        1.20587458443079        1.07431927635350
H            3.98730246494399        1.01695345493961       -0.67476703356076
H            2.66851473442191        2.08045981221680       -0.09507450448861
H            3.99593699273808       -1.55122550592095        0.04348099575308
H           -1.68840234327904        3.08811725010961       -0.02642256195510
H           -2.85660724109612        2.11474605254997       -0.95324577479276
H           -2.90864090749173        2.09826372467830        0.81213285830975
H           -1.22482801602326       -3.18984906898975        0.83060117700240
H           -1.20133388237121       -3.16495331937463       -0.95782789253527
H           -2.60065023165229       -2.51358083659001       -0.07204531440171
H            1.31339193615962       -2.95004437774296       -0.02098157510381
25
 energy: 45.179485682005 xtb: 6.6.1 (8d0f1dd)
C            3.20629102101640        1.14702932141645        0.08859524098156
N            2.28833028634930        0.04428188511414        0.05543617617441
C            2.62563855294668       -1.25421571635575        0.16467587508286
N            1.43374255195460       -1.94328045347870        0.00798158213815
C            0.37973484613234       -1.07247960091636       -0.02907561235929
C            0.90403027970466        0.20365742265154       -0.01189149065551
C            0.08218444661791        1.38070984076712       -0.01968329982412
O            0.44003035151144        2.54648065719452       -0.00520330035491
N           -1.29757231143518        1.05489876012800       -0.03161212510648
C           -2.25213774186670        2.15910059296026       -0.04876162223354
C           -1.85764671151719       -0.19618053776775       -0.05005751112339
O           -3.05498290909735       -0.37254755998325       -0.07141855070678
N           -0.97077331050687       -1.29185242023702       -0.04643212151670
C           -1.52841232803185       -2.62583225944347       -0.06310772329150
H            3.68237618088392        1.19107813671016        1.06666409747577
H            3.97009231815829        1.00168831120235       -0.67585506965101
H            2.66227879497676        2.07426354522042       -0.08996804595425
H            4.41240161621691       -1.59786813354156        0.00876944434603
H           -1.69423513324686        3.09243728299474       -0.02345529783867
H           -2.86134740032204        2.11690569453864       -0.95157177767930
H           -2.91403467156970        2.09867331225918        0.81433317967482
H           -1.23587520150612       -3.18260430349956        0.82962867657280
H           -1.20921796018258       -3.16459908981493       -0.95740551452729
H           -2.61373423451628       -2.51240792596302       -0.07714692421654
H            1.29031436026619       -2.94040628288611       -0.00998896889006
25
 energy: 46.109425463889 xtb: 6.6.1 (8d0f1dd)
C            3.19921330222163        1.14148218703898        0.08811198503760
N            2.27281425995923        0.04077285797233        0.05620828007763
C            2.59712648508473       -1.25161723716851        0.13939434992393
N            1.41221331029759       -1.93952565717113        0.01276692540113
C            0.36229126420107       -1.06625785321000       -0.02495681032434
C            0.89254949798699        0.20595974525162       -0.00876692856025
C            0.07098701053136        1.38617647024190       -0.01784697950467
O            0.43199420335145        2.54548527886618       -0.00460608612237
N           -1.30230012686233        1.05941667368635       -0.03289370539852
C           -2.25754384918191        2.16237405930797       -0.04964512587980
C           -1.86625696338322       -0.19592516843730       -0.04963038761987
O           -3.06334497863621       -0.36656499690607       -0.07089401007523
N           -0.98346151994996       -1.28786366993035       -0.04565329355356
C           -1.53743367598141       -2.62327588048879       -0.06248072875937
H            3.67453860293052        1.18514473281057        1.06609578244340
H            3.96685576327866        0.99309576336226       -0.67102387971271
H            2.66013752491576        2.07135927600199       -0.09318317379973
H            4.55277031937464       -1.61450965853044        0.01685543182045
H           -1.69956195755172        3.09583316221716       -0.02472293967869
H           -2.86731537419176        2.11773572543879       -0.95177147951867
H           -2.91910841176771        2.10006230451933        0.81358512512008
H           -1.24425682179493       -3.18159188455171        0.82923838081611
H           -1.21861909661793       -3.16145051341300       -0.95735313190893
H           -2.62184810664375       -2.50574661392833       -0.07555996289363
H            1.27056004224149       -2.93754003555177       -0.01265073998055
25
 energy: 46.563624549041 xtb: 6.6.1 (8d0f1dd)
C            3.19381638423296        1.13586015719987        0.08736984276295
N            2.25970606929944        0.03989835687848        0.05698514852957
C            2.57598155302118       -1.25103843521682        0.13616101846183
N            1.39399223022489       -1.93756355555933        0.01523292364360
C            0.34862458667655       -1.06132207555130       -0.02600603347931
C            0.88160146835248        0.20941965738586       -0.00898388736076
C            0.06298744851990        1.39152059431207       -0.01920833163926
O            0.42508900717607        2.54923810697260       -0.00555477870517
N           -1.30824231237400        1.06383582952645       -0.03465316760038
C           -2.26281684558138        2.16664257182391       -0.04995855907248
C           -1.87427943876541       -0.19283480742930       -0.05054405373080
O           -3.07157213723869       -0.36053027039610       -0.06910541750183
N           -0.99419738735454       -1.28445493402424       -0.04778658695491
C           -1.54523498566771       -2.62078046790946       -0.06250255089611
H            3.67170547035830        1.17286973537330        1.06400609378227
H            3.96124758166646        0.98900341428888       -0.67196269269411
H            2.66024104902323        2.06952586805689       -0.09072771300689
H            4.66042323672340       -1.62297610229118        0.01355989697284
H           -1.70395330303930        3.09984212320568       -0.02474903262710
H           -2.87257539235892        2.12128794945563       -0.95213101471672
H           -2.92473925712618        2.10322193488367        0.81302247802651
H           -1.25081751359419       -3.17928248310289        0.82907247963533
H           -1.22739681980365       -3.16054033596011       -0.95705792081133
H           -2.62884611536955       -2.49978380904994       -0.07400746493721
H            1.24949051790643       -2.93562801070493       -0.01213867335923
25
 energy: 47.406122145271 xtb: 6.6.1 (8d0f1dd)
C            3.18914222963521        1.13142059034232        0.08753905329436
N            2.24942420379144        0.03931454109385        0.05994921315059
C            2.56140028030002       -1.25112750744656        0.14178262398084
N            1.37967794029072       -1.93543032829829        0.01645941388349
C            0.33751546173694       -1.05693573607871       -0.02736294764293
C            0.87257427446510        0.21341859949634       -0.00997458344900
C            0.05806315861827        1.39772278631208       -0.02292525488862
O            0.41823894821337        2.55583440296182       -0.00518606137211
N           -1.31258623584280        1.06871019768960       -0.03447261869081
C           -2.26638232989680        2.17105925245095       -0.04947770057562
C           -1.88180118682049       -0.18788953003819       -0.05059474905370
O           -3.07903348161605       -0.35378482087663       -0.06730078036094
N           -1.00380038290773       -1.28098876392198       -0.04897622987546
C           -1.55327917284030       -2.61786140124063       -0.06322796961134
H            3.66591099974004        1.17034718610817        1.06467049363513
H            3.95719224516659        0.98009817621604       -0.67002082584244
H            2.65924819315212        2.06603707187257       -0.09672298026115
H            4.76412845367416       -1.63358803079726        0.00618371208638
H           -1.70683438108313        3.10371051213000       -0.02460781659762
H           -2.87612058082054        2.12459733945976       -0.95168773510061
H           -2.92777069263705        2.10778016736854        0.81415740487883
H           -1.26036157523770       -3.17724018864693        0.82870871245323
H           -1.23489257076825       -3.15931748515924       -0.95695522879212
H           -2.63647609254657       -2.49434134068133       -0.07600533395665
H            1.23314219775275       -2.93346313818040       -0.01270493140144
25
 energy: 48.468942789437 xtb: 6.6.1 (8d0f1dd)
C            3.18572393720813        1.12672016967568        0.08912373111125
N            2.24389699741091        0.03635826950014        0.06441579067086
C            2.56037860405255       -1.25472047741227        0.15449815307219
N            1.37198713176282       -1.93339111876571        0.01918962251273
C            0.33027346030762       -1.05437976719373       -0.02883062570309
C            0.86742742507492        0.21556588533722       -0.01170865191976
C            0.05442891681439        1.40144383743692       -0.02802764578722
O            0.41173168778028        2.56102113670349       -0.00817536565735
N           -1.31704575247303        1.07161043649135       -0.03657721362829
C           -2.26956723423553        2.17492194559538       -0.04872672345676
C           -1.88866805230557       -0.18395037029822       -0.05248960256342
O           -3.08615308972399       -0.34895492183510       -0.06705484986902
N           -1.01094836789769       -1.27835196719620       -0.05104260047172
C           -1.56115185610850       -2.61510152270209       -0.06379514632250
H            3.66188889215531        1.16626333038828        1.06643981428744
H            3.95173340829546        0.97210438595289       -0.66978600786556
H            2.65805222453361        2.06156203586396       -0.09672115924368
H            4.87285586824815       -1.64606549233026       -0.00073668388595
H           -1.70951798421044        3.10705745874151       -0.02233711757923
H           -2.87898831969361        2.13076023643349       -0.95104307245236
H           -2.92998798820047        2.11172172854719        0.81558300244338
H           -1.26958479753541       -3.17486784218347        0.82866466611915
H           -1.24335234914945       -3.15867544909963       -0.95674755991503
H           -2.64417409941180       -2.48884386030198       -0.07701974155521
H            1.22768475834250       -2.93197699972144       -0.01209638833433
25
 energy: 49.694880041861 xtb: 6.6.1 (8d0f1dd)
C            3.18334190281037        1.12287808191312        0.08862544073848
N            2.24254002311430        0.03188940616882        0.06494855059872
C            2.56879398267930       -1.26159652513722        0.17064800018446
N            1.36930470706291       -1.93199458505194        0.02239415270481
C            0.32579244521077       -1.05383270564214       -0.03157188801241
C            0.86568612139808        0.21550133332841       -0.01564661656827
C            0.04982852005044        1.40152266981232       -0.02578285685463
O            0.40579700359125        2.56260775308473       -0.00447027881675
N           -1.32290904578881        1.07348984706742       -0.03609344183365
C           -2.27446987552865        2.17823575167835       -0.04796012490472
C           -1.89506342296282       -0.18138685085618       -0.05221449396903
O           -3.09315438198526       -0.34512829682594       -0.06558233073385
N           -1.01679571373142       -1.27675132476371       -0.05344740983745
C           -1.56718016825370       -2.61414165121219       -0.06424520216154
H            3.65504500554857        1.16143163562538        1.06796881624193
H            3.95093478837061        0.96555071679762       -0.66832505854107
H            2.65785115883042        2.05818444393338       -0.10029527024953
H            4.98494536476736       -1.66064556613354       -0.00842788677593
H           -1.71220642160788        3.10904057022013       -0.02254219832477
H           -2.88413115926977        2.13480734868159       -0.95042492001667
H           -2.93543434443491        2.11742448823181        0.81663477647199
H           -1.27605890390615       -3.17526380427359        0.82763895624818
H           -1.25019112050030       -3.15729681564906       -0.95762463061966
H           -2.65018980232308       -2.49288764515879       -0.07666986380276
H            1.23241100273806       -2.93164258885101       -0.00270322553019
25
 energy: 50.691838400691 xtb: 6.6.1 (8d0f1dd)
C            3.17927155370275        1.12173319392428        0.08943465728303
N            2.23836004681830        0.03237424764193        0.06583413836598
C            2.57073886820112       -1.26323860617330        0.17478634167790
N            1.36535689728240       -1.92967676862736        0.02311696858066
C            0.31977942302397       -1.05360253812631       -0.03463937842614
C            0.86194505638336        0.21562544619727       -0.02243532489496
C            0.04427732391382        1.40023261495259       -0.02539079430296
O            0.40274589656907        2.56153918568132       -0.00392998816427
N           -1.32916616474470        1.07442630280393       -0.03741305709062
C           -2.27844694680834        2.18084363661160       -0.04710766811963
C           -1.90120745743159       -0.18008909841983       -0.05345468248887
O           -3.10004212569644       -0.34177596027489       -0.06531128430779
N           -1.02353352982806       -1.27616103350763       -0.05625651251761
C           -1.57406227273541       -2.61459068605544       -0.06413063136089
H            3.65176412603265        1.16112127833014        1.06896849301649
H            3.94589058952951        0.95883868961628       -0.66750835683405
H            2.65446286316577        2.05643998508153       -0.10291553304594
H            5.09864323379418       -1.67474121614911       -0.01715569287222
H           -1.70947393490576        3.10773021642738       -0.02223842348095
H           -2.88950260621126        2.13924001337196       -0.94907305725803
H           -2.93845331306473        2.12114193648509        0.81872575228974
H           -1.28352710941398       -3.17472730862624        0.82835228142312
H           -1.25790715237559       -3.15790767819063       -0.95735547391022
H           -2.65742702211952       -2.49730973614584       -0.07560395556533
H            1.24366966901652       -2.93095182432131        0.00619793212538
25