25
 energy: -42.497038609315 xtb: 6.6.1 (8d0f1dd)
C            3.17374888593331        1.12224847728176        0.08804447523626
N            2.21926174561696        0.04445327298146        0.05715829330663
C            2.53307690813528       -1.25641561153351        0.09640313097617
N            1.33768511429067       -1.92373743505012        0.01996673561273
C            0.29881264385906       -1.04530484128813       -0.02420319105367
C            0.84681248484599        0.21844331917396        0.00310890623885
C            0.03136203701962        1.39762890770121       -0.00985640008121
O            0.41837936395843        2.54970128359184       -0.00402539062803
N           -1.33295354752876        1.07701722154949       -0.03345771123235
C           -2.27999814867339        2.18363085802794       -0.05057244566930
C           -1.90380716052189       -0.18044648816591       -0.05027093119967
O           -3.10404373761913       -0.33596320342177       -0.06744429561400
N           -1.04234021098063       -1.27269355539455       -0.04887201266238
C           -1.59263693481280       -2.61342583187724       -0.06505665737077
H            3.66134507766277        1.16062722443823        1.06189106705840
H            3.93656242362169        0.96255291720895       -0.67347065937337
H            2.65679556281099        2.06278485274653       -0.09435122326274
H            5.54541722471778       -1.73095619170205       -0.05200771966315
H           -1.71032614952742        3.11015285830122       -0.02561313897844
H           -2.88704128078592        2.13774524276393       -0.95429688156524
H           -2.94013294840393        2.12131512899525        0.81382693653470
H           -1.28701976906883       -3.16065011911400        0.82805344505428
H           -1.26445453653047       -3.14959962874228       -0.95721512819682
H           -2.67787209288485       -2.52048714713473       -0.07620063846647
H            1.28469570738423       -2.92824765522746       -0.00682487070604
