25
 energy: 0.000000000000 xtb: 6.6.1 (8d0f1dd)
C            3.23720132972391        1.16630909158653        0.08434468864950
N            2.29877796055224        0.07527476373246        0.03981602671198
C            2.58028186251803       -1.21425391179017        0.03006175752192
N            1.43813944744728       -1.93419254010258        0.00098261751768
C            0.39035684826767       -1.05887462812143       -0.00790371763344
C            0.93510047688824        0.21347817468824        0.01709077332874
C            0.09450143016486        1.40504290868848       -0.00410946993748
O            0.49712746915594        2.54126690785742       -0.00342325656480
N           -1.25076628431515        1.06271869620815       -0.03085477937476
C           -2.21907191394203        2.15522079838987       -0.05001256521996
C           -1.81739470187490       -0.20012724136556       -0.04692818139228
O           -2.99983858926755       -0.37846413507442       -0.07008877579474
N           -0.92618577614240       -1.30210203518959       -0.03682761236648
C           -1.46982251276835       -2.64643077634382       -0.06029819901142
H            3.71247229913541        1.21471443890471        1.06488839270555
H            4.00791460421487        1.03430799217987       -0.67357688121503
H            2.69909982127087        2.09770098766290       -0.09130154035862
H            3.56654087521359       -1.63682977417947        0.04233139674524
H           -1.67107945562430        3.09322822573871       -0.02552706696334
H           -2.82428927394145        2.09428605349656       -0.95318074103337
H           -2.87644002486466        2.07745706351925        0.81450059976605
H           -1.17061985538665       -3.19584861009707        0.83242224714061
H           -1.14560246782873       -3.17511580834413       -0.95688266944647
H           -2.55549768731684       -2.55659960601237       -0.07459039105944
H            1.38130842369251       -2.94313824728853       -0.01389874052104
25
 energy: -0.899025219259 xtb: 6.6.1 (8d0f1dd)
C            3.23287010344194        1.16942184463569        0.08550148095327
N            2.31629416306473        0.07939603993539        0.03757495513250
C            2.66257273143289       -1.24394632232083        0.03141303188553
N            1.45896623897046       -1.94637598661998        0.00146929116193
C            0.40440114081166       -1.06807168680980       -0.00835291023789
C            0.93246006771217        0.20937135443965        0.01515782939078
C            0.09392712492215        1.38767016221315       -0.00466730044302
O            0.48834233730460        2.55390035719469       -0.00324136169921
N           -1.27152777866846        1.05368200261707       -0.03112158724666
C           -2.23290070537356        2.15478386863675       -0.04980336391200
C           -1.83298345534173       -0.19737119637892       -0.04778386121732
O           -3.03093674824320       -0.37605333350414       -0.07121948294814
N           -0.93885325961154       -1.30089295725214       -0.03737824065890
C           -1.50062030213991       -2.63443913725006       -0.06082914690827
H            3.70588864886322        1.20887715300703        1.06904324894486
H            3.99750055960079        1.02650871506674       -0.67777461488657
H            2.68228749342477        2.09107169151617       -0.09175581490490
H            3.75420181650150       -1.62223684059006        0.04808748035604
H           -1.67594137223656        3.08928631224214       -0.02521105610632
H           -2.84204376583151        2.10599966407825       -0.95262056182398
H           -2.89423534761811        2.08907663218265        0.81422888307897
H           -1.20537183182322       -3.18844140203137        0.83153228747208
H           -1.18014901475708       -3.16798906129613       -0.95706631813776
H           -2.58689851141359       -2.53576550583413       -0.07525738322388
H            1.37496397198007       -2.94843357913376       -0.01289157182656
25
 energy: 12.116698014020 xtb: 6.6.1 (8d0f1dd)
C            3.22468547581229        1.16545459342168        0.08591576412086
N            2.32472134111665        0.07197765599173        0.03318734696223
C            2.74387682913341       -1.27223604579629        0.03324884216548
N            1.48520608169386       -1.95657876725420        0.00274102278926
C            0.42095311671953       -1.08318615937902       -0.00865939357326
C            0.92861749402859        0.19960777448102        0.01286006523219
C            0.09392838172216        1.36496831296188       -0.00497586607141
O            0.46837837719853        2.54600162637408       -0.00293828980292
N           -1.29159652326115        1.04864030337567       -0.03132632058286
C           -2.24600000540691        2.15790576242605       -0.04950125455719
C           -1.83871752641500       -0.19422559708771       -0.04845106137226
O           -3.04187205612021       -0.37665363326211       -0.07248271813282
N           -0.94445880852123       -1.29962520901779       -0.03777529345983
C           -1.53592350621785       -2.62042561085176       -0.06150295606862
H            3.69878224453204        1.20471993829496        1.07016102993600
H            3.98767912896365        1.02273011767278       -0.67999011349425
H            2.66792558081772        2.08233698012188       -0.09101349048859
H            3.95572064418187       -1.57676753988018        0.05469381222287
H           -1.68277609250605        3.08957985699194       -0.02473456280023
H           -2.85986572103815        2.11824081994111       -0.95104779737673
H           -2.91192046191809        2.10109415207094        0.81313420952370
H           -1.25433857952275       -3.18289980902373        0.83067777170008
H           -1.22869374150983       -3.16270022912877       -0.95787697388221
H           -2.62240126256591       -2.50384940344935       -0.07607752516240
H            1.37030389405527       -2.95508110125080       -0.01123233563252
25
 energy: 23.539361398603 xtb: 6.6.1 (8d0f1dd)
C            3.22122995505946        1.16363175551185        0.08566343841509
N            2.32796633266957        0.06447710240367        0.02993336349290
C            2.78113798785825       -1.28462305616567        0.03437214734363
N            1.49823883806914       -1.96144358785733        0.00413511964266
C            0.42864189109549       -1.09367940820176       -0.00835736055501
C            0.92873672573529        0.19349937857793        0.01196626689672
C            0.09555690231566        1.35739463418285       -0.00486963134163
O            0.45706380189155        2.53984830137109       -0.00251754441667
N           -1.29934338899515        1.04985304309852       -0.03145343494816
C           -2.25307245761045        2.15939313791779       -0.04941784515085
C           -1.83914151046940       -0.19370220436068       -0.04884400576327
O           -3.04218098458165       -0.37977828001150       -0.07350272258219
N           -0.94452904532634       -1.30065234060054       -0.03771820531367
C           -1.55672326669684       -2.61392511368271       -0.06185172412414
H            3.69440240560098        1.20504556826537        1.07048447591830
H            3.98462229658972        1.02631382640409       -0.68082813244223
H            2.66130110893493        2.07919837156464       -0.09039105645675
H            4.07228688046499       -1.55413305391368        0.05719661405395
H           -1.68995615315562        3.09058020906626       -0.02451048607194
H           -2.86865648645030        2.12095895619885       -0.95025713592053
H           -2.92061017856475        2.10358245469979        0.81247579153476
H           -1.28714076940852       -3.18125513930486        0.83064398765082
H           -1.26095959670722       -3.16106490774796       -0.95881716284518
H           -2.64244114941111       -2.48116537817205       -0.07661011173422
H            1.36578416606480       -2.95932548049995       -0.00989073308788
25
 energy: 30.223697055896 xtb: 6.6.1 (8d0f1dd)
C            3.21967575101457        1.16216778189352        0.08555326360611
N            2.32703425064601        0.06073112485811        0.02825489941578
C            2.78753994071314       -1.28786492509626        0.03517134766342
N            1.49697135667895       -1.96193476028273        0.00462010830512
C            0.42708157173239       -1.09609387314685       -0.00818107594399
C            0.92795164121692        0.19250043822856        0.01179251708862
C            0.09639819042012        1.35881594619570       -0.00492524304759
O            0.45252071977579        2.53937672240857       -0.00222530185649
N           -1.30141645619717        1.05255169563729       -0.03155093429937
C           -2.25558257584268        2.16052907005892       -0.04944903075375
C           -1.84098776036886       -0.19259459031892       -0.04892684317497
O           -3.04338633432195       -0.37868412695871       -0.07378749263121
N           -0.94606677255139       -1.30058616720521       -0.03758730342909
C           -1.56166175298417       -2.61320467078655       -0.06187121291263
H            3.69157720696433        1.20383535858031        1.07073208371987
H            3.98308048924273        1.02646660447381       -0.68081901779344
H            2.65963960371734        2.07809294295487       -0.09047274032014
H            4.13142777684843       -1.55344456327034        0.05786132569558
H           -1.69345710462236        3.09189434751542       -0.02453712677706
H           -2.87125009262828        2.12118812252485       -0.95023296259820
H           -2.92311192304966        2.10377481365288        0.81245901681390
H           -1.29397090621310       -3.18039313023675        0.83050232462439
H           -1.26767487555308       -3.16014806968305       -0.95878780489819
H           -2.64678230943393       -2.47851775671236       -0.07667921075404
H            1.35666466976841       -2.95942954654109       -0.00987967354805
25
 energy: 42.122630542762 xtb: 6.6.1 (8d0f1dd)
C            3.21703486767164        1.15967681944795        0.08544372587032
N            2.32227863173924        0.05700234235980        0.02627973611451
C            2.78145433155610       -1.28793323132031        0.03760267429327
N            1.48704144708760       -1.96101128677099        0.00497178375262
C            0.41889072520845       -1.09578088487429       -0.00816838981278
C            0.92466638975158        0.19339394714389        0.01195091007153
C            0.09641473201950        1.36449881768499       -0.00517329499781
O            0.44658886161616        2.54170904006444       -0.00181982712105
N           -1.30354781991145        1.05605958393161       -0.03175702811795
C           -2.25802910525424        2.16200674698884       -0.04953290604008
C           -1.84609773139993       -0.19091345994883       -0.04898743802595
O           -3.04721905624664       -0.37581108792153       -0.07384079705520
N           -0.95037583240705       -1.29951877596967       -0.03752135919355
C           -1.56448687658654       -2.61382267592801       -0.06185888045131
H            3.68722527670679        1.20035567927742        1.07087414199884
H            3.98018131590178        1.02318928071945       -0.68031615813811
H            2.65879381202294        2.07701425576296       -0.09120724966702
H            4.23150299214371       -1.56500342769588        0.05808365584638
H           -1.69711280168977        3.09376819897366       -0.02460573856282
H           -2.87361361688669        2.12201930064417       -0.95035000398197
H           -2.92533173947727        2.10456186873120        0.81254525481303
H           -1.29549066568589       -3.17906529252947        0.83042770188547
H           -1.26924187344222       -3.15875360198478       -0.95870548823504
H           -2.64911263746639       -2.48081514245575       -0.07665229476778
H            1.33980067800108       -2.95779822558692       -0.01064881828299
25
 energy: 55.554279604870 xtb: 6.6.1 (8d0f1dd)
C            3.21314587479756        1.15672545139497        0.08551044202336
N            2.31278337257706        0.05618319440683        0.02742907571399
C            2.75561070856386       -1.28246335261050        0.04974889383399
N            1.46833532309752       -1.95941730868681        0.00488798740561
C            0.40386750741608       -1.09150504973724       -0.00927756745532
C            0.91715659434287        0.19648739360949        0.01243596316007
C            0.09361223720323        1.37192070496056       -0.00658223757928
O            0.44125324256086        2.54677994323758       -0.00207379646864
N           -1.30676097266993        1.05818643435499       -0.03229010522043
C           -2.26022277464203        2.16388000629948       -0.04956899147160
C           -1.85490992440082       -0.18869849360630       -0.04920130698583
O           -3.05475865248980       -0.37168330283776       -0.07319480864712
N           -0.95848568824570       -1.29713521147469       -0.03853808674807
C           -1.56608260507998       -2.61501893655895       -0.06198516665525
H            3.68256622438859        1.19608264544564        1.07063804139415
H            3.97604121472913        1.01473623468762       -0.67911164329295
H            2.65885933344053        2.07613628777507       -0.09329882317355
H            4.37961073772814       -1.59158493587037        0.05191317535444
H           -1.69936265914544        3.09582372736805       -0.02467320482190
H           -2.87565076271880        2.12444743047832       -0.95046023053080
H           -2.92699814859397        2.10691244380253        0.81290603542567
H           -1.29236737338771       -3.17739142793586        0.83045111917139
H           -1.26662667673424       -3.15766049369143       -0.95860186403051
H           -2.65083550105829       -2.48702813142364       -0.07648205392949
H            1.32243367329381       -2.95568646464358       -0.01354693427736
25
 energy: 51.847085911358 xtb: 6.6.1 (8d0f1dd)
C            3.20191363671234        1.14587731873090        0.08492929386626
N            2.28402008532438        0.04472519477217        0.03993235689533
C            2.68155161909622       -1.26724575045465        0.12386468694378
N            1.42151834731650       -1.95250992758733       -0.00001208433394
C            0.36544145057713       -1.08572947484440       -0.01970782730890
C            0.89849679385465        0.20009787358179        0.00687767685022
C            0.08889493160297        1.38751701573969       -0.01600950979964
O            0.43004650625013        2.55036221385444       -0.00351511396098
N           -1.31297886184047        1.06508703852793       -0.03296814672664
C           -2.26436283389188        2.16819201912749       -0.04884162766000
C           -1.87299063905867       -0.18497238725807       -0.04909074427700
O           -3.06801213636821       -0.36289638305893       -0.07004508799880
N           -0.97993260738432       -1.29299363876801       -0.04404399619793
C           -1.57568967709882       -2.61716882688641       -0.06220529424224
H            3.67186857384803        1.18827646585013        1.06703552098973
H            3.96669952655935        0.99656084228609       -0.67556420254674
H            2.65812264770009        2.07200373940677       -0.09875482606910
H            4.76600819549020       -1.63306343269766        0.01163341699859
H           -1.70347369217257        3.09975790329861       -0.02462979442827
H           -2.87903144128233        2.12774565171689       -0.94994214981433
H           -2.92968691775673        2.11068204294012        0.81436103809664
H           -1.29461212647033       -3.17326724203728        0.83068094819164
H           -1.27055171320741       -3.15575420724268       -0.95803217782800
H           -2.65906117951831       -2.49276388813381       -0.07545160328668
H            1.28801581669054       -2.94949137211979       -0.02346684015844
25
 energy: 54.147248711179 xtb: 6.6.1 (8d0f1dd)
C            3.18850211211103        1.12963551679817        0.08503361157270
N            2.24173462194514        0.02557062624132        0.04933775816937
C            2.54264800322486       -1.23306480517023        0.17783277773419
N            1.35736025034241       -1.93518112436605       -0.00554970557590
C            0.31409004952712       -1.07235700473143       -0.03218191759596
C            0.87590420754115        0.20458220046474       -0.00408858273899
C            0.07765176732765        1.40491015131623       -0.02015707617105
O            0.42258622311063        2.54514911591539       -0.00329920046388
N           -1.31430554912781        1.07252573270387       -0.03182252645115
C           -2.26621034912862        2.17233982023950       -0.04880291371901
C           -1.88942185434957       -0.18446294597938       -0.04897302472404
O           -3.07742120512633       -0.35383907142495       -0.06912408268016
N           -1.00644583661704       -1.28633488214425       -0.04671218220886
C           -1.58384209812153       -2.61864097740253       -0.06197842372081
H            3.66428105786459        1.17364772018197        1.06113642011289
H            3.95633724395438        0.98070852719827       -0.67124836165569
H            2.65898762119307        2.06649200662738       -0.09795886470852
H            5.22567833752954       -1.69133583648318       -0.02387334745026
H           -1.70624722086473        3.10391605659435       -0.02470683633439
H           -2.87893587462126        2.12966127618471       -0.95046643838152
H           -2.93047602623448        2.11299925560802        0.81415886594941
H           -1.29520839051065       -3.16989506831076        0.83072367805233
H           -1.27134876719623       -3.15269403606385       -0.95709534932986
H           -2.66540466921365       -2.49718846568531       -0.07525508670581
H            1.27172065041281       -2.93811499956807       -0.01789527878045
25
 energy: 61.092405026307 xtb: 6.6.1 (8d0f1dd)
C            3.17399571874753        1.12380864016185        0.08600267933106
N            2.23613087332806        0.03636575229432        0.04923360519203
C            2.62887200698368       -1.27852947797077        0.23184872082504
N            1.34699192281011       -1.94703303779627        0.00654083010704
C            0.30033415853548       -1.07028588246225       -0.03919012584713
C            0.85054285677719        0.21552449285501       -0.01077093884393
C            0.07177685688977        1.41324657654752       -0.03535943420585
O            0.39435245589402        2.57893197715464       -0.00264201270246
N           -1.34488842092645        1.07987027613230       -0.03632889797220
C           -2.28191364888054        2.18426818523022       -0.04594635568488
C           -1.92187246212478       -0.16641193334737       -0.05265109661864
O           -3.11648918323340       -0.33535646700903       -0.06477460880058
N           -1.03189862303933       -1.27818065330285       -0.05726380623215
C           -1.59640220855601       -2.61804381401041       -0.06460764451530
H            3.64524964586637        1.15616211494029        1.06531377566995
H            3.93524277538713        0.95090443663063       -0.67294949714273
H            2.65241784061501        2.06072377318767       -0.10310940445334
H            5.56252479426752       -1.72832783801364       -0.05115909335023
H           -1.71452543936980        3.11250199138808       -0.02169975517431
H           -2.89277704044499        2.14287114351481       -0.94909491317488
H           -2.94232084021911        2.12460883474563        0.82029943171945
H           -1.29024840053620       -3.16028380034264        0.82836392697694
H           -1.27020813263578       -3.14787672688631       -0.95747384198777
H           -2.67987309284150       -2.52171548042934       -0.07510058789546
H            1.19719989167849       -2.93871429446808       -0.02044704302509
25
 energy: 53.709177981754 xtb: 6.6.1 (8d0f1dd)
C            3.17494349373148        1.11985364350333        0.09159994470120
N            2.22174201425923        0.03302207894257        0.05618056883070
C            2.52766117139671       -1.25796788140586        0.19202819446344
N            1.33564713523189       -1.92956805352262        0.01445999480679
C            0.29839019180558       -1.05167655789758       -0.04363488381150
C            0.84845236244842        0.22020744626680       -0.02615107481987
C            0.05508580323269        1.40236599843743       -0.02810558208769
O            0.41370011876316        2.56404034956416       -0.00339376033140
N           -1.33540850496101        1.07422199046777       -0.03469485590386
C           -2.27726666337812        2.18215155829485       -0.04652907810703
C           -1.90853590126197       -0.17348865069866       -0.05432249037056
O           -3.10557353407846       -0.33856951539208       -0.06707793351555
N           -1.03606315679058       -1.27274523087494       -0.05472932232624
C           -1.58845495141510       -2.61296746324162       -0.06501927404631
H            3.65973545357641        1.16006582334424        1.06592081439977
H            3.93695677667750        0.96277615455653       -0.67205026598372
H            2.65530746561696        2.05838986174106       -0.09302872064977
H            5.52799408993936       -1.76012940225510       -0.05590313678313
H           -1.70797947429622        3.10945171047059       -0.02131733990512
H           -2.88743700224840        2.14025743621684       -0.94932814884265
H           -2.93706374107266        2.12086100390711        0.81878811804846
H           -1.28359278115238       -3.16181628229432        0.82744966165950
H           -1.26229773735523       -3.14910260293283       -0.95741691939496
H           -2.67275180420435       -2.51729147953700       -0.07677379398087
H            1.25902348050756       -2.93331314691665        0.01008319614495
25
 energy: 53.276144445657 xtb: 6.6.1 (8d0f1dd)
C            3.17546717634170        1.12152212880164        0.08991272680244
N            2.22248413789817        0.03790115483178        0.05903264016631
C            2.51537428487539       -1.25582772349419        0.17123938332673
N            1.33717490033050       -1.92525309622779        0.00729535981723
C            0.30016404324804       -1.04785627316087       -0.04186916025704
C            0.84956591179949        0.21980671351182       -0.02285272067210
C            0.04696177050359        1.39772203545279       -0.02038480890197
O            0.41935533780535        2.55536787872017       -0.00340422829449
N           -1.33324975480976        1.07432873116984       -0.03194340179731
C           -2.27717303916809        2.18253292323504       -0.04813574516378
C           -1.90388135656710       -0.17530125557316       -0.04966103874731
O           -3.10229933571532       -0.33854069544710       -0.06665406838752
N           -1.03737241866078       -1.27280022424386       -0.05150381915214
C           -1.58783354089381       -2.61162610429647       -0.06390437641629
H            3.66188371142313        1.16180614992986        1.06346806170368
H            3.93817678162071        0.96498534537556       -0.67397732349245
H            2.65529482061701        2.06029716233044       -0.09392139859592
H            5.50593298941188       -1.77206780807822       -0.02879362454477
H           -1.70765809658524        3.10940736426384       -0.02408857529418
H           -2.88616239997709        2.13776739868967       -0.95116164427453
H           -2.93790827604265        2.12152504407493        0.81613122334176
H           -1.28446477963715       -3.16219731876336        0.82875964144580
H           -1.26245445045879       -3.14840639801687       -0.95671429333801
H           -2.67254749239968       -2.51498089471648       -0.07555063057700
H            1.27738338001298       -2.93108344962500       -0.00428426650255
25
 energy: 52.751522214124 xtb: 6.6.1 (8d0f1dd)
C            3.17539992304145        1.12380902530174        0.08761718318892
N            2.22339642847489        0.04775180304511        0.05994701376642
C            2.51414946483704       -1.25717988672931        0.12652435828954
N            1.33720042291643       -1.92250769696260        0.00423571086067
C            0.30020773151478       -1.04392892503622       -0.03567070751433
C            0.84934580243789        0.21906555679043       -0.01425449907944
C            0.03374385481378        1.39447022131364       -0.01436306301500
O            0.42395559525327        2.54751546130339       -0.00426557526280
N           -1.33192860727932        1.07663655257759       -0.03237304473354
C           -2.27829359689160        2.18428571759818       -0.04857220656094
C           -1.90021875361216       -0.17685982709271       -0.04949343984958
O           -3.10096555475908       -0.33615685388673       -0.06935837695413
N           -1.04153577812155       -1.27317564340904       -0.04796758498128
C           -1.58775077908109       -2.61089377907831       -0.06280440795549
H            3.66333815620627        1.16265736325566        1.06110359335219
H            3.93935316454070        0.96741297581734       -0.67544220156181
H            2.65644563026240        2.06390519359980       -0.09355435934284
H            5.49695571853397       -1.79134012141717        0.00782543857442
H           -1.70762110965381        3.10995514116428       -0.02435481795607
H           -2.88686944859371        2.13778150078251       -0.95130002654507
H           -2.93823748364998        2.12096583613039        0.81567404265558
H           -1.28563213174664       -3.16231643191335        0.83039825686982
H           -1.26083518459650       -3.14790060625008       -0.95528585405683
H           -2.67308302740784       -2.51556385966859       -0.07623209647705
H            1.29169386753288       -2.92935992849192       -0.01099942351679
25
 energy: 52.458988877786 xtb: 6.6.1 (8d0f1dd)
C            3.17390497367734        1.12363043989472        0.08413174073467
N            2.22198569506496        0.05393863709083        0.05459632803953
C            2.52472756173945       -1.25820174048110        0.07259489910417
N            1.33642796102308       -1.92190319956530        0.00091774299345
C            0.29855194536175       -1.04240434751328       -0.02255910079283
C            0.84830279592844        0.21785257073795        0.00238827344644
C            0.02417238249471        1.39583052186650       -0.00567741073271
O            0.42471102536556        2.54556494347775       -0.00226940565104
N           -1.33129385489881        1.07979762724746       -0.03102970770910
C           -2.28002144626382        2.18581822992325       -0.05080048863034
C           -1.90029527225670       -0.17830392820943       -0.04655121857474
O           -3.10233311446775       -0.33268322370713       -0.07090523291343
N           -1.04504997293853       -1.27296165180807       -0.04130257545790
C           -1.58853546263224       -2.61056318565342       -0.06241639205321
H            3.65996308455113        1.16046214009326        1.05979408504747
H            3.93966712936914        0.96489568140672       -0.67597119381601
H            2.65801836625401        2.06564273511121       -0.09585162603809
H            5.51245131142610       -1.80403831665336        0.04812112686287
H           -1.70966261833896        3.11143215704276       -0.02709003985566
H           -2.88704916049951        2.13712177185327       -0.95415842089869
H           -2.94072055332999        2.12240413000997        0.81273911204870
H           -1.28563123552965       -3.16355984282537        0.82934887110099
H           -1.26005602589824       -3.14471646700998       -0.95603786950877
H           -2.67425611825019       -2.51783118063759       -0.07646444329349
H            1.29423490802115       -2.92819571294765       -0.01851314125774
25
 energy: 52.301837162206 xtb: 6.6.1 (8d0f1dd)
C            3.17222282134737        1.12163754799337        0.08194625369737
N            2.21876248668157        0.05149039750711        0.04342832088487
C            2.53313610034422       -1.25725761526439        0.04097590468353
N            1.33583161534897       -1.92215669273401        0.00137351875812
C            0.29686216874966       -1.04304284513469       -0.01474245824689
C            0.84693190052223        0.21776402530087        0.00994091627373
C            0.02414360316738        1.39928034612563       -0.00642475866231
O            0.42195844886010        2.54892831187009       -0.00286708517230
N           -1.33155899389397        1.08091698069735       -0.03345330643497
C           -2.28062290755004        2.18617244906770       -0.04923323484190
C           -1.90316565850015       -0.17918661581962       -0.05074092280572
O           -3.10475076566645       -0.33071583453995       -0.07400752708880
N           -1.04559473186583       -1.27189211338713       -0.04018454718424
C           -1.58932512303776       -2.61079365804603       -0.06256504226201
H            3.65458368574779        1.15669570201605        1.06033144395490
H            3.93987786992885        0.96199821094556       -0.67472554212328
H            2.65911411045259        2.06509177734066       -0.09742586010523
H            5.53542448646429       -1.80410039390793        0.07440683835038
H           -1.71084412200789        3.11239519617191       -0.02382167309034
H           -2.88902243574838        2.13990036608634       -0.95187110206125
H           -2.93977897673042        2.12108640981054        0.81552737539564
H           -1.28566381152810       -3.16289514330843        0.82896854342897
H           -1.25925831980796       -3.14436693130317       -0.95583095356193
H           -2.67494705586165       -2.52003845466063       -0.07768096304080
H            1.28789790955606       -2.92788263408322       -0.01429022655096
25