25
 energy: -42.573018366220 xtb: 6.6.1 (8d0f1dd)
C            3.42863991946716        1.15748553391093       -0.05582886546917
N            2.35782018466421        0.14820078663210       -0.02194900423818
C            2.59036904738903       -1.22432087040206        0.08173307919965
N            1.38664233984310       -1.89556568689505        0.13924253974353
C            0.38190863512343       -1.01169781314170        0.03271878355944
C            0.92892221252154        0.27734330049552       -0.01774414474762
C            0.06564347258987        1.40065644571825        0.02956534943475
O            0.37495443752876        2.58733156192495        0.10495418341736
N           -1.33071338734977        1.03034884586824       -0.02238516320557
C           -2.31141384981058        2.10669805398121       -0.03705909019339
C           -1.86518065053399       -0.21657432773719       -0.09505229717808
O           -3.05804326186635       -0.42599609897992       -0.19137316051188
N           -0.95981364593428       -1.28859317357851       -0.03780105328181
C           -1.49658558053736       -2.63438338684929       -0.10918350455574
H            4.16949744834157        0.86549673025778        0.69016158807330
H            4.15224271841760        1.38033876750873       -0.94184444354193
H            2.93565556011018        2.08887949171927        0.22328891353517
H            3.51441222640401       -1.66310567471992        0.38270226754824
H           -1.76901932890080        3.04804686180058       -0.00877271001598
H           -2.92242189136625        2.04461348424703       -0.93896656586855
H           -2.97292320655602        2.02435944497696        0.82681278515869
H           -1.25827400674045       -3.20789632774950        0.78853516228434
H           -1.13206004662494       -3.16413107900640       -0.99211581262762
H           -2.58251013706931       -2.54179582285649       -0.18434966104095
H            1.29845404572328       -2.89818953119106        0.18027960159440
