25
 energy: -42.106036856701 gnorm: 0.004175409364 xtb: 6.6.1 (8d0f1dd)
C            3.36552816298489        1.04505438415206        0.06109122934755
N            2.37637468614044        0.00187551272134        0.02808351123895
C            2.59852019649897       -1.30856714368756       -0.00502216588353
N            1.41931454523372       -1.97424195911574       -0.01196887397684
C            0.41507530443089       -1.05425192799343        0.01667211699906
C            1.01179040487066        0.20019492097902        0.04470440477693
C            0.25610247309089        1.41303849516727        0.05869699600088
O            0.67101255899301        2.55028805424886        0.08257208495168
N           -1.16210336141555        1.14459898268183        0.02473963280492
C           -1.98220974301179        2.20322978535271        0.00712518237017
C           -1.77212278163913       -0.14340232076607        0.00912435123606
O           -2.96574793510678       -0.26499120540477       -0.00532564907538
N           -0.92029989840031       -1.24459648789322        0.01199450440825
C           -1.49688992857378       -2.57724410035953        0.00165771490931
H            3.82400626978486        1.10236179796478        1.04975722582855
H            4.14289959257949        0.85191488983068       -0.67669238190797
H            2.87992073048749        1.99704528632183       -0.15152772939629
H            3.56341523057453       -1.77294946254783       -0.02682019594913
H           -1.53112930012009        3.17933061490707        0.02307040520577
H           -4.81639476751120        2.10177199059276       -0.39799266402467
H           -3.06424476981187        2.05764685048494       -0.07174298240836
H           -1.19348812529035       -3.12803492227212        0.89196642451608
H           -1.19540443865906       -3.11517038947957       -0.89740890547421
H           -2.58021992748803       -2.46848178188732        0.00309347285930
H            1.31672633545808       -2.97818132239802       -0.03867609145712
