25
 energy: -43.835005877762 gnorm: 0.103433871287 xtb: 6.6.1 (8d0f1dd)
C            3.25879374105882        1.18190785140722        0.06634742704816
N            2.31499123864921        0.08416909144851        0.03431280362069
C            2.58860356224950       -1.23058909026597        0.03527188507130
N            1.42979111093455       -1.94327049467036        0.00832576526540
C            0.39146836157174       -1.06352642641993       -0.00154448546601
C            0.93340585654750        0.21054620947149        0.02940798261378
C            0.09850725580487        1.39727327988677        0.00011953485095
O            0.50390987466848        2.54852320954898        0.00461503757534
N           -1.25372460614641        1.05633801137247       -0.03101473447912
C           -2.21769144746634        2.15091567510538       -0.05430316345772
C           -1.82126132785048       -0.20133977449688       -0.04848256564927
O           -3.00804758893809       -0.37925640173587       -0.07391390732486
N           -0.93157959787126       -1.30393520665898       -0.03594875784109
C           -1.47688720843162       -2.64640774368348       -0.06051768812945
H            3.77477081012966        1.17641016309033        1.02863949670918
H            4.01555273685049        1.15924882611777       -0.71747613629086
H            2.68283406226488        2.10012105739116       -0.01617816616105
H            3.56843926693322       -1.66025758631515        0.05826116757586
H           -1.66483694720734        3.08720918926363       -0.03006700053864
H           -2.82161342697630        2.09199688491725       -0.95937700059872
H           -2.87703107982166        2.07994559654355        0.80851812872723
H           -1.18107235173897       -3.19760454903970        0.83269470322606
H           -1.15273918458081       -3.17783813594732       -0.95575975785938
H           -2.56251875053366       -2.55432589399546       -0.07700082640902
H            1.36868102832514       -2.94863844385969       -0.00616595199414
25
 energy: -43.838772981782 gnorm: 0.038781707729 xtb: 6.6.1 (8d0f1dd)
C            3.25319476629489        1.18798306475218        0.08050260020617
N            2.31987271485219        0.09859427513804        0.03219575496744
C            2.60452159549225       -1.24082192430855        0.03096907788333
N            1.42512609805864       -1.94246250700218        0.00602203654542
C            0.39933310348470       -1.05725019211813       -0.00340901015042
C            0.93313646537985        0.22156328865967        0.02077663934722
C            0.10643826169671        1.39024535136284       -0.00253786398741
O            0.50007737993544        2.55955489911976        0.00294847996685
N           -1.25993453116472        1.04765181759674       -0.03164695639705
C           -2.21761843619532        2.14480814137093       -0.05415685939837
C           -1.82286775946050       -0.20110258328976       -0.04874818379881
O           -3.01975064945468       -0.38349823625132       -0.07431251777743
N           -0.93476251787398       -1.30027553461289       -0.03545966254426
C           -1.47540398375605       -2.64118847619173       -0.05962373305986
H            3.78284615152316        1.18486032814029        1.03782211504246
H            3.99016572444378        1.13236574863069       -0.72352131127435
H            2.67845672630649        2.10764801587624       -0.01192152121637
H            3.57847538429474       -1.67409503379930        0.05704686604735
H           -1.65218947282929        3.07398947008893       -0.03026414123685
H           -2.82177415799993        2.09183082354904       -0.95981469307343
H           -2.87735439860985        2.07925348861038        0.81033492086003
H           -1.17630032778693       -3.19436904061104        0.83286730592071
H           -1.14783016951335       -3.17412785162726       -0.95456588228380
H           -2.56080972540718       -2.54794625291054       -0.07630377470424
H            1.35569714671404       -2.94559578169729       -0.00643589579970
25
 energy: -43.839415794888 gnorm: 0.016470993380 xtb: 6.6.1 (8d0f1dd)
C            3.25580603546583        1.18655131549492        0.07296777505768
N            2.31968451158043        0.10585661190603        0.01798468317850
C            2.60990541374090       -1.24556795941275        0.03040198254372
N            1.42217702672664       -1.94423945013661        0.01081768980994
C            0.40245564635397       -1.06057000090655        0.00008443672800
C            0.92916727164356        0.22361200327169        0.01894750599723
C            0.11570406545557        1.38158813521299        0.00433442048415
O            0.50292835227127        2.55839953568959        0.00845733253170
N           -1.26345247692211        1.04713168808896       -0.02776533410775
C           -2.21841334232322        2.14830300564673       -0.05410917936516
C           -1.81708501298265       -0.19798404225421       -0.04668644322917
O           -3.01773834283012       -0.38173295799010       -0.07520572762790
N           -0.93870159941676       -1.30245847298437       -0.03286851653934
C           -1.47964156998033       -2.64342091570805       -0.06074542294960
H            3.77515546852145        1.17706446532727        1.03369459134153
H            4.01267738846609        1.15212889897427       -0.71698589232286
H            2.68324654672507        2.10590626231078       -0.02017405937738
H            3.57980419711358       -1.67023347378546        0.06127252056274
H           -1.66630750733757        3.08644881162044       -0.02967497921873
H           -2.82189775630863        2.09235114649037       -0.95988480761423
H           -2.88144400788968        2.08097902833878        0.80781492945261
H           -1.18421471283317       -3.20208010053028        0.83065643672780
H           -1.15401903171250       -3.17969874839663       -0.95583088425266
H           -2.56501880896681       -2.55344209944598       -0.07866380843127
H            1.35996763386428       -2.94727738834608       -0.00007545929491
25
 energy: -43.839615687597 gnorm: 0.009811527021 xtb: 6.6.1 (8d0f1dd)
C            3.25238528930079        1.18257374557574        0.07800782891483
N            2.31461657701870        0.10420560652952        0.02787853549351
C            2.60426079306131       -1.24541134345400        0.03504384883195
N            1.41892727275966       -1.94336606117624        0.00801969007911
C            0.40027339871250       -1.06164869563150        0.00048828178249
C            0.92469272665246        0.22343206979809        0.02459212536653
C            0.11507763643960        1.38116041030592       -0.00159748462724
O            0.49715457216989        2.55736717779647        0.00000962932925
N           -1.26618736678519        1.04764052135002       -0.03313051760097
C           -2.21687057135066        2.14932924077843       -0.05512286830205
C           -1.81634911347022       -0.19757635854172       -0.04964587721571
O           -3.01566467658726       -0.38348843480334       -0.07519218305602
N           -0.93952341304685       -1.30175191359527       -0.03528586251006
C           -1.47558953666995       -2.64260326734119       -0.05915269729868
H            3.78237299272223        1.17724907261916        1.03308347872615
H            4.00035738491729        1.14797357617127       -0.72094692365017
H            2.68032548489850        2.10284702449536       -0.00883480126073
H            3.57453532097084       -1.66643159123011        0.05848476736850
H           -1.65527192449981        3.08158007113317       -0.03164499972176
H           -2.82314389745365        2.09495195278074       -0.95919519582470
H           -2.87454383681409        2.08221104714419        0.81086657098492
H           -1.17498494241324       -3.19458171613769        0.83462158849039
H           -1.14775887041202       -3.17755950069341       -0.95405626318524
H           -2.56090467818176       -2.55355384827686       -0.07504844403717
H            1.36255876648604       -2.94693348712102       -0.01347843699251
25
 energy: -43.839638042067 gnorm: 0.006247114875 xtb: 6.6.1 (8d0f1dd)
C            3.25354359618529        1.18239820753923        0.07576722937677
N            2.31674714287749        0.10207717569977        0.02824442465028
C            2.60434789456356       -1.24512594512164        0.03582013455657
N            1.42047679128012       -1.94201962448974        0.01146397244885
C            0.40129371335247       -1.06148656415990       -0.00077439143730
C            0.92686046508122        0.22358221650454        0.02422478684164
C            0.11655036484430        1.38369297116516        0.00097763067276
O            0.49657216752526        2.55838528064987        0.00687682568770
N           -1.26554955032226        1.04868255628530       -0.03035889448941
C           -2.21920078600291        2.14596913641029       -0.05367067285614
C           -1.81531111919537       -0.19728633982631       -0.04821469733618
O           -3.01371695743348       -0.38427955749889       -0.07342915323812
N           -0.93767337143785       -1.30048263667755       -0.03608503553364
C           -1.47713843171381       -2.63988116791280       -0.06203742993847
H            3.78027361855881        1.18565496587105        1.03339116117070
H            4.00120193144659        1.13740516665694       -0.72257053434396
H            2.68309135873006        2.10409516880913       -0.02048023077370
H            3.57627300429176       -1.66743927910268        0.05744046267573
H           -1.65751190611375        3.07737896081765       -0.02788707013303
H           -2.82128625516251        2.08989486877312       -0.96041778375453
H           -2.88057724983357        2.07672632927622        0.80937303212308
H           -1.18007662261092       -3.19546364904102        0.83033900379641
H           -1.15119526470359       -3.17289077715927       -0.95823009702014
H           -2.56224702840719       -2.54585676340488       -0.07883980069933
H            1.36499788262537       -2.94611540158785       -0.00215908236192
25
 energy: -43.839697073919 gnorm: 0.004142370610 xtb: 6.6.1 (8d0f1dd)
C            3.25335257513433        1.18404516280529        0.07813944555946
N            2.31843096066256        0.10160583647402        0.02324942041912
C            2.60523276326006       -1.24588285446587        0.03033971128331
N            1.42055616490147       -1.94199224182642        0.00668679775110
C            0.40111948092936       -1.06173409010653       -0.00375882842304
C            0.92788433866630        0.22335087552492        0.01959276904683
C            0.11800115865042        1.38395689214901       -0.00041032782559
O            0.49848538089894        2.55846771392648        0.00503318629193
N           -1.26547198777103        1.04909375979168       -0.03063723478637
C           -2.21839411382659        2.14774258084041       -0.05466907213198
C           -1.81645994420135       -0.19708850766251       -0.04757175116567
O           -3.01543477848390       -0.38324024057998       -0.07321218915262
N           -0.93846787052023       -1.30106373973706       -0.03542734782005
C           -1.47732389232769       -2.64208720492168       -0.05872874681195
H            3.77716129731588        1.17964034946494        1.03740307599950
H            4.00361213872082        1.14613981591580       -0.71772480198109
H            2.68159672683342        2.10590891726178       -0.01282409332878
H            3.57760361411390       -1.66957284119260        0.05559800329231
H           -1.65859902264069        3.08041238759901       -0.03118921577190
H           -2.82226046238392        2.09220226837127       -0.96019130810104
H           -2.87943807470240        2.08152917821077        0.80877274504243
H           -1.17996444611247       -3.19761121985177        0.83360027469730
H           -1.15137052203045       -3.17790306895961       -0.95322958415904
H           -2.56288842472489       -2.55209335063848       -0.07554261356576
H            1.36378232806324       -2.94621107991715       -0.00453452427378
25
 energy: -43.839693938319 gnorm: 0.003804375419 xtb: 6.6.1 (8d0f1dd)
C            3.25360253106142        1.18371969315344        0.07467251783459
N            2.31778538183253        0.10226188766987        0.02573297801710
C            2.60454747075837       -1.24606142816904        0.03628473621848
N            1.41941830320965       -1.94212521584124        0.00997295465227
C            0.40036051004908       -1.06191335751692        0.00078681425354
C            0.92664016129494        0.22362153082111        0.02391478276725
C            0.11803630863758        1.38294934336221        0.00106076610597
O            0.49769040257218        2.55825388123410        0.00359519504274
N           -1.26654988931283        1.04832465812146       -0.03078770296135
C           -2.21758741902032        2.14879286313686       -0.05395628494275
C           -1.81736967729426       -0.19739012847590       -0.04847347747174
O           -3.01668211480496       -0.38350020545732       -0.07706710248846
N           -0.93950292321761       -1.30144119433872       -0.03423675404364
C           -1.47644388920920       -2.64295677558573       -0.06095852569513
H            3.78225222131003        1.17886181045610        1.03097532387843
H            4.00175872872688        1.14730685787968       -0.72363989216176
H            2.68098063428625        2.10468463006175       -0.01442162176668
H            3.57652063430158       -1.66873830427815        0.06288040917525
H           -1.65852932134423        3.08229775493279       -0.02985738681794
H           -2.82304019256801        2.09507363935921       -0.95859349501319
H           -2.87705866189561        2.08196808824864        0.81057448659177
H           -1.17844446491842       -3.19832965940245        0.83137005471905
H           -1.14816485401353       -3.17714548516386       -0.95593403342380
H           -2.56207582932964       -2.55454302883951       -0.07883618273763
H            1.36260133731323       -2.94635655689264       -0.00629476964774
25
 energy: -43.839721899186 gnorm: 0.002059168803 xtb: 6.6.1 (8d0f1dd)
C            3.25377733775995        1.18318137513247        0.07682580602340
N            2.31761905206055        0.10230282591293        0.02627431870180
C            2.60449566097280       -1.24559655748330        0.03430920414699
N            1.42003000509180       -1.94200392683388        0.00860360142444
C            0.40085785236883       -1.06205439740461       -0.00025739558818
C            0.92654939765556        0.22373956766471        0.02358820926940
C            0.11829102839156        1.38298747581616        0.00044466765296
O            0.49700293272739        2.55833442481259        0.00367907484827
N           -1.26639515680976        1.04794968751939       -0.03112696339416
C           -2.21806562661587        2.14716470990214       -0.05474865063816
C           -1.81649333294295       -0.19756773580672       -0.04826639620608
O           -3.01550653640711       -0.38420046492063       -0.07433901426326
N           -0.93875457670389       -1.30114672681078       -0.03473849380038
C           -1.47716538007574       -2.64143611021550       -0.05998485471658
H            3.77979441804262        1.18049182539813        1.03453775315510
H            4.00377565996385        1.14457838747167       -0.71959394602665
H            2.68187298972236        2.10409203447780       -0.01535523850122
H            3.57659929641363       -1.66740592327324        0.05717984310242
H           -1.65863007792147        3.08039903053865       -0.03013936454568
H           -2.82216115543368        2.09202328442705       -0.96027720960923
H           -2.87829301767033        2.07924000010680        0.80921772078778
H           -1.17859616551277       -3.19574525177744        0.83278230299902
H           -1.15134009979273       -3.17594293362905       -0.95563419731167
H           -2.56250350336732       -2.54944070927884       -0.07596611056787
H            1.36398438650782       -2.94632859327076       -0.00825087685783
25
 energy: -43.839722330849 gnorm: 0.001742826185 xtb: 6.6.1 (8d0f1dd)
C            3.25294963016868        1.18353281069130        0.07675855778662
N            2.31770974407476        0.10162310745278        0.02470640959627
C            2.60424602584375       -1.24578700625918        0.03292977730478
N            1.42011979981542       -1.94204370717775        0.00922378903816
C            0.40072296099468       -1.06214890476390       -0.00226223474652
C            0.92674562340725        0.22353270255926        0.02132876749912
C            0.11862302649347        1.38361990611078       -0.00024855220518
O            0.49757057607247        2.55846958739472        0.00511241935831
N           -1.26616447432568        1.04859768379527       -0.03095070479373
C           -2.21789170941442        2.14780938433267       -0.05399513802543
C           -1.81642685040578       -0.19716221428088       -0.04854426765346
O           -3.01527360025581       -0.38350255278289       -0.07366912645392
N           -0.93866078779680       -1.30114211991251       -0.03583575135772
C           -1.47673020860162       -2.64208486166215       -0.06030265917583
H            3.77855212690685        1.18071582009197        1.03488052531473
H            4.00210709567247        1.14480098961812       -0.72024434318944
H            2.68108822744593        2.10480635360284       -0.01446794522964
H            3.57657230099657       -1.66828242126058        0.05702118665110
H           -1.65724419345831        3.08019570709541       -0.03003785537840
H           -2.82211137596476        2.09301226036632       -0.95944801701001
H           -2.87854522185666        2.08137012763770        0.80985532760093
H           -1.17925603109121       -3.19688612753268        0.83246666331051
H           -1.14958743029258       -3.17707265898218       -0.95499027531205
H           -2.56219760292735       -2.55191575856347       -0.07777572328097
H            1.36382773692379       -2.94644280909526       -0.00274703956364
25
 energy: -43.839723872342 gnorm: 0.001369833047 xtb: 6.6.1 (8d0f1dd)
C            3.25417000618790        1.18348395342834        0.07646107629945
N            2.31832204229378        0.10189995942984        0.02571169609642
C            2.60461613470377       -1.24578833595493        0.03431400007340
N            1.42024292091971       -1.94181100661808        0.00779896241538
C            0.40083203276822       -1.06190675395004       -0.00086025109690
C            0.92698542983650        0.22384908777980        0.02303530473603
C            0.11870683269888        1.38360414549489        0.00098115780241
O            0.49745274732964        2.55868776433594        0.00454563098074
N           -1.26644359217389        1.04847306003009       -0.03052659905275
C           -2.21855004220964        2.14750844597310       -0.05478403004949
C           -1.81671960112757       -0.19720524567659       -0.04765163098324
O           -3.01566671985780       -0.38369823029047       -0.07504825545446
N           -0.93875159059619       -1.30104295867762       -0.03446755652264
C           -1.47714601269873       -2.64190746236980       -0.05976069668683
H            3.78116732213226        1.17974760552472        1.03378460285684
H            4.00293631055294        1.14521437361833       -0.72104450534689
H            2.68252853973612        2.10491723123281       -0.01416696953975
H            3.57685050330304       -1.66855811735416        0.05958444523514
H           -1.65960976595625        3.08095206144482       -0.03065659347108
H           -2.82274952070525        2.09231203420422       -0.96024753591064
H           -2.87925815369997        2.08040085185400        0.80890427217420
H           -1.17908025210939       -3.19759232035355        0.83230180421174
H           -1.15099518639616       -3.17630450231126       -0.95519838932278
H           -2.56264269232341       -2.55150667756993       -0.07610947054221
H            1.36354769581658       -2.94611366474874       -0.00813667881748
25
 energy: -43.834940838939 gnorm: 0.078293794611 xtb: 6.6.1 (8d0f1dd)
C            3.27779981134200        1.19743822888031        0.04575419067871
N            2.33139506511079        0.08882312134525        0.02554405485894
C            2.59581084056795       -1.24684992326002        0.04130868553008
N            1.42141453536128       -1.95142405021092        0.01624861740812
C            0.39254556773434       -1.06769264108938        0.00511233360373
C            0.93593097582152        0.20242700993047        0.03386302953228
C            0.10256190328778        1.38941551839067        0.00401855731719
O            0.50445327775003        2.54754066037825        0.01453132353066
N           -1.25671772392926        1.04998804965070       -0.03123217962099
C           -2.21617511716463        2.14695252474763       -0.05874863058657
C           -1.82462042349802       -0.20259599965626       -0.05029907344032
O           -3.01571986433809       -0.38011283079956       -0.07807423089266
N           -0.93696980110090       -1.30569837894965       -0.03498788957983
C           -1.48395136356457       -2.64637189230822       -0.06067767555754
H            3.83529637430062        1.13554707631030        0.99213066310425
H            4.01741824358950        1.28398368925554       -0.76197014615474
H            2.66425275481262        2.10199870474751        0.05893517787272
H            3.56918926945379       -1.68220890720863        0.07559116988541
H           -1.65859522873397        3.08138605320434       -0.03477686796823
H           -2.81886051872365        2.08968214050375       -0.96552547631857
H           -2.87725865957577        2.08255496927751        0.80258819518424
H           -1.19151609288500       -3.19939918675819        0.83300595975329
H           -1.15987460571408       -3.18055212889650       -0.95460601628102
H           -2.56948892531767       -2.55200052834643       -0.07948817215640
H            1.35630042526201       -2.95391749468041        0.00194951042063
25
 energy: -43.837412801732 gnorm: 0.034334262447 xtb: 6.6.1 (8d0f1dd)
C            3.26023598431548        1.19760479237914        0.07317293413760
N            2.33056876522550        0.09957547855210        0.02401225457526
C            2.60901628934194       -1.24966976122151        0.03200567446132
N            1.42256882793247       -1.94589358198316        0.01183341885850
C            0.40164691694516       -1.05882671759938        0.00035730223191
C            0.93709314629229        0.21773469285777        0.01980984722867
C            0.11067667576295        1.38516783062559       -0.00009633266845
O            0.49956408236782        2.55584967894522        0.01273509098285
N           -1.25950716196146        1.04444072361198       -0.03233540228182
C           -2.21474215091550        2.14286427236236       -0.05847616943219
C           -1.82206734684079       -0.20207157031894       -0.05054552568436
O           -3.01961033413207       -0.38443200295826       -0.07851603930502
N           -0.93554523924804       -1.30060617321156       -0.03449475471535
C           -1.47916236508193       -2.64029782597013       -0.05915653733098
H            3.84080071896903        1.14610167313119        1.00208735855341
H            3.96306313521714        1.22161349445899       -0.76800734831606
H            2.66242193592881        2.10977924717469        0.06545190057612
H            3.57899102748088       -1.68819291362829        0.07181124443942
H           -1.64696162613127        3.07083133849838       -0.03526618802215
H           -2.81764481729312        2.08970735797877       -0.96523727546745
H           -2.87644910114850        2.08137167293601        0.80466747874231
H           -1.18454269694097       -3.19531131117159        0.83382256467996
H           -1.15286265874189       -3.17558188678277       -0.95331109830312
H           -2.56459085205865       -2.54426443262412       -0.07803420649760
H            1.35165956456332       -2.94858029158439        0.00190491868060
25
 energy: -43.838399924414 gnorm: 0.013745634958 xtb: 6.6.1 (8d0f1dd)
C            3.26545763222828        1.19817329667583        0.06493544644989
N            2.33387404413273        0.10341546476637        0.00385783628058
C            2.61295854155032       -1.25359692610911        0.02958914957376
N            1.42038171588578       -1.94673978900497        0.01735438453728
C            0.40367005067392       -1.06026609376354        0.00392379654060
C            0.93818089226839        0.22092687820219        0.01570648210904
C            0.11804125695056        1.37784121942090        0.00657630369349
O            0.50076572153264        2.55396716896148        0.01691368851712
N           -1.26181059644277        1.04235093069299       -0.02810834542615
C           -2.21560974012786        2.14324634144449       -0.05846393382221
C           -1.82009123131116       -0.20126036242317       -0.04781575295888
O           -3.02051994793195       -0.38363655908893       -0.07912328539404
N           -0.93910654133781       -1.30232503229903       -0.03069667565005
C           -1.48508457086934       -2.64194843201406       -0.06000089264433
H            3.83615280521956        1.14003639579940        0.99444390385062
H            3.98963536216529        1.25752261191567       -0.75629939087065
H            2.66783390812105        2.10703734328524        0.05897374698610
H            3.57879832379453       -1.69209234772550        0.07926102006095
H           -1.65503055607162        3.07573971501885       -0.03476432777938
H           -2.81771207222493        2.08838710446241       -0.96560382322852
H           -2.88068680009057        2.08171413315883        0.80260817220006
H           -1.19442313994631       -3.20200098985421        0.83175450621125
H           -1.16009028227632       -3.17950323217128       -0.95437334392847
H           -2.57073313987387       -2.54780783539019       -0.08082413677930
H            1.34976908383006       -2.95026721950262        0.01037058159463
25
 energy: -43.838501906631 gnorm: 0.008728719524 xtb: 6.6.1 (8d0f1dd)
C            3.26581104294405        1.19386916306138        0.06406680648482
N            2.32944818596314        0.10214357116519        0.01561560634033
C            2.60712730171140       -1.25378996588767        0.03945548453766
N            1.41663074215234       -1.94732459335498        0.01740134679653
C            0.40042955461154       -1.06288959234126        0.00839898469873
C            0.93309550542913        0.22003303986222        0.02802267222690
C            0.11781920783266        1.37682275710003        0.00428500658485
O            0.49703318922536        2.55323774764047        0.01221081588067
N           -1.26549605983205        1.04395029221519       -0.03297748493861
C           -2.21512231434318        2.14713437852706       -0.05977926720633
C           -1.82036263381456       -0.20007940198274       -0.05170845981682
O           -3.02007915669245       -0.38334669082699       -0.08127268882423
N           -0.94149474318082       -1.30273484725088       -0.03296442849913
C           -1.48065595149053       -2.64362548295265       -0.05946613529468
H            3.84063701405819        1.13859138654401        0.99218346184667
H            3.98921563807197        1.25799279951250       -0.76297745981958
H            2.66588798189599        2.10210493248966        0.06338146729457
H            3.57314414058852       -1.68784202149733        0.07710728954518
H           -1.65150569819461        3.07797223000895       -0.03626064208423
H           -2.82040065074916        2.09362110879361       -0.96493584245816
H           -2.87546504994989        2.08509228064302        0.80459217337361
H           -1.18349999932886       -3.19676256862196        0.83453595877745
H           -1.15260721424244       -3.18053099816710       -0.95315956275496
H           -2.56631698325774       -2.55354056982316       -0.07792780856326
H            1.35134767044062       -2.95118517039849       -0.00763218400460
25
 energy: -43.838594187827 gnorm: 0.005174505864 xtb: 6.6.1 (8d0f1dd)
C            3.26528154379168        1.19458315726832        0.06435945917183
N            2.33047424149709        0.10162575244532        0.01475875054468
C            2.60844852291750       -1.25292522605311        0.03790446022734
N            1.41930423178652       -1.94701536930519        0.01954090927664
C            0.40217184272618       -1.06447862383266        0.00517750104638
C            0.93387877477324        0.21929577628888        0.02535448885685
C            0.12025327656520        1.37749384465956        0.00280209666432
O            0.49787840202261        2.55357395643129        0.01359183798004
N           -1.26452869402917        1.04416093852349       -0.03176220015270
C           -2.21591135928495        2.14419828895188       -0.05861571913558
C           -1.81775585036128       -0.20006914155847       -0.05002367184479
O           -3.01695427778350       -0.38446393924196       -0.07654424574110
N           -0.93957949291366       -1.30275160642260       -0.03455899684485
C           -1.48369652227114       -2.64115807674250       -0.06122044997889
H            3.83640085420977        1.14248404071367        0.99611745331642
H            3.98989184799824        1.25126755752432       -0.76312849929026
H            2.66559935201660        2.10468292403815        0.05897821248977
H            3.57595005340627       -1.68503771691726        0.07319816678962
H           -1.65322366616178        3.07522889088554       -0.03397886337437
H           -2.81823355750947        2.08795809870308       -0.96550066943739