25
 energy: -40.427382807207 gnorm: 8.789499243447 xtb: 6.6.1 (8d0f1dd)
C            2.85917062448350        0.71965674827817       -0.41601884315175
N            1.83174987767195       -0.22896830374881       -0.04220628562594
C            2.12562884649390       -1.40023152051603        0.46610032384139
N            1.17147057813366       -2.28739935961171        0.85118139214392
C           -0.26958556495091       -2.12590221463674        0.63161505625658
C            0.51206017830061        0.15025560364151       -0.26034796782709
C           -0.04311213178349        1.43960092792440       -0.08214883360455
O            0.45661545255440        2.53798737570969       -0.07491816914532
N           -1.45920990255839        1.22610798792154        0.07326310407029
C           -2.38438587542401        2.32980379052098        0.21906916148488
C           -1.81849157029924       -0.04569474224843        0.11480924179136
O           -2.83868769833090       -0.64052568367996        0.23321573924439
N           -0.50800481331373       -0.83679436338404       -0.09525679274609
C           -0.60918446574675       -2.06647757720584       -0.85521540542729
H            3.73871976387316        0.58853904166274        0.21276014076768
H            3.13822383065066        0.58005794166726       -1.46365502786757
H            2.46587776286058        1.73173486936638       -0.29465053350795
H            3.15604859555657       -1.67724279240111        0.60742120879661
H           -1.78502121056629        3.23042160013468        0.34929577506701
H           -3.00154320037473        2.42527389845537       -0.67465800062750
H           -3.02614472351975        2.17061257446385        1.08466426160945
H           -0.54332649060037       -2.26689727238463        0.92358727991637
H            0.15351902894664       -2.24465477425287       -1.60126311842716
H           -1.62095935030950       -2.33256709495426       -1.14538498516147
H            1.45900397235189       -3.15845811912251        1.26991289603219
25
 energy: -42.130708183664 gnorm: 0.148319545856 xtb: 6.6.1 (8d0f1dd)
C            2.85923138313426        0.71971898030262       -0.41602648430018
N            1.83180709021234       -0.22900033593311       -0.04231922892077
C            2.12688719793739       -1.40010606944362        0.46649181820595
N            1.17988515846309       -2.28463519134523        0.84653504484376
C           -0.08374596520053       -2.03100215073694        0.43385023016355
C            0.51197205502033        0.15103072091569       -0.26061772988489
C           -0.04309916145869        1.43968001259102       -0.08208724004298
O            0.45661727099672        2.53800204055232       -0.07491158548626
N           -1.45930474916098        1.22609706638742        0.07330491506214
C           -2.38440478080709        2.32982142834438        0.21907484454838
C           -1.81848260709171       -0.04591030470102        0.11510526590313
O           -2.83869159989108       -0.64061489993548        0.23323017652982
N           -0.50484623800608       -0.83139123146573       -0.10135143239129
C           -0.60663500689548       -2.06438869543378       -0.86313561476265
H            3.73865120632384        0.58854322580307        0.21269378677633
H            3.13818748991469        0.58008885702683       -1.46356841632552
H            2.46592871368872        1.73164561666437       -0.29465015904420
H            3.15613948048435       -1.67720734450667        0.60749957096102
H           -1.78503195656111        3.23040939815321        0.34928793299819
H           -3.00153014078694        2.42527375270466       -0.67463869146716
H           -3.02612148078549        2.17061852815691        1.08463876984393
H           -0.74348166851739       -2.37250209390342        1.13952464783257
H            0.15326612857056       -2.24469030416823       -1.60197880727566
H           -1.62101676960906       -2.33273355100456       -1.14469975223424
H            1.45825046412480       -3.15850891342509        1.26991975636949
25
 energy: -42.152672059466 gnorm: 0.060852490352 xtb: 6.6.1 (8d0f1dd)
C            2.86349809781654        0.72430943257236       -0.41684017709150
N            1.83894913137899       -0.22580490333205       -0.04412909784977
C            2.14885936120638       -1.39285112713879        0.47319439021099
N            1.19665864093092       -2.28089961026216        0.87702539373715
C           -0.13051746760747       -2.07636214402233        0.48278514677947
C            0.51903976129924        0.15711996758629       -0.27393938125435
C           -0.03734341276629        1.44399303838947       -0.09251507930509
O            0.45983489507068        2.54450296902647       -0.07635605420879
N           -1.45392624763841        1.22540315543884        0.07289789672778
C           -2.38109624880863        2.32868429534673        0.21658317910486
C           -1.81254007737383       -0.04592109776468        0.12433879750583
O           -2.83231860327075       -0.64164628684054        0.24025035082180
N           -0.50356514373396       -0.83242136222075       -0.10520489307250
C           -0.61822261222655       -2.06295250675929       -0.90004818202554
H            3.74110222284495        0.59171152637531        0.21137591148928
H            3.14093409488136        0.58410652171892       -1.46297631318247
H            2.46900712710223        1.73377522566584       -0.29457232737631
H            3.18191778103896       -1.65841919098015        0.61352165684850
H           -1.78267916107212        3.22989995790192        0.34496993076958
H           -2.99917213897145        2.42342499566347       -0.67622847709615
H           -3.02231941266356        2.17149602844513        1.08237747677665
H           -0.79584177353220       -2.41703548846913        1.18713820857512
H            0.12445511823888       -2.19669293552109       -1.68072442624482
H           -1.63048338867934       -2.35094942533505       -1.15417134874227
H            1.47620097063488       -3.15823249388511        1.28241903600503
25
 energy: -42.157387347842 gnorm: 0.053029143489 xtb: 6.6.1 (8d0f1dd)
C            2.86695304888556        0.72751083941936       -0.42056905720126
N            1.84002931631296       -0.22194774409991       -0.04736365103440
C            2.14675384713488       -1.38738072163805        0.47142985794269
N            1.18720810266936       -2.27017825098781        0.88511404575632
C           -0.17329598689358       -2.10642982168071        0.51249948581038
C            0.52390687870299        0.16028976779202       -0.28199405904873
C           -0.03396801273941        1.44588567652546       -0.09859084631164
O            0.45934488080868        2.54758006280797       -0.08507352422563
N           -1.44999949071040        1.22363955729226        0.07241169902202
C           -2.37778266946598        2.32662065600136        0.21594927726496
C           -1.80497630052886       -0.04880426548687        0.13281128289022
O           -2.82324122346269       -0.64584889314804        0.25864810798400
N           -0.49782972319782       -0.83307670835623       -0.10249171521380
C           -0.60046007485687       -2.05884465753014       -0.91176870611738
H            3.74688329687157        0.59298254998581        0.20284207281311
H            3.14097576462430        0.59257156177763       -1.46779546039812
H            2.47658983430724        1.73745616133613       -0.29455233883290
H            3.18021472277624       -1.65038159055798        0.61766557225355
H           -1.78045642032308        3.22899880160383        0.34119711098435
H           -2.99717071612512        2.41837037676310       -0.67607705797764
H           -3.01692235020747        2.17063690563864        1.08307196234091
H           -0.84657557733730       -2.44969689583639        1.21539399181111
H            0.13615985433840       -2.16385716413297       -1.70113305946841
H           -1.60966689691970       -2.35995899454042       -1.15874931878439
H            1.46775740943555       -3.15789866734844        1.26829594564311
25
 energy: -42.158127954873 gnorm: 0.051772944203 xtb: 6.6.1 (8d0f1dd)
C            2.86867573687023        0.72922530800957       -0.42044603356092
N            1.84026304518996       -0.22039770135430       -0.04845605252951
C            2.14117019865938       -1.38697377760453        0.46887444852832
N            1.18042641967567       -2.26486477840497        0.88534154689845
C           -0.18801676304866       -2.11235390836293        0.52357959796824
C            0.52530465351275        0.15961036598651       -0.28474381206938
C           -0.03425397112394        1.44559113206512       -0.10429817317226
O            0.45728886973842        2.54777182349834       -0.09765963435031
N           -1.44967614660956        1.22235714808381        0.06929496699723
C           -2.37698486867109        2.32489249256457        0.21556286294656
C           -1.80134956778048       -0.05125644125688        0.13512161547376
O           -2.81752480394449       -0.64940078027720        0.27740602925201
N           -0.49613614232345       -0.83274167504532       -0.10227579401072
C           -0.58896783326053       -2.05577362131688       -0.91226917127368
H            3.75137394910612        0.58984093989283        0.19817367441202
H            3.13817840142961        0.60098733825581       -1.46987455781549
H            2.48145542991889        1.73977618184239       -0.28709136866378
H            3.17328655334838       -1.65197197328855        0.61998674773499
H           -1.77961002405226        3.22759229107462        0.33808020339104
H           -2.99849880651565        2.41484198748728       -0.67511064141288
H           -3.01318379243685        2.16883083547015        1.08471610475862
H           -0.86677808898399       -2.45761302313436        1.22796504485572
H            0.14928160684035       -2.15816538998301       -1.69601571083394
H           -1.59810596297230       -2.35164093158605       -1.16826429948149
H            1.46281342153294       -3.15992530101639        1.25357402385983
25
 energy: -42.158703395241 gnorm: 0.045032769493 xtb: 6.6.1 (8d0f1dd)
C            2.87047058443273        0.73122511814442       -0.41827127656981
N            1.84099909609974       -0.21848804042057       -0.04849621649019
C            2.13420998660696       -1.38755658798229        0.46651268817955
N            1.17332870707543       -2.26056397814152        0.88432560189313
C           -0.19821439016868       -2.11289364247701        0.53070402622762
C            0.52636738794587        0.15885374231130       -0.28612092792635
C           -0.03541079680961        1.44570216137565       -0.11192210678486
O            0.45445873899210        2.54854314584445       -0.11562500670860
N           -1.44991465819845        1.22134238558302        0.06444747318974
C           -2.37710867097430        2.32289823443451        0.21406285764897
C           -1.79656902639879       -0.05394268397051        0.13834155351071
O           -2.80973727667236       -0.65324326943796        0.30345384942880
N           -0.49490901279810       -0.83170153593306       -0.10346660438643
C           -0.57851216378462       -2.05241044139293       -0.91040072964321
H            3.75728997468321        0.58228444967116        0.19260255606539
H            3.13163197574198        0.61347017055166       -1.47132715093453
H            2.48740275899559        1.74209694124288       -0.27204900780965
H            3.16447130750803       -1.65674146414403        0.62254798695262
H           -1.77982766324299        3.22616593904663        0.33243404468443
H           -3.00263720850277        2.41086602895961       -0.67397718574565
H           -3.00874537763127        2.16673292119408        1.08649961996980
H           -0.88451198871031       -2.46099733351603        1.23903814741409
H            0.16582251743743       -2.16060456032369       -1.68414963828280
H           -1.58833914943655       -2.33874117994365       -1.18137388366811
H            1.45841586190921       -3.16405797907649        1.23338094768777
25
 energy: -42.159214694175 gnorm: 0.032787856132 xtb: 6.6.1 (8d0f1dd)
C            2.87205744056779        0.73311496855456       -0.41440263891946
N            1.84220344260725       -0.21643774931596       -0.04727676243532
C            2.12794414656600       -1.38833442260887        0.46576125683988
N            1.16716428850081       -2.25809848980670        0.88406807663602
C           -0.20342599901221       -2.10936411323121        0.53282470775273
C            0.52732058224982        0.15914042460660       -0.28588689635578
C           -0.03679683862305        1.44680635927511       -0.12048040726726
O            0.45174302307378        2.55022324460634       -0.13499992175762
N           -1.45024239916416        1.22101683143069        0.05871497985654
C           -2.37811388080823        2.32098207542715        0.21153762456374
C           -1.79079519129715       -0.05612247809571        0.14264716841446
O           -2.80058563609162       -0.65581479339698        0.33137527108227
N           -0.49373678796968       -0.83002213321948       -0.10549376130599
C           -0.57196167250623       -2.04945393818158       -0.90788176985097
H            3.76457166221238        0.57054484640719        0.18505963512085
H            3.12082772491491        0.62939005119883       -1.47224332273232
H            2.49467591115991        1.74389256168161       -0.25049329646262
H            3.15647435867588       -1.66268267263134        0.62507837791376
H           -1.78155755109728        3.22541258711465        0.32441125260028
H           -3.00909753273007        2.40633807405071       -0.67291027458753
H           -3.00421247468170        2.16499724417972        1.08808169653534
H           -0.89936782031968       -2.46115460777210        1.24770799735188
H            0.18182305228189       -2.16905156531005       -1.67047364546159
H           -1.58161047917402       -2.32728572189439       -1.19481315151798
H            1.45513014476414       -3.16979804146916        1.21125942188911
25
 energy: -42.159599573908 gnorm: 0.018567515766 xtb: 6.6.1 (8d0f1dd)
C            2.87281698535540        0.73409040993185       -0.41014742207941
N            1.84328443787040       -0.21532496822737       -0.04548696120440
C            2.12532338073364       -1.38870579251542        0.46716712908787
N            1.16438568627470       -2.25824097257877        0.88607068254875
C           -0.20254489980879       -2.10416096292077        0.53025423393922
C            0.52816376981600        0.16071756300801       -0.28450067766168
C           -0.03753333079405        1.44862728348597       -0.12713406328556
O            0.45048725869396        2.55215975665093       -0.14797716597295
N           -1.45031626262693        1.22156099964252        0.05381755812104
C           -2.37956343435811        2.31979670241272        0.20854668863213
C           -1.78608260431052       -0.05680212234293        0.14654161460827
O           -2.79358186918939       -0.65536982135837        0.34991385774964
N           -0.49255828395846       -0.82831213383113       -0.10688990575662
C           -0.57184208657935       -2.04809003041312       -0.90654139042859
H            3.77144167020095        0.55764351127240        0.17624781050628
H            3.10803791937003        0.64498291994553       -1.47256043722703
H            2.50193103255749        1.74428330153293       -0.22795939199207
H            3.15304977126526       -1.66650771330355        0.62672997526525
H           -1.78442433714960        3.22582472690686        0.31600003574310
H           -3.01566764593959        2.40203256547893       -0.67254895199932
H           -3.00084636532144        2.16447422372760        1.08873798381797
H           -0.90811611939314       -2.45964427388910        1.25286730479842
H            0.18989274628065       -2.17755073513044       -1.66204381912814
H           -1.57950470777284       -2.32379573827543       -1.20257953086304
H            1.45419880288318       -3.17545015761019        1.19464646068332
25
 energy: -42.159816310397 gnorm: 0.007843447568 xtb: 6.6.1 (8d0f1dd)
C            2.87256942087604        0.73400947749437       -0.40685226706745
N            1.84360703353137       -0.21580588335810       -0.04419878403195
C            2.12705629429406       -1.38862965115009        0.46953947029747
N            1.16583892398255       -2.26022912744136        0.88967249849628
C           -0.19744990632605       -2.10080389388425        0.52654572427477
C            0.52878720382331        0.16240091389751       -0.28326894108826
C           -0.03718631984728        1.45006879897563       -0.12999432799408
O            0.45114053878776        2.55334545683846       -0.15076518932917
N           -1.45006062723307        1.22243983930572        0.05089710118672
C           -2.38064136852865        2.31962799322490        0.20543797298485
C           -1.78443505329014       -0.05600726900020        0.14878971481595
O           -2.79192005755315       -0.65258452593476        0.35425486773133
N           -0.49160274995827       -0.82747550062649       -0.10624851316168
C           -0.57629674299692       -2.04858349699018       -0.90678324922754
H            3.77598107813940        0.54751781870815        0.16848133344171
H            3.09714003326628        0.65658211223019       -1.47230571925902
H            2.50731884540473        1.74331049049097       -0.21041191374985
H            3.15513166723054       -1.66634090666704        0.62717236467142
H           -1.78695554942571        3.22706106709402        0.30891876869367
H           -3.01977368883876        2.39872344878250       -0.67374252410589
H           -2.99922453196546        2.16563808816766        1.08779303287110
H           -0.90992946942023       -2.45901824406360        1.25562226828675
H            0.18694990595093       -2.17883654066545       -1.66300545324804
H           -1.58170978718747       -2.32827991822179       -1.20138735594022
H            1.45609642138366       -3.17989200560709        1.18701073835359
