72
 energy: 47.536240338970 xtb: 6.6.1 (8d0f1dd)
N           -1.69695618952993        3.10068872714297        2.20679923137033
C           -1.77512665958278        2.20734942958120        1.32894329733496
C           -2.93695917529000        2.08409510361361        0.38073742139196
C           -3.46305862257340        0.66037697637387        0.41726923810891
C           -4.32702901356931        0.19994646526881       -0.57867842408812
C           -4.84160444286973       -1.08167547955017       -0.54757670898206
O           -5.67852720080521       -1.61279557571377       -1.48181526744778
C           -6.13061031534324       -0.79243424406189       -2.52947643114710
C           -4.49914475822587       -1.94736201994259        0.51546393695413
O           -5.05342060801782       -3.18938610765792        0.46110112216273
C           -4.76946603729282       -4.09064134027992        1.50022251089458
C           -3.64331807469545       -1.48677843822149        1.49839501005937
C           -3.13510437082724       -0.19522595216912        1.45001763725878
C           -2.36511607160618        2.40241790067216       -1.01612650499366
C           -1.42645623812011        1.33286779127385       -1.59264784144428
C           -0.01776149111642        1.36618299236187       -1.08291029207001
N            0.71124760989511        0.36823981641680       -0.80396717696643
C            2.10476221473080        0.60926092072396       -0.45926468568802
C            3.03551856204655        0.10467226038584       -1.59310485544184
C            4.43506526921372       -0.08139665587170       -1.10849480663169
C            5.38679632036760        0.88529131330815       -1.30671882626840
C            6.66691377425295        0.73327127735387       -0.79694120983435
C            6.99428461100229       -0.40286615366063       -0.08271900626510
O            8.21695403262988       -0.65186573115156        0.46509461411801
C            9.22727817343227        0.30642564831393        0.26200230519154
C            6.01518529253815       -1.39542463224256        0.15004084727621
O            6.47067992467632       -2.44812027622943        0.89134276220892
C            5.62317556105562       -3.52276742583745        1.18210967029946
C            4.75016358233290       -1.21336949117560       -0.36453012660204
C            2.00536215076743       -2.27217699670746       -0.19921675912154
C           -4.11732876123931        3.04136061682110        0.69624513060123
C           -4.69205996014001        2.74574499770388        2.08073885443551
C           -3.74528775181561        4.52050109168994        0.60624066202886
H           -4.59773311904735        0.85917234202714       -1.38793203330278
H           -6.66645028219566        0.09228586688729       -2.16684267383301
H           -6.81240627037149       -1.41109063089327       -3.11127868307454
H           -5.30300557132162       -0.47349299905366       -3.16937646295785
H           -5.10655431300546       -3.70699288028513        2.46879055366045
H           -5.32353046693141       -4.99635441800885        1.25757714687417
H           -3.69926875946161       -4.32291245085358        1.55195571242886
H           -3.36160943413436       -2.12151977419115        2.32271643417945
H           -2.48575698557471        0.14034459661361        2.24393885107766
H           -3.20557865176790        2.52090086920563       -1.70152579773172
H           -1.85403439943365        3.36532613286569       -0.96622954826316
H           -1.85273187206858        0.34286625187691       -1.47330079764236
H           -1.31897064296243        1.53830379011567       -2.66174632095203
H           -0.96264095335667        1.51171445536756        1.04178180348230
H            0.36646490573769        2.39706064182134       -1.02227509293789
H            2.45828347167839        0.15340471652473        0.47235629432366
H            2.22573014235333        1.68438079973371       -0.30577485414257
H            2.99496172018634        0.82368689887973       -2.40429147892972
H            2.65023901555972       -0.83652852081194       -1.97812956790496
H            5.10874053171673        1.76436375653553       -1.86088810926711
H            7.38587400757659        1.51679701797158       -0.96648868264423
H            8.96595647577273        1.27699197550355        0.70216270659980
H            9.43959832436211        0.44823903619550       -0.80386099288710
H           10.10983780149567       -0.09400176016308        0.75869248054455
H            6.23536364148086       -4.24948651407725        1.71597543072278
H            4.79669641209046       -3.21667267233803        1.82876146920140
H            5.22958310079155       -3.98449200272687        0.27220700346097
H            3.94172216513729       -1.89770078695383       -0.20984490493378
H            2.43602950184629       -2.79174358142129       -0.99762215321539
H            0.95904833801704       -2.23991294472974       -0.32828593437397
H            2.38513050200088       -2.40371062894211        0.78982569742488
H           -4.89861700367607        2.83862961130183       -0.04777925243335
H           -3.94724385015010        2.96222153489764        2.83976198923666
H           -4.99187277753686        1.70386014959717        2.16974528776880
H           -5.56162734427191        3.37187597638586        2.26223077646074
H           -2.91707509762427        4.73100852194955        1.27553414899446
H           -3.47504259645063        4.80978173650312       -0.40579134940879
H           -4.60023118373864        5.12282018985588        0.90862398108970
H           -0.87877473487164        3.11006787248443        2.81631688014417
