25
 energy: 0.000000000000 xtb: 6.6.1 (8d0f1dd)
C            3.23720132972391        1.16630909158653        0.08434468864950
N            2.29877796055224        0.07527476373246        0.03981602671198
C            2.58028186251803       -1.21425391179017        0.03006175752192
N            1.43813944744728       -1.93419254010258        0.00098261751768
C            0.39035684826767       -1.05887462812143       -0.00790371763344
C            0.93510047688824        0.21347817468824        0.01709077332874
C            0.09450143016486        1.40504290868848       -0.00410946993748
O            0.49712746915594        2.54126690785742       -0.00342325656480
N           -1.25076628431515        1.06271869620815       -0.03085477937476
C           -2.21907191394203        2.15522079838987       -0.05001256521996
C           -1.81739470187490       -0.20012724136556       -0.04692818139228
O           -2.99983858926755       -0.37846413507442       -0.07008877579474
N           -0.92618577614240       -1.30210203518959       -0.03682761236648
C           -1.46982251276835       -2.64643077634382       -0.06029819901142
H            3.71247229913541        1.21471443890471        1.06488839270555
H            4.00791460421487        1.03430799217987       -0.67357688121503
H            2.69909982127087        2.09770098766290       -0.09130154035862
H            3.56654087521359       -1.63682977417947        0.04233139674524
H           -1.67107945562430        3.09322822573871       -0.02552706696334
H           -2.82428927394145        2.09428605349656       -0.95318074103337
H           -2.87644002486466        2.07745706351925        0.81450059976605
H           -1.17061985538665       -3.19584861009707        0.83242224714061
H           -1.14560246782873       -3.17511580834413       -0.95688266944647
H           -2.55549768731684       -2.55659960601237       -0.07459039105944
H            1.38130842369251       -2.94313824728853       -0.01389874052104
25
 energy: 2.394035612356 xtb: 6.6.1 (8d0f1dd)
C            3.25866849204435        1.19569643730337        0.06780362186806
N            2.31777496048031        0.13422391510461        0.04485497940311
C            2.63116246486859       -1.24883885323958        0.05514063189615
N            1.41564699890578       -1.93993509255757        0.05239809452169
C            0.40028912257157       -1.05386033275506        0.02734809267542
C            0.91590068149636        0.23509753588982        0.03403442355756
C            0.10936979004510        1.36597102614762        0.02064077037636
O            0.49976127161408        2.57057986247973        0.04190827408477
N           -1.29403514135572        1.01514197002793       -0.07100947789177
C           -2.20579358536054        2.15014295153969        0.01053648069975
C           -1.87926230201932       -0.23048822284188       -0.32050147738134
O           -3.08936803164715       -0.41379186136861       -0.55509351803417
N           -0.95958683717346       -1.30324063874999       -0.03795560704856
C           -1.47291635454116       -2.64020393604703        0.00720149612798
H            3.78012773022183        1.23530620107794        1.03273969444248
H            3.99786223782778        1.05553030808992       -0.72825341313355
H            2.70481867246164        2.11725035107750       -0.08751901079132
H            3.60171197556807       -1.66562071190219        0.05296878979027
H           -1.62634068080396        3.07572056762851        0.07026568857010
H           -2.83145007122318        2.15210304773291       -0.87937129761165
H           -2.83662146912561        2.06176352239291        0.89734054171566
H           -1.01598276605148       -3.25205126654059        0.79735643167122
H           -1.32046823775752       -3.12893352105563       -0.95764107789168
H           -2.54586373652342       -2.56048258812512        0.20670643193357
H            1.35680912044955       -2.93805188256525        0.04513434864451
25
 energy: 26.389512477224 xtb: 6.6.1 (8d0f1dd)
C            3.27053990009318        1.20968065970731        0.05854175466100
N            2.32496004549887        0.16589270586346        0.05127323175074
C            2.65602835781731       -1.26768904991855        0.07595590470312
N            1.40251593942595       -1.94025166447469        0.08399127790231
C            0.40425124846359       -1.05202450697818        0.05043328255540
C            0.90398861771104        0.24585409338875        0.04645462962649
C            0.11666439597845        1.34294813826513        0.03061875792533
O            0.49565143712031        2.57996851225286        0.06313935364460
N           -1.32515239169379        0.98649440562387       -0.09600015889481
C           -2.19781135925632        2.14897217990326        0.05174950409575
C           -1.91345140874925       -0.25141103299509       -0.51520272699705
O           -3.12199778891325       -0.43788765213324       -0.87947112642739
N           -0.98058542141233       -1.30056826250193       -0.03892373323982
C           -1.47559753377594       -2.63388184477969        0.05249836615114
H            3.82343877974771        1.24462180169355        1.01078840587933
H            3.98951269715619        1.06894823694532       -0.76114045935355
H            2.71203032370166        2.13007860394795       -0.08040531308249
H            3.62060633861448       -1.67596726868779        0.06468099193308
H           -1.60140703246575        3.06774652120489        0.13050426292042
H           -2.84008581034069        2.19102964919721       -0.82516060895332
H           -2.80633669800876        2.05403926582187        0.95616624371892
H           -0.90469524700722       -3.28934003260939        0.75724435201226
H           -1.46263199435004       -3.09462931291579       -0.95724008464905
H           -2.53011590579874       -2.56866704989642        0.41179842057790
H            1.35189481541589       -2.93492830718077        0.08473938373436
25
 energy: 50.908600718403 xtb: 6.6.1 (8d0f1dd)
C            3.27857360414792        1.21502690286383        0.05396358485274
N            2.32473312591606        0.18471459599440        0.06237913228183
C            2.66780273345190       -1.28387804032992        0.09850869982151
N            1.39221229694443       -1.93675043414361        0.10281288040657
C            0.40341576553876       -1.05303505427754        0.06646744341310
C            0.89599319761592        0.24910787524146        0.05944964505859
C            0.12014740852608        1.32985592141318        0.02695576903443
O            0.48716028397635        2.57690575291885        0.06513538645931
N           -1.36345476457069        0.96193674189783       -0.11312725295049
C           -2.19205378461199        2.14900123463860        0.08772392015013
C           -1.93993044111024       -0.27386461607249       -0.70443760951200
O           -3.11070170760484       -0.45833761672035       -1.12358447420346
N           -1.00286987213872       -1.29031420892884       -0.04267277774358
C           -1.47951042274738       -2.62291347814973        0.09202428282093
H            3.85741067254617        1.24860579581064        0.99228675418667
H            3.98150857703240        1.08117817797527       -0.78265148634993
H            2.72287581615734        2.14142003158082       -0.06808605570780
H            3.63473285417922       -1.67591812350079        0.07667279748717
H           -1.58769306781571        3.06506813314189        0.17557683095866
H           -2.84851592375228        2.22143385980258       -0.77219895495804
H           -2.77630374757389        2.05114543310835        1.00951359314990
H           -0.82919946990182       -3.31366720708843        0.69305034589107
H           -1.60369456509542       -3.05733973837187       -0.92915347329593
H           -2.48501300965240       -2.58600379296457        0.58317508340926
H            1.36458874551535       -2.93434935709574        0.11724984753399
25
 energy: 59.872739406340 xtb: 6.6.1 (8d0f1dd)
C            3.28046849476459        1.20934810640653        0.05127589869967
N            2.31601178451372        0.17914390960418        0.07968287041552
C            2.65668953451463       -1.29192759541924        0.11888156053794
N            1.39049400312808       -1.92952175595859        0.10648883611033
C            0.39193143360784       -1.05828333651455        0.07303441849107
C            0.89949561587125        0.23875985375701        0.07822512217217
C            0.11694981298118        1.34180219387573        0.01768486518673
O            0.47821776676770        2.55981049480698        0.05544690388724
N           -1.40513743179726        0.94529659772003       -0.11423500985412
C           -2.18882002235919        2.14769534348819        0.10945326316233
C           -1.96067507460127       -0.29911349414968       -0.82965223224935
O           -3.04919827435168       -0.46847007698616       -1.30289880210975
N           -1.02608119261897       -1.27346367470156       -0.04498590592652
C           -1.48676740247059       -2.61397701502057        0.12001692946430
H            3.87607194548601        1.24660158673253        0.97489260311458
H            3.97094049531996        1.08839006475509       -0.79435054750547
H            2.73454274869982        2.14867047303040       -0.05676049710927
H            3.64014931146850       -1.66182173032982        0.08170302209488
H           -1.58553013185986        3.06493153232387        0.20156058482724
H           -2.85600089140442        2.24331349780817       -0.72993396489551
H           -2.75045486954390        2.04921953248332        1.04557237277127
H           -0.79522426299091       -3.32002153964085        0.59667623157719
H           -1.73203055523778       -3.01070170438692       -0.86897532071396
H           -2.40238572202970       -2.60968333503494        0.71472971459578
H            1.39855718911479       -2.93696913990529        0.14350099545037
25
 energy: 57.633950695637 xtb: 6.6.1 (8d0f1dd)
C            3.26642724587335        1.19183738303990        0.05552460066061
N            2.29568462559857        0.12108210477942        0.12090404886004
C            2.58514227087502       -1.22921456872167        0.15430970821938
N            1.42441725965655       -1.90910109526883        0.11437279102739
C            0.34470808190040       -1.05813703622270        0.03999452169804
C            0.92587139319711        0.21312395903762        0.08440433091013
C            0.11260005005383        1.39089583958981       -0.01672860307030
O            0.49095762944007        2.51012398344201        0.05902447825558
N           -1.40426537764583        0.93847756003495       -0.16459851651475
C           -2.18109692607463        2.13950347971802        0.12733660858577
C           -1.96450946015544       -0.35311417754676       -0.87671962025944
O           -2.91295745067074       -0.47052126255879       -1.57819967194576
N           -1.03435423573990       -1.27335037203204       -0.09718567183177
C           -1.51048107735753       -2.63726550425807        0.15066009670457
H            3.87764983915978        1.22323250753153        0.95970056731238
H            3.93353891658012        1.07220596666307       -0.80158446483644
H            2.74062997590898        2.14320788894320       -0.04148018305086
H            3.60086900919900       -1.59115935515345        0.10230637497190
H           -1.58986164782193        3.06552679145278        0.23366630673642
H           -2.89033944815764        2.29456533156941       -0.67437995592941
H           -2.71198266064090        2.02869909502548        1.08529693766767
H           -0.72404347695536       -3.33928729930812        0.38789635267830
H           -1.99603903044676       -2.92404230611540       -0.76305591923052
H           -2.22672827219885       -2.63809613986173        0.97316339196699
H            1.46037707139527       -2.92016398503578        0.19240540260873
25
 energy: 70.628173303929 xtb: 6.6.1 (8d0f1dd)
C            3.26579479716795        1.19511967774041        0.05585328623914
N            2.29807662238126        0.13233076716982        0.12776881117780
C            2.59312041234319       -1.21277999434005        0.17280571998003
N            1.42435517320583       -1.90915128252226        0.12842086745632
C            0.34562301175898       -1.05680591677120        0.04523655822989
C            0.91338222783312        0.21957427335334        0.07384835990872
C            0.11313292722948        1.37674927993439       -0.03024709957181
O            0.49454975878084        2.52927698629048        0.07434874059752
N           -1.39498873152058        0.93691109001194       -0.19888870965402
C           -2.17845821311246        2.13755859649142        0.14822974804215
C           -1.96288892623493       -0.36605390527659       -0.97892767208490
O           -2.89637580269951       -0.47858366890514       -1.73368565728164
N           -1.02989466511940       -1.28494786237998       -0.11361177063588
C           -1.51381920156000       -2.63349138855265        0.17979200283174
H            3.89190285147676        1.21374076638697        0.95417989352100
H            3.91972439419989        1.06767830137189       -0.81466693885543
H            2.73822809455632        2.14294007913463       -0.03022393316857
H            3.59927003880396       -1.57751791563166        0.12555320889954
H           -1.58952479141107        3.06594525649789        0.25604852591572
H           -2.90450055435307        2.30425458018308       -0.63758121885575
H           -2.68911153025714        2.01205085257267        1.11887371087202
H           -0.66837083172790       -3.38350995208681        0.32393492300702
H           -2.13709511903821       -2.89514918566500       -0.74473908230957
H           -2.18238473148656       -2.63221776593491        1.11220996387474
H            1.46246709375582       -2.91489288032885        0.21250167405887
25
 energy: 73.355943517905 xtb: 6.6.1 (8d0f1dd)
C            3.26110640869111        1.19402068837600        0.04050531349174
N            2.29736336130175        0.13246227268299        0.11883952521255
C            2.59392306128918       -1.19086822263165        0.17175344857219
N            1.42364952795413       -1.91188281746373        0.13639975814436
C            0.34482302443812       -1.05596572743957        0.06473378624194
C            0.89983857956302        0.22339304401773        0.06492041073832
C            0.10046480235696        1.36637159250912       -0.01941107728795
O            0.49327313998878        2.54334753750323        0.09471553656830
N           -1.36539585428693        0.95754727227190       -0.19700738651395
C           -2.17711120368959        2.13865477989878        0.16642991742202
C           -1.94764570663861       -0.36428663681900       -0.99063589336814
O           -2.88813501715263       -0.47940219651376       -1.83526741062331
N           -1.01537711372563       -1.30225052525721       -0.11591913397091
C           -1.51495514498407       -2.63001952026504        0.19102215280373
H            3.89941981372436        1.20375356032058        0.93387240722705
H            3.90689484726542        1.06391586858376       -0.83846694037157
H            2.73026758983906        2.13906762971974       -0.03345724141838
H            3.58977773288825       -1.57331684815326        0.12706722544889
H           -1.59222959612922        3.06809026885697        0.27464946007103
H           -2.90750912597004        2.29356438537915       -0.61042961621994
H           -2.67655048915851        1.99234800075354        1.13922821882684
H           -0.74825997414952       -3.37400357353098        0.33961778595110
H           -2.09306375906473       -2.90560558190814       -0.66561007224779
H           -2.15289094829346       -2.62656958945506        1.05530516861009
H            1.45053634891537       -2.91333687269225        0.21417856888647
25
 energy: 63.460752286248 xtb: 6.6.1 (8d0f1dd)
C            3.25645415320595        1.19220437658186        0.04736763778829
N            2.29413703881373        0.12950959188497        0.11414996766056
C            2.59283292262625       -1.18394867878407        0.17340467822759
N            1.42321865030116       -1.91293993230725        0.13114374496666
C            0.34449949657231       -1.05491178943491        0.05198307077142
C            0.89505744408545        0.22369349861231        0.05279064002930
C            0.08869885841025        1.36428209013636       -0.02545546576930
O            0.49290272021775        2.53619681877477        0.08166926760959
N           -1.34803395864443        0.97674706851766       -0.18949660400281
C           -2.17454706907975        2.14047980813146        0.15580715783546
C           -1.94328163897908       -0.36217473197755       -0.98729638067017
O           -2.88097626191148       -0.47760409742723       -1.73999491347919
N           -1.00703731214073       -1.30819489298189       -0.13484199903147
C           -1.51251346057008       -2.62582553051046        0.17588026516635
H            3.88610015617949        1.20083127287557        0.94351453582439
H            3.90993808538392        1.06649614992615       -0.82252385629491
H            2.72563322776596        2.13752707116520       -0.02597124036504
H            3.58615747352047       -1.57769587829802        0.14172352416539
H           -1.59737386753340        3.07365898415036        0.25963066173244
H           -2.89604903868844        2.27212146331488       -0.62300323983961
H           -2.67807890341006        1.98719418225168        1.11946166544035
H           -0.73131344686176       -3.38914809847621        0.30095268057104
H           -2.11677609856647       -2.88695518118494       -0.67892766671297
H           -2.14178737812193       -2.61778547657747        1.09099683571062
H            1.44435251239742       -2.91472929961940        0.21406894486065
25
 energy: 64.235662436354 xtb: 6.6.1 (8d0f1dd)
C            3.25268904412349        1.19486661691547        0.04899052375619
N            2.29112769570293        0.12912269154287        0.11133592107987
C            2.59526140193564       -1.18099637580393        0.17739646580429
N            1.42778662426146       -1.91445483584650        0.13453178997790
C            0.34679500784756       -1.05597564861644        0.05114107476818
C            0.89518467204765        0.22050251586473        0.05228693244639
C            0.07334471913908        1.36220350372486       -0.02214351376392
O            0.49449732972685        2.52138975624589        0.06752373154032
N           -1.33111545530339        0.99211973738956       -0.17894347007264
C           -2.16934327968178        2.14458953644188        0.15626065137244
C           -1.94389042493237       -0.37247145842456       -0.99634194941174
O           -2.87743705109334       -0.48159746757124       -1.73719563454014
N           -0.99917197782537       -1.31754602632852       -0.14925990965767
C           -1.50781721249721       -2.62763770323444        0.18191563870733
H            3.87891528420550        1.20448267876755        0.94584382313761
H            3.90972299062675        1.07398505565109       -0.81722985305984
H            2.72116549568621        2.14052558442762       -0.02404785051674
H            3.58862979855251       -1.58191261928785        0.14515118116346
H           -1.60324161427210        3.08484484844776        0.25757532945832
H           -2.89514523925793        2.26674775445380       -0.62504725963466
H           -2.67260468954861        1.99044941565228        1.11742794158233
H           -0.72843901256868       -3.40663227305356        0.26966617006311
H           -2.18186241871449       -2.86688155140638       -0.67122293319509
H           -2.10085798024200       -2.61375950384533        1.11001402079215
H            1.44802059705417       -2.91693544336281        0.22140509039725
25
 energy: 69.373477324893 xtb: 6.6.1 (8d0f1dd)
C            3.24696591968767        1.19782055330674        0.05085158723725
N            2.28306009024247        0.13175063532873        0.10421287130409
C            2.60030546253790       -1.18333212055491        0.18311691817240
N            1.42811816109397       -1.92048346135487        0.13939292708075
C            0.34738103882783       -1.05763825354063        0.04268817114720
C            0.89299161904636        0.21401598975710        0.04702070572168
C            0.04381382336032        1.35993880340349       -0.01830394376875
O            0.50179613851848        2.50371509648469        0.06537501812065
N           -1.30050699239563        1.02274316043732       -0.16402103781453
C           -2.16050554000971        2.15852366886926        0.16363189932679
C           -1.95289075033245       -0.39071433056365       -1.02915419340483
O           -2.89787616548571       -0.48448372976146       -1.74812002427947
N           -0.99343613365042       -1.33405103964079       -0.18637185365850
C           -1.50736222966444       -2.63090462711114        0.18039589776715
H            3.86964086037909        1.20829327442378        0.94979826243714
H            3.90905796792905        1.07882403381598       -0.81130145847530
H            2.71653259352459        2.14457766234536       -0.02511944392382
H            3.59185564011380       -1.59315919483638        0.14671916038909
H           -1.61212578680855        3.11030011243600        0.26198841762472
H           -2.88876366544386        2.26348736864865       -0.62732941915469
H           -2.66678056081250        2.00017242818503        1.12033816069661
H           -0.71863905659866       -3.41637732146012        0.22248444194956
H           -2.21146647516872       -2.84073116389802       -0.62998947990333
H           -2.05478926314666       -2.63039522026854        1.15897010544521
H            1.44583760922828       -2.92286353570780        0.22976022215763
25
 energy: 80.488314494372 xtb: 6.6.1 (8d0f1dd)
C            3.24410422047108        1.20261823928850        0.04931437564288
N            2.27440180628799        0.13992881706108        0.09612553599451
C            2.61236071680171       -1.19054822606043        0.18543929009282
N            1.43039124523011       -1.92714036825078        0.14716164155300
C            0.35219901407423       -1.05810093120284        0.03920917088601
C            0.89831213381608        0.20600733634786        0.04609027231699
C            0.01902244477955        1.36810960737600       -0.00453906419338
O            0.52560886156781        2.49476176715174        0.08918094162184
N           -1.26922254971804        1.05612002200078       -0.13529906743270
C           -2.15228888560449        2.17609588639270        0.17459863303684
C           -1.97038840988448       -0.42772698961013       -1.08894473959062
O           -2.95245178102667       -0.50018703132929       -1.76346188375694
N           -0.98702097616598       -1.35376147455591       -0.21284599139089
C           -1.50291150128783       -2.63933403868261        0.18646173809517
H            3.86425923287970        1.21514243469722        0.95113091281266
H            3.90958323899555        1.07868488302158       -0.81129012882598
H            2.71555252183015        2.15081635066425       -0.03466840578555
H            3.60393467773386       -1.59482322796769        0.13134978639258
H           -1.62655448238398        3.14216810355343        0.26677106382657
H           -2.86901568136308        2.25045757416472       -0.63586157603983
H           -2.67256154418076        2.01422052499570        1.12198907261450
H           -0.73371783679397       -3.42169600831277        0.20652878909685
H           -2.24490704260446       -2.83215804631465       -0.58799288195407
H           -2.00812611226875       -2.63149240469794        1.17451481776859
H            1.45165099378722       -2.92913401098666        0.23607160941280
25
 energy: 114.112842682176 xtb: 6.6.1 (8d0f1dd)
C            3.24388128689614        1.20657697364285        0.04451323760835
N            2.25478361392081        0.15635132337717        0.08492826888680
C            2.63198054409466       -1.21093971323919        0.18540422642511
N            1.43154061284893       -1.93546898827031        0.16517205786390
C            0.35615242084731       -1.05445551185264        0.04608893849116
C            0.91827237025091        0.19304275582639        0.05205236437359
C           -0.01019547825161        1.40858594711880        0.02677893671084
O            0.60066062539665        2.49542787710609        0.13218096028650
N           -1.21481844884803        1.12540351391316       -0.06154079517778
C           -2.13795822980995        2.21670752985619        0.19986617225470
C           -2.02624431308236       -0.52991157852702       -1.25886389275673
O           -3.11004886697068       -0.55065227000237       -1.80204448155782
N           -0.98629043888770       -1.39079625454687       -0.23582564318481
C           -1.49654844502767       -2.66073999558577        0.20444453422975
H            3.86236881976254        1.22290271218533        0.95042930150234
H            3.91100841686829        1.06933613138691       -0.81844882633386
H            2.71877501829629        2.15882755974088       -0.05495421784636
H            3.62673138279258       -1.58638945654415        0.09333800391854
H           -1.65145208065956        3.20624368648237        0.27555982561052
H           -2.83367223482272        2.22955381757784       -0.65158670530631
H           -2.68726856272168        2.04915929056829        1.13244309057731
H           -0.75786961528600       -3.44325802232157        0.18447903768108
H           -2.27619608100573       -2.80954784010640       -0.50009782163198
H           -1.92625162706043       -2.63976683839424        1.18847943324023
H            1.47087361543160       -2.93716386064795        0.24423790632958
25
 energy: 129.704602876567 xtb: 6.6.1 (8d0f1dd)
C            3.25331560498427        1.20376327530628        0.04249505985438
N            2.25405241588366        0.16188036863924        0.08597345557456
C            2.63506800504495       -1.23166847547185        0.17531392091562
N            1.43128524739974       -1.92872733931115        0.15828891029860
C            0.35797241342703       -1.04967423032829        0.05957591602633
C            0.94253255255959        0.19391601695162        0.06091449218777
C            0.01902115803623        1.45504304309630        0.03648762697906
O            0.65560776834962        2.52392304731221        0.14049730358023
N           -1.22281325368951        1.13815442655802       -0.02583501433212
C           -2.14056809820885        2.23035501366666        0.21049518700583
C           -2.07318113924212       -0.59616411836352       -1.34794067908575
O           -3.20698364719803       -0.59931815781293       -1.83235256104236
N           -0.99396584370321       -1.39256438700934       -0.18953400195594
C           -1.49176256131900       -2.67107959432096        0.21158001095715
H            3.87108872479475        1.22054897186104        0.94939788113484
H            3.91572579663866        1.06253033750893       -0.82660970334455
H            2.72478252452734        2.15693739471785       -0.06053977761461
H            3.63427409637684       -1.57486595791645        0.08215057595982
H           -1.65669911287555        3.21930774947945        0.27698070261901
H           -2.82530724290223        2.22639693208374       -0.65287081124147
H           -2.70012568175048        2.06328248286085        1.14293422709937
H           -0.78328793088850       -3.44073548346617        0.20415782456471
H           -2.26035416375427       -2.81299920209146       -0.48428962646285
H           -1.91617793649557       -2.63665319010320        1.17727110209726
H            1.48871460897726       -2.93256013510315        0.23249189041976
25
 energy: 128.123079737816 xtb: 6.6.1 (8d0f1dd)
C            3.26512015756098        1.18178649192639        0.02685285146404
N            2.31231833749700        0.09248184942938        0.11035937102304
C            2.58121668519889       -1.20734264475299        0.12318670455054
N            1.46656087592397       -1.89829249880426        0.12205631568001
C            0.32587526844248       -1.06944641732422        0.09614604101413
C            0.95365940353990        0.22473896597424        0.05316493687984
C            0.20694344335409        1.56411064398499        0.06295565277733
O            0.73104080341079        2.66272441471604        0.11368874622565
N           -1.24909467087490        1.14967667652603        0.07985242184108
C           -2.12444572522536        2.25810672783895        0.21959138066263
C           -2.27714054535920       -0.79375336668435       -1.68908837186583
O           -3.39594236748202       -0.71189770844907       -1.91460349382731
N           -0.96935143741058       -1.33631794275586        0.11118697701390
C           -1.46620325909247       -2.66559061783195        0.23423754308604
H            3.86726846407691        1.20238076950944        0.93114408210846
H            3.91730090004189        1.05007221644257       -0.83056777072189
H            2.72244155130293        2.12554453756625       -0.06028319017820
H            3.60324999477702       -1.52729321112128        0.10199048962775
H           -1.64478193578545        3.23332590454059        0.28370761091855
H           -2.78166047751705        2.22294795388177       -0.60041641650732
H           -2.70240531594660        2.07352177815582        1.13564414501832
H           -0.76483994019806       -3.49783289565742        0.18658647396337
H           -2.24492071324976       -2.79946170192946       -0.51556215192358
H           -1.93888864179556       -2.63884608549513        1.22779879572492
H            1.51889344978277       -2.90631505094270        0.21740476763919
25