      -----------------------------------------------------------      
     |                   =====================                   |     
     |                           x T B                           |     
     |                   =====================                   |     
     |                         S. Grimme                         |     
     |          Mulliken Center for Theoretical Chemistry        |     
     |                    University of Bonn                     |     
      -----------------------------------------------------------      

   * xtb version 6.6.1 (8d0f1dd) compiled by 'conda@1efc2f54142f' on 2023-08-01

   xtb is free software: you can redistribute it and/or modify it under
   the terms of the GNU Lesser General Public License as published by
   the Free Software Foundation, either version 3 of the License, or
   (at your option) any later version.
   
   xtb is distributed in the hope that it will be useful,
   but WITHOUT ANY WARRANTY; without even the implied warranty of
   MERCHANTABILITY or FITNESS FOR A PARTICULAR PURPOSE.  See the
   GNU Lesser General Public License for more details.
   
   Cite this work as:
   * C. Bannwarth, E. Caldeweyher, S. Ehlert, A. Hansen, P. Pracht,
     J. Seibert, S. Spicher, S. Grimme, WIREs Comput. Mol. Sci., 2020, 11,
     e01493. DOI: 10.1002/wcms.1493
   
   for GFN2-xTB:
   * C. Bannwarth, S. Ehlert and S. Grimme., J. Chem. Theory Comput., 2019,
     15, 1652-1671. DOI: 10.1021/acs.jctc.8b01176
   for GFN1-xTB:
   * S. Grimme, C. Bannwarth, P. Shushkov, J. Chem. Theory Comput., 2017,
     13, 1989-2009. DOI: 10.1021/acs.jctc.7b00118
   for GFN0-xTB:
   * P. Pracht, E. Caldeweyher, S. Ehlert, S. Grimme, ChemRxiv, 2019, preprint.
     DOI: 10.26434/chemrxiv.8326202.v1
   for GFN-FF:
   * S. Spicher and S. Grimme, Angew. Chem. Int. Ed., 2020, 59, 15665-15673.
     DOI: 10.1002/anie.202004239
   
   for ALPB and GBSA implicit solvation:
   * S. Ehlert, M. Stahn, S. Spicher, S. Grimme, J. Chem. Theory Comput.,
     2021, 17, 4250-4261. DOI: 10.1021/acs.jctc.1c00471
   
   for DFT-D4:
   * E. Caldeweyher, C. Bannwarth and S. Grimme, J. Chem. Phys., 2017,
     147, 034112. DOI: 10.1063/1.4993215
   * E. Caldeweyher, S. Ehlert, A. Hansen, H. Neugebauer, S. Spicher,
     C. Bannwarth and S. Grimme, J. Chem. Phys., 2019, 150, 154122.
     DOI: 10.1063/1.5090222
   * E. Caldeweyher, J.-M. Mewes, S. Ehlert and S. Grimme, Phys. Chem. Chem. Phys.
     2020, 22, 8499-8512. DOI: 10.1039/D0CP00502A
   
   for sTDA-xTB:
   * S. Grimme and C. Bannwarth, J. Chem. Phys., 2016, 145, 054103.
     DOI: 10.1063/1.4959605
   
   in the mass-spec context:
   * V. Asgeirsson, C. Bauer and S. Grimme, Chem. Sci., 2017, 8, 4879.
     DOI: 10.1039/c7sc00601b
   * J. Koopman and S. Grimme, ACS Omega 2019, 4, 12, 15120-15133.
     DOI: 10.1021/acsomega.9b02011
   
   for metadynamics refer to:
   * S. Grimme, J. Chem. Theory Comput., 2019, 155, 2847-2862
     DOI: 10.1021/acs.jctc.9b00143
   
   for SPH calculations refer to:
   * S. Spicher and S. Grimme, J. Chem. Theory Comput., 2021, 17, 1701-1714
     DOI: 10.1021/acs.jctc.0c01306
   
   with help from (in alphabetical order)
   P. Atkinson, C. Bannwarth, F. Bohle, G. Brandenburg, E. Caldeweyher
   M. Checinski, S. Dohm, S. Ehlert, S. Ehrlich, I. Gerasimov, C. Hölzer
   A. Katbashev, J. Koopman, C. Lavigne, S. Lehtola, F. März, M. Müller,
   F. Musil, H. Neugebauer, J. Pisarek, C. Plett, P. Pracht, F. Pultar,
   J. Seibert, P. Shushkov, S. Spicher, M. Stahn, M. Steiner, T. Strunk,
   J. Stückrath, T. Rose, and J. Unsleber
   
 * started run on 2024/04/06 at 11:15:16.527     

           -------------------------------------------------
          |                Calculation Setup                |
           -------------------------------------------------

          program call               : xtb struc.xyz --opt loose --input .xc1 --gfn2
          hostname                   : n-62-30-23
          coordinate file            : struc.xyz
          omp threads                :                     1

   ID    Z sym.   atoms
    1    7 N      1, 17
    2    6 C      2-6, 8, 9, 11-16, 18-23, 25, 26, 28-33
    3    8 O      7, 10, 24, 27
    4    1 H      34-72
constraining bond 67 68 to    3.2800000 Å, actual value:    1.7619984 Å

           -------------------------------------------------
          |                 G F N 2 - x T B                 |
           -------------------------------------------------

        Reference                      10.1021/acs.jctc.8b01176
      * Hamiltonian:
        H0-scaling (s, p, d)           1.850000    2.230000    2.230000
        zeta-weighting                 0.500000
      * Dispersion:
        s8                             2.700000
        a1                             0.520000
        a2                             5.000000
        s9                             5.000000
      * Repulsion:
        kExp                           1.500000    1.000000
        rExp                           1.000000
      * Coulomb:
        alpha                          2.000000
        third order                    shell-resolved
        anisotropic                    true
        a3                             3.000000
        a5                             4.000000
        cn-shift                       1.200000
        cn-exp                         4.000000
        max-rad                        5.000000


          ...................................................
          :                      SETUP                      :
          :.................................................:
          :  # basis functions                 171          :
          :  # atomic orbitals                 171          :
          :  # shells                          105          :
          :  # electrons                       180          :
          :  max. iterations                   250          :
          :  Hamiltonian                  GFN2-xTB          :
          :  restarted?                      false          :
          :  GBSA solvation                  false          :
          :  PC potential                    false          :
          :  electronic temp.         5000.0000000     K    :
          :  accuracy                    1.0000000          :
          :  -> integral cutoff          0.2500000E+02      :
          :  -> integral neglect         0.1000000E-07      :
          :  -> SCF convergence          0.1000000E-05 Eh   :
          :  -> wf. convergence          0.1000000E-03 e    :
          :  Broyden damping             0.4000000          :
          ...................................................

 iter      E             dE          RMSdq      gap      omega  full diag
   1   -100.5973919 -0.100597E+03  0.374E+00    3.20       0.0  T
   2   -100.7362642 -0.138872E+00  0.221E+00    1.08       1.0  T
   3   -100.7049001  0.313641E-01  0.141E+00    3.29       1.0  T
   4   -100.7721690 -0.672689E-01  0.526E-01    1.50       1.0  T
   5   -100.7894292 -0.172602E-01  0.190E-01    1.98       1.0  T
   6   -100.7911978 -0.176856E-02  0.792E-02    1.77       1.0  T
   7   -100.7914750 -0.277198E-03  0.375E-02    1.83       1.0  T
   8   -100.7914914 -0.164582E-04  0.140E-02    1.83       1.0  T
   9   -100.7914976 -0.616739E-05  0.474E-03    1.82       2.5  T
  10   -100.7914988 -0.118227E-05  0.172E-03    1.82       6.8  T
  11   -100.7914989 -0.139928E-06  0.766E-04    1.82      15.4  T
  12   -100.7914989 -0.773143E-08  0.318E-04    1.82      37.0  T

   *** convergence criteria satisfied after 12 iterations ***

         #    Occupation            Energy/Eh            Energy/eV
      -------------------------------------------------------------
         1        2.0000           -0.8078051             -21.9815
       ...           ...                  ...                  ...
        84        1.9966           -0.5157491             -14.0342
        85        1.9959           -0.5128261             -13.9547
        86        1.9840           -0.4911498             -13.3649
        87        1.9795           -0.4872543             -13.2589
        88        1.9640           -0.4782114             -13.0128
        89        1.8920           -0.4602041             -12.5228
        90        1.8557           -0.4553147             -12.3897 (HOMO)
        91        0.3166           -0.3884132             -10.5693 (LUMO)
        92        0.0218           -0.3434697              -9.3463
        93        0.0041           -0.3169887              -8.6257
        94        0.0034           -0.3139726              -8.5436
        95        0.0029           -0.3112618              -8.4699
       ...           ...                  ...                  ...
       171                          0.5822580              15.8440
      -------------------------------------------------------------
                  HL-Gap            0.0669015 Eh            1.8205 eV
             Fermi-level           -0.4148687 Eh          -11.2892 eV

 SCC (total)                   0 d,  0 h,  0 min,  0.190 sec
 SCC setup                      ...        0 min,  0.001 sec (  0.683%)
 Dispersion                     ...        0 min,  0.002 sec (  0.923%)
 classical contributions        ...        0 min,  0.000 sec (  0.260%)
 integral evaluation            ...        0 min,  0.018 sec (  9.639%)
 iterations                     ...        0 min,  0.097 sec ( 51.177%)
 molecular gradient             ...        0 min,  0.070 sec ( 36.969%)
 printout                       ...        0 min,  0.001 sec (  0.341%)

         :::::::::::::::::::::::::::::::::::::::::::::::::::::
         ::                     SUMMARY                     ::
         :::::::::::::::::::::::::::::::::::::::::::::::::::::
         :: total energy             -98.992685596752 Eh    ::
         :: gradient norm              0.407853652488 Eh/a0 ::
         :: HOMO-LUMO gap              1.820481192090 eV    ::
         ::.................................................::
         :: SCC energy              -100.791498925389 Eh    ::
         :: -> isotropic ES            0.109302908418 Eh    ::
         :: -> anisotropic ES          0.005415138735 Eh    ::
         :: -> anisotropic XC          0.042392697176 Eh    ::
         :: -> dispersion             -0.075527661009 Eh    ::
         :: repulsion energy           1.386151658689 Eh    ::
         :: add. restraining           0.411445317442 Eh    ::
         :: total charge               1.000000000108 e     ::
         :::::::::::::::::::::::::::::::::::::::::::::::::::::

      ----------------------------------------------------------- 
     |                   =====================                   |
     |                        A N C O P T                        |
     |                   =====================                   |
     |               Approximate Normal Coordinate               |
     |                Rational Function Optimizer                |
      ----------------------------------------------------------- 

          ...................................................
          :                      SETUP                      :
          :.................................................:
          :   optimization level             loose          :
          :   max. optcycles                   200          :
          :   ANC micro-cycles                  20          :
          :   degrees of freedom               210          :
          :.................................................:
          :   RF solver                   davidson          :
          :   write xtbopt.log                true          :
          :   linear?                        false          :
          :   energy convergence         0.5000000E-04 Eh   :
          :   grad. convergence          0.4000000E-02 Eh/α :
          :   maxmium RF displ.          1.0000000          :
          :   Hlow (freq-cutoff)         0.1000000E-01      :
          :   Hmax (freq-cutoff)         5.0000000          :
          :   S6 in model hess.         20.0000000          :
          ...................................................

generating ANC from model Hessian ...
Using Lindh-Hessian (1995)
 Shifting diagonal of input Hessian by   0.13395945112904734     
 Lowest  eigenvalues of input Hessian
    0.010000    0.023969    0.000000    0.000000    0.000000    0.000000
    0.000000    0.000000    0.134014    0.134044    0.134133    0.134229
    0.134316    0.134663    0.134767    0.135162    0.135463    0.135753
 Highest eigenvalues
    2.159923    2.169918    2.175541    2.303403    2.308458    2.311015


........................................................................
.............................. CYCLE    1 ..............................
........................................................................

 iter      E             dE          RMSdq      gap      omega  full diag
   1   -100.7914989 -0.100791E+03  0.114E-04    1.82       0.0  T
   2   -100.7914989 -0.678995E-10  0.713E-05    1.82     165.2  T
   3   -100.7914989  0.665210E-10  0.496E-05    1.82     237.5  T
     SCC iter.                  ...        0 min,  0.026 sec
     gradient                   ...        0 min,  0.069 sec
 * total energy  :   -98.9926856 Eh     change       -0.4035485E-08 Eh
   gradient norm :     0.4078537 Eh/α   predicted     0.0000000E+00 (-100.00%)
   displ. norm   :     0.5385089 α      lambda       -0.2112364E+00
   maximum displ.:     0.2035555 α      in ANC's #149, #129, #138, ...

........................................................................
.............................. CYCLE    2 ..............................
........................................................................

 iter      E             dE          RMSdq      gap      omega  full diag
   1   -100.7401805 -0.100740E+03  0.378E-01    1.73       0.0  T
   2   -100.7403403 -0.159740E-03  0.222E-01    1.84       1.0  T
   3   -100.7377806  0.255966E-02  0.170E-01    1.59       1.0  T
   4   -100.7405188 -0.273817E-02  0.354E-02    1.82       1.0  T
   5   -100.7406207 -0.101905E-03  0.703E-03    1.78       1.7  T
   6   -100.7406205  0.135765E-06  0.407E-03    1.78       2.9  T
   7   -100.7406212 -0.673634E-06  0.126E-03    1.78       9.4  T
   8   -100.7406213 -0.102844E-06  0.365E-04    1.78      32.3  T
   9   -100.7406213 -0.283545E-08  0.140E-04    1.78      84.1  T
     SCC iter.                  ...        0 min,  0.073 sec
     gradient                   ...        0 min,  0.069 sec
 * total energy  :   -99.1543005 Eh     change       -0.1616149E+00 Eh
   gradient norm :     0.2200086 Eh/α   predicted    -0.1362467E+00 ( -15.70%)
   displ. norm   :     0.4998120 α      lambda       -0.1060003E+00
   maximum displ.:     0.1776767 α      in ANC's #149, #129, #138, ...

........................................................................
.............................. CYCLE    3 ..............................
........................................................................

 iter      E             dE          RMSdq      gap      omega  full diag
   1   -100.6789979 -0.100679E+03  0.306E-01    1.70       0.0  T
   2   -100.6790660 -0.680950E-04  0.179E-01    1.81       1.0  T
   3   -100.6772006  0.186543E-02  0.159E-01    1.58       1.0  T
   4   -100.6792861 -0.208551E-02  0.399E-02    1.79       1.0  T
   5   -100.6794168 -0.130726E-03  0.509E-03    1.74       2.3  T
   6   -100.6794170 -0.224256E-06  0.302E-03    1.75       3.9  T
   7   -100.6794174 -0.399974E-06  0.118E-03    1.74      10.0  T
   8   -100.6794175 -0.650292E-07  0.381E-04    1.74      30.9  T
   9   -100.6794175 -0.457685E-08  0.153E-04    1.75      76.8  T
     SCC iter.                  ...        0 min,  0.073 sec
     gradient                   ...        0 min,  0.069 sec
 * total energy  :   -99.2277716 Eh     change       -0.7347110E-01 Eh
   gradient norm :     0.0960564 Eh/α   predicted    -0.6624023E-01 (  -9.84%)
   displ. norm   :     0.3233479 α      lambda       -0.2891318E-01
   maximum displ.:     0.1136524 α      in ANC's #149, #129, #138, ...

........................................................................
.............................. CYCLE    4 ..............................
........................................................................

 iter      E             dE          RMSdq      gap      omega  full diag
   1   -100.6409902 -0.100641E+03  0.161E-01    1.70       0.0  T
   2   -100.6410318 -0.415870E-04  0.884E-02    1.76       1.0  T
   3   -100.6407818  0.250077E-03  0.831E-02    1.66       1.0  T
   4   -100.6411576 -0.375824E-03  0.313E-02    1.76       1.0  T
   5   -100.6412367 -0.791545E-04  0.431E-03    1.72       2.7  T
   6   -100.6412375 -0.753374E-06  0.210E-03    1.72       5.6  T
   7   -100.6412377 -0.194998E-06  0.849E-04    1.72      13.9  T
   8   -100.6412377 -0.282005E-07  0.343E-04    1.72      34.4  T
     SCC iter.                  ...        0 min,  0.065 sec
     gradient                   ...        0 min,  0.071 sec
 * total energy  :   -99.2462489 Eh     change       -0.1847728E-01 Eh
   gradient norm :     0.0400243 Eh/α   predicted    -0.1596817E-01 ( -13.58%)
   displ. norm   :     0.1536754 α      lambda       -0.4815502E-02
   maximum displ.:     0.0513582 α      in ANC's #149, #115, #148, ...

........................................................................
.............................. CYCLE    5 ..............................
........................................................................

 iter      E             dE          RMSdq      gap      omega  full diag
   1   -100.6272403 -0.100627E+03  0.856E-02    1.71       0.0  T
   2   -100.6272713 -0.310653E-04  0.436E-02    1.72       1.0  T
   3   -100.6272722 -0.842225E-06  0.392E-02    1.70       1.0  T
   4   -100.6273225 -0.503191E-04  0.176E-02    1.73       1.0  T
   5   -100.6273487 -0.261842E-04  0.332E-03    1.71       3.5  T
   6   -100.6273494 -0.726686E-06  0.132E-03    1.71       8.9  T
   7   -100.6273495 -0.520447E-07  0.536E-04    1.71      22.0  T
   8   -100.6273495 -0.152496E-07  0.201E-04    1.71      58.7  T
     SCC iter.                  ...        0 min,  0.066 sec
     gradient                   ...        0 min,  0.069 sec
 * total energy  :   -99.2491031 Eh     change       -0.2854188E-02 Eh
   gradient norm :     0.0194112 Eh/α   predicted    -0.2465103E-02 ( -13.63%)
   displ. norm   :     0.0584165 α      lambda       -0.7104977E-03
   maximum displ.:     0.0168211 α      in ANC's #69, #187, #41, ...

........................................................................
.............................. CYCLE    6 ..............................
........................................................................

 iter      E             dE          RMSdq      gap      omega  full diag
   1   -100.6262265 -0.100626E+03  0.414E-02    1.71       0.0  T
   2   -100.6262387 -0.121722E-04  0.225E-02    1.71       1.0  T
   3   -100.6262439 -0.523818E-05  0.164E-02    1.71       1.0  T
   4   -100.6262503 -0.640357E-05  0.519E-03    1.71       2.3  T
   5   -100.6262524 -0.201741E-05  0.201E-03    1.71       5.9  T
   6   -100.6262527 -0.342672E-06  0.671E-04    1.71      17.6  T
   7   -100.6262527 -0.139402E-07  0.267E-04    1.71      44.1  T
     SCC iter.                  ...        0 min,  0.057 sec
     gradient                   ...        0 min,  0.075 sec
 * total energy  :   -99.2496361 Eh     change       -0.5330287E-03 Eh
   gradient norm :     0.0117050 Eh/α   predicted    -0.3564647E-03 ( -33.12%)
   displ. norm   :     0.0817666 α      lambda       -0.6470159E-03
   maximum displ.:     0.0262100 α      in ANC's #41, #24, #19, ...

........................................................................
.............................. CYCLE    7 ..............................
........................................................................

 iter      E             dE          RMSdq      gap      omega  full diag
   1   -100.6274085 -0.100627E+03  0.514E-02    1.71       0.0  T
   2   -100.6274312 -0.226809E-04  0.288E-02    1.70       1.0  T
   3   -100.6274411 -0.993154E-05  0.198E-02    1.71       1.0  T
   4   -100.6274498 -0.868818E-05  0.437E-03    1.70       2.7  T
   5   -100.6274514 -0.161940E-05  0.130E-03    1.71       9.1  T
   6   -100.6274515 -0.289755E-07  0.985E-04    1.71      12.0  T
   7   -100.6274515 -0.686066E-07  0.371E-04    1.71      31.8  T
     SCC iter.                  ...        0 min,  0.057 sec
     gradient                   ...        0 min,  0.069 sec
 * total energy  :   -99.2500478 Eh     change       -0.4116287E-03 Eh
   gradient norm :     0.0057030 Eh/α   predicted    -0.3257030E-03 ( -20.87%)
   displ. norm   :     0.0558047 α      lambda       -0.2060510E-03
   maximum displ.:     0.0209290 α      in ANC's #41, #24, #19, ...

........................................................................
.............................. CYCLE    8 ..............................
........................................................................

 iter      E             dE          RMSdq      gap      omega  full diag
   1   -100.6287056 -0.100629E+03  0.234E-02    1.70       0.0  T
   2   -100.6287122 -0.654395E-05  0.127E-02    1.70       1.0  T
   3   -100.6287136 -0.146218E-05  0.945E-03    1.71       1.2  T
   4   -100.6287130  0.644057E-06  0.549E-03    1.70       2.1  T
   5   -100.6287163 -0.332663E-05  0.115E-03    1.70      10.3  T
   6   -100.6287164 -0.908580E-07  0.322E-04    1.70      36.6  T
   7   -100.6287164 -0.106650E-08  0.132E-04    1.70      89.5  T
     SCC iter.                  ...        0 min,  0.057 sec
     gradient                   ...        0 min,  0.069 sec
 * total energy  :   -99.2502094 Eh     change       -0.1616309E-03 Eh
   gradient norm :     0.0065744 Eh/α   predicted    -0.1049462E-03 ( -35.07%)
   displ. norm   :     0.1034905 α      lambda       -0.3110756E-03
   maximum displ.:     0.0413276 α      in ANC's #41, #19, #24, ...

........................................................................
.............................. CYCLE    9 ..............................
........................................................................

 iter      E             dE          RMSdq      gap      omega  full diag
   1   -100.6301046 -0.100630E+03  0.347E-02    1.70       0.0  T
   2   -100.6301195 -0.149209E-04  0.178E-02    1.69       1.0  T
   3   -100.6301184  0.110351E-05  0.161E-02    1.71       1.0  T
   4   -100.6301228 -0.433127E-05  0.826E-03    1.68       1.4  T
   5   -100.6301301 -0.731508E-05  0.142E-03    1.70       8.3  T
   6   -100.6301302 -0.120475E-06  0.498E-04    1.69      23.7  T
   7   -100.6301302 -0.399844E-08  0.179E-04    1.69      65.9  T
     SCC iter.                  ...        0 min,  0.058 sec
     gradient                   ...        0 min,  0.069 sec
 * total energy  :   -99.2504354 Eh     change       -0.2259851E-03 Eh
   gradient norm :     0.0079292 Eh/α   predicted    -0.1572050E-03 ( -30.44%)
   displ. norm   :     0.1270177 α      lambda       -0.2950426E-03
   maximum displ.:     0.0510444 α      in ANC's #41, #19, #24, ...

........................................................................
.............................. CYCLE   10 ..............................
........................................................................

 iter      E             dE          RMSdq      gap      omega  full diag
   1   -100.6303259 -0.100630E+03  0.380E-02    1.69       0.0  T
   2   -100.6303406 -0.146855E-04  0.196E-02    1.68       1.0  T
   3   -100.6303333  0.734800E-05  0.195E-02    1.70       1.0  T
   4   -100.6303474 -0.140842E-04  0.800E-03    1.68       1.5  T
   5   -100.6303539 -0.651860E-05  0.158E-03    1.69       7.4  T
   6   -100.6303541 -0.179499E-06  0.576E-04    1.69      20.5  T
   7   -100.6303541 -0.774175E-08  0.233E-04    1.69      50.6  T
     SCC iter.                  ...        0 min,  0.058 sec
     gradient                   ...        0 min,  0.069 sec
 * total energy  :   -99.2506536 Eh     change       -0.2181850E-03 Eh
   gradient norm :     0.0076831 Eh/α   predicted    -0.1499023E-03 ( -31.30%)
   displ. norm   :     0.1450572 α      lambda       -0.2967141E-03
   maximum displ.:     0.0589739 α      in ANC's #41, #19, #24, ...

........................................................................
.............................. CYCLE   11 ..............................
........................................................................

 iter      E             dE          RMSdq      gap      omega  full diag
   1   -100.6293217 -0.100629E+03  0.395E-02    1.68       0.0  T
   2   -100.6293328 -0.111566E-04  0.209E-02    1.67       1.0  T
   3   -100.6293171  0.157890E-04  0.218E-02    1.69       1.0  T
   4   -100.6293405 -0.234822E-04  0.764E-03    1.67       1.5  T
   5   -100.6293464 -0.583005E-05  0.178E-03    1.68       6.6  T
   6   -100.6293466 -0.248657E-06  0.606E-04    1.68      19.4  T
   7   -100.6293466 -0.748413E-08  0.210E-04    1.68      56.1  T
     SCC iter.                  ...        0 min,  0.058 sec
     gradient                   ...        0 min,  0.069 sec
 * total energy  :   -99.2508652 Eh     change       -0.2116436E-03 Eh
   gradient norm :     0.0063981 Eh/α   predicted    -0.1514862E-03 ( -28.42%)
   displ. norm   :     0.1226674 α      lambda       -0.2246825E-03
   maximum displ.:     0.0477985 α      in ANC's #41, #19, #24, ...

........................................................................
.............................. CYCLE   12 ..............................
........................................................................

 iter      E             dE          RMSdq      gap      omega  full diag
   1   -100.6280516 -0.100628E+03  0.309E-02    1.67       0.0  T
   2   -100.6280548 -0.320646E-05  0.172E-02    1.67       1.0  T
   3   -100.6280395  0.153521E-04  0.181E-02    1.68       1.0  T
   4   -100.6280591 -0.195866E-04  0.557E-03    1.66       2.1  T
   5   -100.6280621 -0.305603E-05  0.142E-03    1.67       8.3  T
   6   -100.6280623 -0.151301E-06  0.485E-04    1.67      24.3  T
   7   -100.6280623 -0.423053E-08  0.122E-04    1.67      96.4  T
     SCC iter.                  ...        0 min,  0.058 sec
     gradient                   ...        0 min,  0.069 sec
 * total energy  :   -99.2510268 Eh     change       -0.1615473E-03 Eh
   gradient norm :     0.0054503 Eh/α   predicted    -0.1140337E-03 ( -29.41%)
   displ. norm   :     0.1067583 α      lambda       -0.1862077E-03
   maximum displ.:     0.0385923 α      in ANC's #41, #19, #24, ...

........................................................................
.............................. CYCLE   13 ..............................
........................................................................

 iter      E             dE          RMSdq      gap      omega  full diag
   1   -100.6273896 -0.100627E+03  0.247E-02    1.67       0.0  T
   2   -100.6273905 -0.816970E-06  0.140E-02    1.66       1.0  T
   3   -100.6273786  0.118844E-04  0.145E-02    1.68       1.0  T
   4   -100.6273926 -0.140202E-04  0.436E-03    1.66       2.7  T
   5   -100.6273943 -0.172985E-05  0.108E-03    1.67      10.9  T
   6   -100.6273944 -0.708974E-07  0.444E-04    1.67      26.6  T
   7   -100.6273944 -0.502294E-08  0.104E-04    1.67     112.9  T
     SCC iter.                  ...        0 min,  0.058 sec
     gradient                   ...        0 min,  0.069 sec
 * total energy  :   -99.2511609 Eh     change       -0.1341802E-03 Eh
   gradient norm :     0.0049325 Eh/α   predicted    -0.9417139E-04 ( -29.82%)
   displ. norm   :     0.1017611 α      lambda       -0.1556286E-03
   maximum displ.:     0.0351898 α      in ANC's #34, #19, #24, ...

........................................................................
.............................. CYCLE   14 ..............................
........................................................................

 iter      E             dE          RMSdq      gap      omega  full diag
   1   -100.6275675 -0.100628E+03  0.224E-02    1.67       0.0  T
   2   -100.6275684 -0.898954E-06  0.128E-02    1.66       1.0  T
   3   -100.6275603  0.808923E-05  0.106E-02    1.68       1.1  T
   4   -100.6275684 -0.808253E-05  0.374E-03    1.66       3.1  T
   5   -100.6275697 -0.126469E-05  0.820E-04    1.67      14.4  T
   6   -100.6275697 -0.233967E-07  0.430E-04    1.67      27.4  T
   7   -100.6275697 -0.780381E-08  0.110E-04    1.67     107.4  T
     SCC iter.                  ...        0 min,  0.058 sec
     gradient                   ...        0 min,  0.069 sec
 * total energy  :   -99.2512714 Eh     change       -0.1104644E-03 Eh
   gradient norm :     0.0041726 Eh/α   predicted    -0.7863915E-04 ( -28.81%)
   displ. norm   :     0.0865762 α      lambda       -0.1117543E-03
   maximum displ.:     0.0335475 α      in ANC's #34, #19, #11, ...

........................................................................
.............................. CYCLE   15 ..............................
........................................................................

 iter      E             dE          RMSdq      gap      omega  full diag
   1   -100.6284722 -0.100628E+03  0.194E-02    1.67       0.0  T
   2   -100.6284729 -0.706705E-06  0.112E-02    1.67       1.1  T
   3   -100.6284724  0.540778E-06  0.363E-03    1.67       3.2  T
   4   -100.6284731 -0.697730E-06  0.106E-03    1.67      11.1  T
   5   -100.6284731 -0.336122E-07  0.731E-04    1.67      16.1  T
   6   -100.6284731 -0.345572E-07  0.351E-04    1.67      33.6  T
     SCC iter.                  ...        0 min,  0.049 sec
     gradient                   ...        0 min,  0.069 sec
 * total energy  :   -99.2513489 Eh     change       -0.7749707E-04 Eh
   gradient norm :     0.0031010 Eh/α   predicted    -0.5630726E-04 ( -27.34%)
   displ. norm   :     0.0683216 α      lambda       -0.6834992E-04
   maximum displ.:     0.0268611 α      in ANC's #34, #1, #11, ...

........................................................................
.............................. CYCLE   16 ..............................
........................................................................

 iter      E             dE          RMSdq      gap      omega  full diag
   1   -100.6293520 -0.100629E+03  0.155E-02    1.66       0.0  T
   2   -100.6293520  0.336455E-07  0.931E-03    1.67       1.3  T
   3   -100.6293458  0.616478E-05  0.815E-03    1.66       1.4  T
   4   -100.6293523 -0.651301E-05  0.110E-03    1.67      10.8  T
   5   -100.6293524 -0.107375E-06  0.383E-04    1.67      30.8  T
   6   -100.6293525 -0.493559E-08  0.179E-04    1.67      65.8  T
     SCC iter.                  ...        0 min,  0.050 sec
     gradient                   ...        0 min,  0.069 sec
 * total energy  :   -99.2513972 Eh     change       -0.4831289E-04 Eh
   gradient norm :     0.0026100 Eh/α   predicted    -0.3434567E-04 ( -28.91%)
   displ. norm   :     0.0582713 α      lambda       -0.5099257E-04
   maximum displ.:     0.0231276 α      in ANC's #34, #11, #19, ...

   *** GEOMETRY OPTIMIZATION CONVERGED AFTER 16 ITERATIONS ***

------------------------------------------------------------------------
 total energy gain   :        -0.2587116 Eh     -162.3440 kcal/mol
 total RMSD          :         0.2140719 a0        0.1133 Å
 total power (kW/mol):       -42.4529531 (step) -275.1567 (real)
------------------------------------------------------------------------

 ANCopt (total)                0 d,  0 h,  0 min,  2.469 sec
 optimizer setup                ...        0 min,  0.000 sec (  0.011%)
 model hessian                  ...        0 min,  0.054 sec (  2.206%)
 ANC generation                 ...        0 min,  0.006 sec (  0.263%)
 coordinate transformation      ...        0 min,  0.001 sec (  0.045%)
 single point calculation       ...        0 min,  2.388 sec ( 96.720%)
 optimization log               ...        0 min,  0.004 sec (  0.164%)
 hessian update                 ...        0 min,  0.001 sec (  0.041%)
 rational function              ...        0 min,  0.007 sec (  0.299%)

================
 final structure:
================
72
 xtb: 6.6.1 (8d0f1dd)
N           -1.90953817362321        2.75935914580080        2.24850216505100
C           -1.84991401225910        2.10433926716615        1.18642539096918
C           -3.00509062211673        1.90040956561045        0.24388935080750
C           -3.48112456274936        0.45515794251640        0.31254677348655
C           -4.43483848593424       -0.01145575877014       -0.59808875562325
C           -4.90115397494988       -1.31497163184673       -0.55341919026762
O           -5.83077002576271       -1.83995512410231       -1.37712853301728
C           -6.48084748896010       -1.00759082542044       -2.30902691772360
C           -4.38741457714224       -2.21127298929131        0.42375456625122
O           -4.90442831903061       -3.45542393355212        0.40441208202378
C           -4.51759653128238       -4.37027390970972        1.40382221086432
C           -3.42035527295506       -1.75240465544421        1.30362192010200
C           -2.97193813332118       -0.43893709850817        1.24672601392785
C           -2.45871372971682        2.18271857180067       -1.18208151599281
C           -1.50052240337437        1.10747384345298       -1.73344126498355
C           -0.16575728701477        1.10634661712692       -1.09155004911654
N            0.48893136109747        0.02973717886939       -0.66930954103844
C            1.86635124408456        0.12767760583958       -0.24677767903405
C            2.83511158464613       -0.32873471149201       -1.35464737712920
C            4.25644458917067       -0.12829726321585       -0.90928950681201
C            4.89856647181385        1.07975681343405       -1.12631015162309
C            6.20042721043145        1.27944026283575       -0.69415580638276
C            6.88671237647174        0.27297991644875       -0.03008663420355
O            8.14938216268959        0.35562419792635        0.42904724531570
C            8.88007026197717        1.54214382675174        0.21883577086786
C            6.23473430641214       -0.96989236413050        0.20046280209419
O            6.97297080079640       -1.89417529912661        0.84729929513925
C            6.42419691075869       -3.16753049504874        1.08958701243377
C            4.93208969533506       -1.14533246169074       -0.23914047064686
C           -0.10406741975548       -1.28564788847726       -0.68616786772439
C           -4.20248477827284        2.85889620166461        0.55845864011971
C           -4.83099269200051        2.58099951631398        1.91219247348664
C           -3.80014703846324        4.33166449522062        0.46163595288889
H           -4.83774080551741        0.66255376246594       -1.33551400003361
H           -6.98535107806657       -0.17140235225560       -1.81588335446285
H           -7.22219370626399       -1.63868226308767       -2.79546864513527
H           -5.78457646384424       -0.62518513423766       -3.06249914737105
H           -4.75389698003120       -3.99406887409521        2.40369410559629
H           -5.09340055723229       -5.27364321468696        1.21328898069468
H           -3.44968614353852       -4.60336758474142        1.34366004210154
H           -3.01516378772082       -2.40702212560773        2.05792146613129
H           -2.24506700808193       -0.10836820502918        1.97300198536687
H           -3.30184553407960        2.25802773537866       -1.86809130168746
H           -1.94310105662260        3.14332702527799       -1.18346874141212
H           -1.97435357570406        0.12905782337926       -1.67970203546613
H           -1.34939849245699        1.34660435005824       -2.79445795177705
H           -0.92076902290379        1.64046565857602        0.80245439072755
H            0.38686078667584        2.03471341240699       -1.09240061361829
H            2.01270248674088       -0.49105039122900        0.64268561881981
H            2.09305263677176        1.16264988073193        0.01752544025801
H            2.64040990260969        0.26067519395671       -2.25227277514032
H            2.65667443352397       -1.37959125371792       -1.58534782334081
H            4.39060406688777        1.87573701239277       -1.64939812402729
H            6.67617776388015        2.22715319167842       -0.88535766211329
H            8.40967580152938        2.39601197301336        0.71596612141524
H            8.99528730003662        1.75762733488973       -0.84764822769204
H            9.85932665648080        1.36371806077737        0.65868530826264
H            7.20665704578068       -3.73211060032312        1.59279651643622
H            5.54601388193927       -3.10902027345251        1.74079246118164
H            6.15635835363659       -3.67335990638823        0.15672181392913
H            4.43197894530217       -2.08727124489399       -0.07653894046303
H           -0.25315302309230       -1.64004794108004       -1.70825575206060
H           -1.06915240502902       -1.27572083045990       -0.17320925613171
H            0.55419971011114       -1.98051273004588       -0.17111033839879
H           -4.95708403587543        2.66933496922828       -0.21440972785651
H           -4.12684918265767        2.75634702301859        2.71659788624426
H           -4.82607471520280        1.07020605593343        1.94146554259006
H           -5.67181985890305        3.77895927229167        2.06920883824231
H           -3.02612420391813        4.56272329777700        1.18743329752759
H           -3.44917428832787        4.58682450835755       -0.53363769664913
H           -4.66136251947568        4.96050878993872        0.67535891239078
H           -1.06041917736075        2.85850955735102        2.79607982501110

 Bond Distances (Angstroems)
 ---------------------------
N1-C2=1.2492         N1-H72=1.0152        C2-N1=1.2492         C2-C3=1.5048         C2-H47=1.1072        C3-C2=1.5048         
C3-C4=1.5232         C3-C14=1.5529        C3-C31=1.5657        C4-C3=1.5232         C4-C5=1.3988         C4-C13=1.3897        
C5-C4=1.3988         C5-C6=1.3851         C5-H34=1.0772        C6-C5=1.3851         C6-O7=1.3484         C6-C9=1.4220         
O7-C6=1.3484         O7-C8=1.4085         C8-O7=1.4085         C8-H35=1.0940        C8-H36=1.0883        C8-H37=1.0949        
C9-C6=1.4220         C9-O10=1.3474        C9-C12=1.3856        O10-C9=1.3474        O10-C11=1.4090       C11-O10=1.4090       
C11-H38=1.0941       C11-H39=1.0881       C11-H40=1.0947       C12-C9=1.3856        C12-C13=1.3891       C12-H41=1.0778       
C13-C4=1.3897        C13-C12=1.3891       C13-H42=1.0794       C14-C3=1.5529        C14-C15=1.5422       C14-H43=1.0896       
C14-H44=1.0902       C15-C14=1.5422       C15-C16=1.4811       C15-H45=1.0884       C15-H46=1.0981       C16-C15=1.4811       
C16-N17=1.3289       C16-H48=1.0804       N17-C16=1.3289       N17-C18=1.4441       N17-C30=1.4430       C18-N17=1.4441       
C18-C19=1.5408       C18-H49=1.0933       C18-H50=1.0920       C19-C18=1.5408       C19-C20=1.5029       C19-H51=1.0913       
C19-H52=1.0906       C20-C19=1.5029       C20-C21=1.3852       C20-C29=1.3928       C21-C20=1.3852       C21-C22=1.3862       
C21-H53=1.0795       C22-C21=1.3862       C22-C23=1.3874       C22-H54=1.0775       C23-C22=1.3874       C23-O24=1.3461       
C23-C26=1.4223       O24-C23=1.3461       O24-C25=1.4092       C25-O24=1.4092       C25-H55=1.0943       C25-H56=1.0941       
C25-H57=1.0882       C26-C23=1.4223       C26-O27=1.3482       C26-C29=1.3860       O27-C26=1.3482       O27-C28=1.4076       
C28-O27=1.4076       C28-H58=1.0882       C28-H59=1.0949       C28-H60=1.0945       C29-C20=1.3928       C29-C26=1.3860       
C29-H61=1.0788       C30-N17=1.4430       C30-H62=1.0920       C30-H63=1.0930       C30-H64=1.0869       C31-C3=1.5657        
C31-C32=1.5182       C31-C33=1.5298       C31-H65=1.0967       C32-C31=1.5182       C32-H66=1.0833       C33-C31=1.5298       
C33-H69=1.0859       C33-H70=1.0858       C33-H71=1.0876       H34-C5=1.0772        H35-C8=1.0940        H36-C8=1.0883        
H37-C8=1.0949        H38-C11=1.0941       H39-C11=1.0881       H40-C11=1.0947       H41-C12=1.0778       H42-C13=1.0794       
H43-C14=1.0896       H44-C14=1.0902       H45-C15=1.0884       H46-C15=1.0981       H47-C2=1.1072        H48-C16=1.0804       
H49-C18=1.0933       H50-C18=1.0920       H51-C19=1.0913       H52-C19=1.0906       H53-C21=1.0795       H54-C22=1.0775       
H55-C25=1.0943       H56-C25=1.0941       H57-C25=1.0882       H58-C28=1.0882       H59-C28=1.0949       H60-C28=1.0945       
H61-C29=1.0788       H62-C30=1.0920       H63-C30=1.0930       H64-C30=1.0869       H65-C31=1.0967       H66-C32=1.0833       
H69-C33=1.0859       H70-C33=1.0858       H71-C33=1.0876       H72-N1=1.0152        
 C  H  Rav=1.0892 sigma=0.0066  Rmin=1.0772  Rmax=1.1072    36
 C  C  Rav=1.4542 sigma=0.0684  Rmin=1.3851  Rmax=1.5657    22
 N  H  Rav=1.0152 sigma=0.0000  Rmin=1.0152  Rmax=1.0152     1
 N  C  Rav=1.3663 sigma=0.0822  Rmin=1.2492  Rmax=1.4441     4
 O  C  Rav=1.3781 sigma=0.0305  Rmin=1.3461  Rmax=1.4092     8

 selected bond angles (degree)
 --------------------
H72-N1-C2=118.02               C3-C2-N1=124.54                H47-C2-N1=123.68               H47-C2-C3=111.73               
C4-C3-C2=109.89                C14-C3-C2=106.29               C14-C3-C4=108.90               C31-C3-C2=112.23               
C31-C3-C4=109.44               C31-C3-C14=110.02              C5-C4-C3=120.02                C13-C4-C3=121.75               
C13-C4-C5=118.22               C6-C5-C4=121.50                H34-C5-C4=119.47               H34-C5-C6=119.01               
O7-C6-C5=125.36                C9-C6-C5=119.58                C9-C6-O7=115.05                C8-O7-C6=119.49                
H35-C8-O7=111.49               H36-C8-O7=105.51               H36-C8-H35=109.30              H37-C8-O7=111.61               
H37-C8-H35=109.66              H37-C8-H36=109.15              O10-C9-C6=115.69               C12-C9-C6=118.67               
C12-C9-O10=125.64              C11-O10-C9=118.95              

 selected dihedral angles (degree)
 ---------------------------------
C3-C2-N1-H72=181.92           H47-C2-N1-H72=359.01          C4-C3-C2-N1=251.06            C4-C3-C2-H47= 73.67           
C14-C3-C2-N1=133.39           C14-C3-C2-H47=315.99          C31-C3-C2-N1= 13.08           C31-C3-C2-H47=195.69          
C5-C4-C3-C2=188.06            C5-C4-C3-C14=304.10           C5-C4-C3-C31= 64.39           C13-C4-C3-C2=  6.68           
C13-C4-C3-C14=122.72          C13-C4-C3-C31=243.01          C6-C5-C4-C3=180.79            C6-C5-C4-C13=  2.12           
H34-C5-C4-C3=359.11           H34-C5-C4-C13=180.44          O7-C6-C5-C4=178.97            O7-C6-C5-H34=  0.63           
C9-C6-C5-C4=358.96            C9-C6-C5-H34=180.63           C8-O7-C6-C5=354.89            C8-O7-C6-C9=174.89            
H35-C8-O7-C6=302.51           H36-C8-O7-C6=183.96           H37-C8-O7-C6= 65.53           O10-C9-C6-C5=179.41           
O10-C9-C6-O7=359.40           C12-C9-C6-C5=359.55           C12-C9-C6-O7=179.54           C11-O10-C9-C6=184.63          
C11-O10-C9-C12=  4.48         
           -------------------------------------------------
          |                Final Singlepoint                |
           -------------------------------------------------

          ...................................................
          :                      SETUP                      :
          :.................................................:
          :  # basis functions                 171          :
          :  # atomic orbitals                 171          :
          :  # shells                          105          :
          :  # electrons                       180          :
          :  max. iterations                   250          :
          :  Hamiltonian                  GFN2-xTB          :
          :  restarted?                      false          :
          :  GBSA solvation                  false          :
          :  PC potential                    false          :
          :  electronic temp.         5000.0000000     K    :
          :  accuracy                    1.0000000          :
          :  -> integral cutoff          0.2500000E+02      :
          :  -> integral neglect         0.1000000E-07      :
          :  -> SCF convergence          0.1000000E-05 Eh   :
          :  -> wf. convergence          0.1000000E-03 e    :
          :  Broyden damping             0.4000000          :
          ...................................................

 iter      E             dE          RMSdq      gap      omega  full diag
   1   -100.6293525 -0.100629E+03  0.557E-05    1.67       0.0  T
   2   -100.6293525 -0.285212E-10  0.323E-05    1.67     364.9  T
   3   -100.6293525 -0.521396E-10  0.223E-05    1.67     527.6  T

   *** convergence criteria satisfied after 3 iterations ***

         #    Occupation            Energy/Eh            Energy/eV
      -------------------------------------------------------------
         1        2.0000           -0.8092386             -22.0205
       ...           ...                  ...                  ...
        84        1.9928           -0.5045160             -13.7286
        85        1.9856           -0.4934794             -13.4283
        86        1.9795           -0.4878104             -13.2740
        87        1.9787           -0.4872478             -13.2587
        88        1.9317           -0.4683716             -12.7450
        89        1.8652           -0.4570581             -12.4372
        90        1.8480           -0.4550192             -12.3817 (HOMO)
        91        0.4062           -0.3938175             -10.7163 (LUMO)
        92        0.0189           -0.3417562              -9.2997
        93        0.0051           -0.3209194              -8.7327
        94        0.0037           -0.3160235              -8.5994
        95        0.0028           -0.3115164              -8.4768
       ...           ...                  ...                  ...
       171                          0.5771966              15.7063
      -------------------------------------------------------------
                  HL-Gap            0.0612017 Eh            1.6654 eV
             Fermi-level           -0.4154611 Eh          -11.3053 eV

 SCC (total)                   0 d,  0 h,  0 min,  0.117 sec
 SCC setup                      ...        0 min,  0.001 sec (  0.744%)
 Dispersion                     ...        0 min,  0.002 sec (  1.334%)
 classical contributions        ...        0 min,  0.000 sec (  0.371%)
 integral evaluation            ...        0 min,  0.018 sec ( 15.381%)
 iterations                     ...        0 min,  0.027 sec ( 22.653%)
 molecular gradient             ...        0 min,  0.069 sec ( 58.970%)
 printout                       ...        0 min,  0.001 sec (  0.535%)

         :::::::::::::::::::::::::::::::::::::::::::::::::::::
         ::                     SUMMARY                     ::
         :::::::::::::::::::::::::::::::::::::::::::::::::::::
         :: total energy             -99.251397212414 Eh    ::
         :: gradient norm              0.002609251429 Eh/a0 ::
         :: HOMO-LUMO gap              1.665383583780 eV    ::
         ::.................................................::
         :: SCC energy              -100.629352453827 Eh    ::
         :: -> isotropic ES            0.107706190878 Eh    ::
         :: -> anisotropic ES          0.006462149586 Eh    ::
         :: -> anisotropic XC          0.047346177369 Eh    ::
         :: -> dispersion             -0.076921291663 Eh    ::
         :: repulsion energy           1.342183568706 Eh    ::
         :: add. restraining           0.034475337593 Eh    ::
         :: total charge               1.000000000000 e     ::
         :::::::::::::::::::::::::::::::::::::::::::::::::::::

           -------------------------------------------------
          |                Property Printout                |
           -------------------------------------------------

    * Orbital Energies and Occupations

         #    Occupation            Energy/Eh            Energy/eV
      -------------------------------------------------------------
         1        2.0000           -0.8092386             -22.0205
       ...           ...                  ...                  ...
        78        1.9985           -0.5291260             -14.3983
        79        1.9984           -0.5280113             -14.3679
        80        1.9982           -0.5262253             -14.3193
        81        1.9975           -0.5215661             -14.1925
        82        1.9972           -0.5192312             -14.1290
        83        1.9963           -0.5150722             -14.0158
        84        1.9928           -0.5045160             -13.7286
        85        1.9856           -0.4934794             -13.4283
        86        1.9795           -0.4878104             -13.2740
        87        1.9787           -0.4872478             -13.2587
        88        1.9317           -0.4683716             -12.7450
        89        1.8652           -0.4570581             -12.4372
        90        1.8480           -0.4550192             -12.3817 (HOMO)
        91        0.4062           -0.3938175             -10.7163 (LUMO)
        92        0.0189           -0.3417562              -9.2997
        93        0.0051           -0.3209194              -8.7327
        94        0.0037           -0.3160235              -8.5994
        95        0.0028           -0.3115164              -8.4768
        96        0.0024           -0.3091656              -8.4128
        97        0.0008           -0.2915485              -7.9334
        98        0.0000           -0.1937452              -5.2721
        99        0.0000           -0.1866202              -5.0782
       100        0.0000           -0.1675962              -4.5605
       101                         -0.1358030              -3.6954
       ...                                ...                  ...
       171                          0.5771966              15.7063
      -------------------------------------------------------------
                  HL-Gap            0.0612017 Eh            1.6654 eV
             Fermi-level           -0.4154611 Eh          -11.3053 eV

     #   Z          covCN         q      C6AA      α(0)
     1   7 N        1.774    -0.273    27.900     7.822
     2   6 C        2.825     0.098    25.814     8.325
     3   6 C        3.905     0.006    20.418     6.423
     4   6 C        2.972     0.007    27.858     8.658
     5   6 C        2.919    -0.079    29.982     8.979
     6   6 C        2.861     0.131    25.132     8.217
     7   8 O        1.706    -0.230    17.808     5.698
     8   6 C        3.644     0.027    20.454     6.501
     9   6 C        2.864     0.130    25.159     8.222
    10   8 O        1.706    -0.228    17.783     5.694
    11   6 C        3.646     0.027    20.453     6.499
    12   6 C        2.913    -0.075    29.868     8.962
    13   6 C        2.920    -0.050    29.243     8.868
    14   6 C        3.811    -0.066    21.749     6.638
    15   6 C        3.801    -0.068    21.811     6.649
    16   6 C        2.842     0.005    27.896     8.656
    17   7 N        2.729     0.009    21.103     6.823
    18   6 C        3.756    -0.016    20.914     6.521
    19   6 C        3.808    -0.070    21.840     6.653
    20   6 C        2.969    -0.001    28.039     8.686
    21   6 C        2.922    -0.049    29.217     8.864
    22   6 C        2.914    -0.068    29.684     8.934
    23   6 C        2.865     0.133    25.083     8.210
    24   8 O        1.706    -0.222    17.691     5.679
    25   6 C        3.645     0.025    20.485     6.505
    26   6 C        2.863     0.133    25.092     8.211
    27   8 O        1.706    -0.225    17.736     5.686
    28   6 C        3.645     0.027    20.449     6.499
    29   6 C        2.919    -0.080    29.990     8.980
    30   6 C        3.699    -0.071    22.022     6.711
    31   6 C        3.851    -0.013    20.765     6.481
    32   6 C        2.495    -0.063    29.749     8.908
    33   6 C        3.755    -0.117    22.803     6.809
    34   1 H        0.926     0.052     2.297     2.370
    35   1 H        0.924     0.054     2.270     2.356
    36   1 H        0.925     0.082     1.962     2.191
    37   1 H        0.924     0.048     2.351     2.398
    38   1 H        0.924     0.055     2.258     2.350
    39   1 H        0.925     0.081     1.964     2.192
    40   1 H        0.924     0.048     2.346     2.395
    41   1 H        0.926     0.052     2.300     2.372
    42   1 H        0.926     0.037     2.493     2.469
    43   1 H        0.925     0.060     2.195     2.317
    44   1 H        0.924     0.054     2.270     2.356
    45   1 H        0.925     0.065     2.145     2.290
    46   1 H        0.923     0.079     1.987     2.204
    47   1 H        0.922     0.010     2.899     2.663
    48   1 H        0.926     0.068     2.104     2.268
    49   1 H        0.924     0.067     2.120     2.277
    50   1 H        0.924     0.067     2.123     2.278
    51   1 H        0.924     0.055     2.260     2.351
    52   1 H        0.924     0.055     2.254     2.348
    53   1 H        0.926     0.045     2.388     2.417
    54   1 H        0.926     0.058     2.220     2.330
    55   1 H        0.924     0.054     2.271     2.357
    56   1 H        0.924     0.056     2.251     2.346
    57   1 H        0.925     0.082     1.957     2.188
    58   1 H        0.925     0.082     1.962     2.191
    59   1 H        0.924     0.048     2.342     2.393
    60   1 H        0.924     0.052     2.293     2.368
    61   1 H        0.926     0.047     2.360     2.402
    62   1 H        0.924     0.075     2.027     2.227
    63   1 H        0.924     0.079     1.985     2.203
    64   1 H        0.925     0.079     1.988     2.205
    65   1 H        0.924     0.044     2.391     2.418
    66   1 H        0.925     0.073     2.049     2.239
    67   1 H        0.247    -0.001     7.405     4.955
    68   1 H        0.342     0.032     5.659     4.289
    69   1 H        0.925     0.057     2.235     2.338
    70   1 H        0.925     0.040     2.451     2.448
    71   1 H        0.925     0.055     2.254     2.348
    72   1 H        0.860     0.159     1.344     1.816

 Mol. C6AA /au·bohr⁶  :      48588.998974
 Mol. C8AA /au·bohr⁸  :    1103412.880308
 Mol. α(0) /au        :        340.890651


Wiberg/Mayer (AO) data.
largest (>0.10) Wiberg bond orders for each atom

 ---------------------------------------------------------------------------
     #   Z sym  total        # sym  WBO       # sym  WBO       # sym  WBO
 ---------------------------------------------------------------------------
     1   7 N    3.040 --     2 C    1.953    72 H    0.941
     2   6 C    3.924 --     1 N    1.953     3 C    0.996    47 H    0.898
     3   6 C    3.977 --     2 C    0.996     4 C    0.968    14 C    0.958
                            31 C    0.934
     4   6 C    3.951 --    13 C    1.395     5 C    1.358     3 C    0.968
     5   6 C    3.963 --     6 C    1.405     4 C    1.358    34 H    0.958
     6   6 C    3.910 --     5 C    1.405     9 C    1.221     7 O    1.101
     7   8 O    2.259 --     6 C    1.101     8 C    0.977
     8   6 C    3.932 --     7 O    0.977    36 H    0.977    35 H    0.974
                            37 H    0.974
     9   6 C    3.904 --    12 C    1.392     6 C    1.221    10 O    1.103
    10   8 O    2.256 --     9 C    1.103    11 C    0.977
    11   6 C    3.931 --    10 O    0.977    39 H    0.977    40 H    0.974
                            38 H    0.974
    12   6 C    3.965 --    13 C    1.403     9 C    1.392    41 H    0.964
    13   6 C    3.955 --    12 C    1.403     4 C    1.395    42 H    0.962
    14   6 C    3.971 --    15 C    0.980    44 H    0.972    43 H    0.969
                             3 C    0.958
    15   6 C    3.987 --    16 C    1.059    14 C    0.980    45 H    0.963
                            46 H    0.929
    16   6 C    3.586 --    17 N    1.394    15 C    1.059    48 H    0.958
    17   7 N    3.472 --    16 C    1.394    30 C    0.999    18 C    0.988
    18   6 C    3.956 --    17 N    0.988    50 H    0.968    19 C    0.967
                            49 H    0.964
    19   6 C    3.976 --    20 C    1.008    52 H    0.972    51 H    0.972
                            18 C    0.967
    20   6 C    3.945 --    21 C    1.410    29 C    1.380    19 C    1.008
    21   6 C    3.951 --    22 C    1.417    20 C    1.410    53 H    0.968
    22   6 C    3.960 --    21 C    1.417    23 C    1.384    54 H    0.963
    23   6 C    3.896 --    22 C    1.384    26 C    1.221    24 O    1.110
    24   8 O    2.255 --    23 C    1.110    25 C    0.976
    25   6 C    3.928 --    57 H    0.977    24 O    0.976    55 H    0.973
                            56 H    0.973
    26   6 C    3.900 --    29 C    1.395    23 C    1.221    27 O    1.103
    27   8 O    2.254 --    26 C    1.103    28 C    0.979
    28   6 C    3.932 --    27 O    0.979    58 H    0.977    59 H    0.973
                            60 H    0.973
    29   6 C    3.960 --    26 C    1.395    20 C    1.380    61 H    0.962
    30   6 C    3.957 --    17 N    0.999    64 H    0.978    62 H    0.966
                            63 H    0.959
    31   6 C    3.970 --    32 C    1.025    33 C    1.000    65 H    0.955
                             3 C    0.934
    32   6 C    3.884 --    31 C    1.025    66 H    0.964    68 H    0.928
                            67 H    0.897
    33   6 C    3.984 --    31 C    1.000    70 H    0.980    69 H    0.979
                            71 H    0.973
    34   1 H    0.996 --     5 C    0.958
    35   1 H    0.994 --     8 C    0.974
    36   1 H    0.993 --     8 C    0.977
    37   1 H    0.994 --     8 C    0.974
    38   1 H    0.993 --    11 C    0.974
    39   1 H    0.993 --    11 C    0.977
    40   1 H    0.994 --    11 C    0.974
    41   1 H    0.996 --    12 C    0.964
    42   1 H    0.998 --    13 C    0.962
    43   1 H    0.995 --    14 C    0.969
    44   1 H    0.996 --    14 C    0.972
    45   1 H    0.995 --    15 C    0.963
    46   1 H    0.971 --    15 C    0.929
    47   1 H    0.988 --     2 C    0.898
    48   1 H    0.995 --    16 C    0.958
    49   1 H    0.991 --    18 C    0.964
    50   1 H    0.994 --    18 C    0.968
    51   1 H    0.996 --    19 C    0.972
    52   1 H    0.996 --    19 C    0.972
    53   1 H    0.997 --    21 C    0.968
    54   1 H    0.995 --    22 C    0.963
    55   1 H    0.992 --    25 C    0.973
    56   1 H    0.992 --    25 C    0.973
    57   1 H    0.993 --    25 C    0.977
    58   1 H    0.993 --    28 C    0.977
    59   1 H    0.993 --    28 C    0.973
    60   1 H    0.993 --    28 C    0.973
    61   1 H    0.997 --    29 C    0.962
    62   1 H    0.985 --    30 C    0.966
    63   1 H    0.987 --    30 C    0.959
    64   1 H    0.993 --    30 C    0.978
    65   1 H    0.991 --    31 C    0.955
    66   1 H    0.983 --    32 C    0.964
    67   1 H    0.980 --    32 C    0.897
    68   1 H    0.980 --    32 C    0.928
    69   1 H    0.995 --    33 C    0.979
    70   1 H    0.997 --    33 C    0.980
    71   1 H    0.995 --    33 C    0.973
    72   1 H    0.970 --     1 N    0.941
 ---------------------------------------------------------------------------

Topologies differ in total number of bonds
Writing topology from bond orders to xtbtopo.mol

molecular dipole:
                 x           y           z       tot (Debye)
 q only:        0.509       0.076      -0.804
   full:        0.877       0.079      -0.980       3.350
molecular quadrupole (traceless):
                xx          xy          yy          xz          yz          zz
 q only:       49.943       2.439     -12.776       7.333     -10.441     -37.167
  q+dip:       41.640       5.556      -8.597      10.306     -13.782     -33.043
   full:       41.564       5.538      -9.703       7.869     -13.630     -31.861

           -------------------------------------------------
          |                Geometry Summary                 |
           -------------------------------------------------

      molecular mass/u    :      455.6105846
   center of mass at/Å    :       -0.0021754      -0.0027396      -0.0008351
  moments of inertia/u·Å² :        0.2448168E+04   0.1097067E+05   0.1226344E+05
rotational constants/cm⁻¹ :        0.6885815E-02   0.1536609E-02   0.1374626E-02

 * 61 selected distances

     #   Z          #   Z                                           value/Å
     1   7 N        2   6 C                                       1.2492452
     4   6 C        5   6 C                                       1.3987695
     5   6 C        6   6 C                                       1.3851352
     6   6 C        7   8 O                                       1.3484402
     7   8 O        8   6 C                                       1.4084978
     6   6 C        9   6 C                                       1.4220243
     9   6 C       10   8 O                                       1.3474380
    10   8 O       11   6 C                                       1.4090459
     9   6 C       12   6 C                                       1.3856157
     4   6 C       13   6 C                                       1.3897367
    12   6 C       13   6 C                                       1.3890689
    15   6 C       16   6 C                                       1.4810888
    16   6 C       17   7 N                                       1.3289065
    17   7 N       18   6 C                                       1.4440954
    18   6 C       19   6 C                                       1.5408389 (max)
    20   6 C       21   6 C                                       1.3852124
    21   6 C       22   6 C                                       1.3861719
    22   6 C       23   6 C                                       1.3874213
    23   6 C       24   8 O                                       1.3460941
    24   8 O       25   6 C                                       1.4092279
    23   6 C       26   6 C                                       1.4223081
    26   6 C       27   8 O                                       1.3482173
    27   8 O       28   6 C                                       1.4075830
    20   6 C       29   6 C                                       1.3928234
    26   6 C       29   6 C                                       1.3859703
    17   7 N       30   6 C                                       1.4429726
    31   6 C       33   6 C                                       1.5298030
     5   6 C       34   1 H                                       1.0772258 (min)
     8   6 C       35   1 H                                       1.0940411
     8   6 C       36   1 H                                       1.0883457
     8   6 C       37   1 H                                       1.0948735
    11   6 C       38   1 H                                       1.0941262
    11   6 C       39   1 H                                       1.0880852
    11   6 C       40   1 H                                       1.0947077
    12   6 C       41   1 H                                       1.0778090
    13   6 C       42   1 H                                       1.0793954
    14   6 C       43   1 H                                       1.0895652
    14   6 C       44   1 H                                       1.0902418
    15   6 C       45   1 H                                       1.0884402
    15   6 C       46   1 H                                       1.0980794
    16   6 C       48   1 H                                       1.0803946
    18   6 C       49   1 H                                       1.0933381
    18   6 C       50   1 H                                       1.0919787
    19   6 C       51   1 H                                       1.0913498
    19   6 C       52   1 H                                       1.0905788
    21   6 C       53   1 H                                       1.0794589
    22   6 C       54   1 H                                       1.0775234
    25   6 C       55   1 H                                       1.0943037
    25   6 C       56   1 H                                       1.0941190
    25   6 C       57   1 H                                       1.0882310
    28   6 C       58   1 H                                       1.0882162
    28   6 C       59   1 H                                       1.0948505
    28   6 C       60   1 H                                       1.0944581
    29   6 C       61   1 H                                       1.0787951
    30   6 C       62   1 H                                       1.0920118
    30   6 C       63   1 H                                       1.0929841
    30   6 C       64   1 H                                       1.0869394
    31   6 C       65   1 H                                       1.0966673
    33   6 C       69   1 H                                       1.0859473
    33   6 C       70   1 H                                       1.0857524
    33   6 C       71   1 H                                       1.0875730

 * 4 distinct bonds (by element types)

   Z      Z             #   av. dist./Å        max./Å        min./Å
   1 H    6 C          34     1.0888355     1.0980794     1.0772258
   6 C    6 C          15     1.4187992     1.5408389     1.3851352
   6 C    7 N           4     1.3663049     1.4440954     1.2492452
   6 C    8 O           8     1.3780680     1.4092279     1.3460941


optimized geometry written to: xtbopt.xyz


           -------------------------------------------------
          | TOTAL ENERGY              -99.251397212414 Eh   |
          | GRADIENT NORM               0.002609251429 Eh/α |
          | HOMO-LUMO GAP               1.665383583780 eV   |
           -------------------------------------------------

------------------------------------------------------------------------
 * finished run on 2024/04/06 at 11:15:19.356     
------------------------------------------------------------------------
 total:
 * wall-time:     0 d,  0 h,  0 min,  2.829 sec
 *  cpu-time:     0 d,  0 h,  0 min,  2.803 sec
 * ratio c/w:     0.991 speedup
 SCF:
 * wall-time:     0 d,  0 h,  0 min,  0.191 sec
 *  cpu-time:     0 d,  0 h,  0 min,  0.190 sec
 * ratio c/w:     0.998 speedup
 ANC optimizer:
 * wall-time:     0 d,  0 h,  0 min,  2.591 sec
 *  cpu-time:     0 d,  0 h,  0 min,  2.587 sec
 * ratio c/w:     0.998 speedup

