72
 energy: -99.406599688532 gnorm: 0.001248373833 xtb: 6.6.1 (8d0f1dd)
N           -1.87544376711331        2.77517968700753        2.23433384863882
C           -1.83231653137594        2.11057236254757        1.17834888937005
C           -2.98877462000372        1.90933337178330        0.23860928145039
C           -3.47145122133993        0.46786614988223        0.32235603337176
C           -4.42984604947124        0.00456469631060       -0.58165744944355
C           -4.89847084985177       -1.29791068903933       -0.53677063534657
O           -5.82576913916728       -1.82339604079380       -1.36321389774331
C           -6.46841465845983       -0.99285682750499       -2.30141863890802
C           -4.38740007696512       -2.19296297757414        0.44192115022640
O           -4.89490679122023       -3.44129265123953        0.40714342517005
C           -4.51262584816075       -4.36466986734542        1.39970690166114
C           -3.43618031425210       -1.72771870018564        1.33527826038287
C           -2.98759934792139       -0.41356394540704        1.27682937126586
C           -2.44062571680847        2.18866046655642       -1.18522371046884
C           -1.49787935613551        1.09987069469961       -1.73031281418103
C           -0.16514505342422        1.09646720287021       -1.08623748450401
N            0.49386518434125        0.01784679149680       -0.67918832903844
C            1.87114437727460        0.11911055511720       -0.25782568171161
C            2.84108741636979       -0.33480458006928       -1.36523417138807
C            4.26078320728773       -0.13144590922045       -0.91605462038041
C            4.90120265937518        1.07826644625612       -1.12986289698628
C            6.20201506713361        1.27937701933011       -0.69528392779375
C            6.88847455736636        0.27265505744507       -0.03153597653283
O            8.15023565462053        0.35460253392470        0.42899242452353
C            8.88219978543724        1.54067052931070        0.22113112202184
C            6.23712079198898       -0.97096987696766        0.19804238204978
O            6.97541967486410       -1.89355368055015        0.84631533623225
C            6.42849006124550       -3.16749738255788        1.08946643957262
C            4.93552079094547       -1.14775823942193       -0.24413901773832
C           -0.10076481956323       -1.29678599102837       -0.69997728237367
C           -4.18765521175383        2.85726862519381        0.53908943045281
C           -4.81430568107359        2.55239575920573        1.89781530307718
C           -3.81344804146210        4.33525476562047        0.46218729481614
H           -4.82668251510469        0.67693889809326       -1.32400765615478
H           -6.97720386059553       -0.15576669169442       -1.81418599731561
H           -7.20565266779481       -1.62511946147444       -2.79247593175788
H           -5.76630485325208       -0.61113305030089       -3.04984088568994
H           -4.75092917438551       -3.99678052470625        2.40200735326374
H           -5.09015281315984       -5.26487723464911        1.19892926260425
H           -3.44500567077224       -4.59958912403856        1.34030733154963
H           -3.04014837932509       -2.37985086647825        2.09685639267198
H           -2.26894474723159       -0.08127853373414        2.01010617410024
H           -3.28192131256963        2.27930517269177       -1.87124956971864
H           -1.91394864697882        3.14348040387525       -1.18020214981810
H           -1.98240819913580        0.12743523758834       -1.66265254719386
H           -1.34415059057259        1.32400269122872       -2.79395560246238
H           -0.91207546653830        1.62698917624801        0.79481570559871
H            0.38520148218771        2.02622809396772       -1.08209589488271
H            2.02089573877474       -0.49699201413329        0.63284377121682
H            2.09451234991155        1.15561339286351        0.00349255652799
H            2.64706921082073        0.25448280492609       -2.26310148799337
H            2.66564282695748       -1.38596294737177       -1.59672856496194
H            4.39253316277641        1.87432149530348       -1.65215118109369
H            6.67679477568981        2.22803359323226       -0.88432023536451
H            8.41178123945261        2.39426888538792        0.71861330204723
H            8.99900418485870        1.75714673180609       -0.84495298003350
H            9.86065913680154        1.36075751858652        0.66215317942468
H            7.21138660417240       -3.72998573853494        1.59432814299894
H            5.54943103724290       -3.10962135838140        1.73949803104558
H            6.16264195283951       -3.67490186527298        0.15691464280201
H            4.43534007576409       -2.08974764034149       -0.08203701898557
H           -0.25291726427277       -1.64581082079134       -1.72351652484432
H           -1.06488557451847       -1.28733010443424       -0.18509509264136
H            0.55730687920294       -1.99528590257253       -0.18964502002898
H           -4.94212830926403        2.66006782438102       -0.23059843724533
H           -4.09992923752074        2.75080680387029        2.68998280968496
H           -5.13256305181158        1.51548351911929        1.95946175556886
H           -5.68122420474811        3.19007116578088        2.05006158188824
H           -3.04134532826513        4.56911664223309        1.18880034234461
H           -3.47038105116248        4.61679766171338       -0.52999909044551
H           -4.68840103967886        4.93713267607946        0.69307244132435
H           -1.02291723452059        2.86291765678073        2.77820157482444
