      -----------------------------------------------------------      
     |                   =====================                   |     
     |                           x T B                           |     
     |                   =====================                   |     
     |                         S. Grimme                         |     
     |          Mulliken Center for Theoretical Chemistry        |     
     |                    University of Bonn                     |     
      -----------------------------------------------------------      

   * xtb version 6.6.1 (8d0f1dd) compiled by 'conda@1efc2f54142f' on 2023-08-01

   xtb is free software: you can redistribute it and/or modify it under
   the terms of the GNU Lesser General Public License as published by
   the Free Software Foundation, either version 3 of the License, or
   (at your option) any later version.
   
   xtb is distributed in the hope that it will be useful,
   but WITHOUT ANY WARRANTY; without even the implied warranty of
   MERCHANTABILITY or FITNESS FOR A PARTICULAR PURPOSE.  See the
   GNU Lesser General Public License for more details.
   
   Cite this work as:
   * C. Bannwarth, E. Caldeweyher, S. Ehlert, A. Hansen, P. Pracht,
     J. Seibert, S. Spicher, S. Grimme, WIREs Comput. Mol. Sci., 2020, 11,
     e01493. DOI: 10.1002/wcms.1493
   
   for GFN2-xTB:
   * C. Bannwarth, S. Ehlert and S. Grimme., J. Chem. Theory Comput., 2019,
     15, 1652-1671. DOI: 10.1021/acs.jctc.8b01176
   for GFN1-xTB:
   * S. Grimme, C. Bannwarth, P. Shushkov, J. Chem. Theory Comput., 2017,
     13, 1989-2009. DOI: 10.1021/acs.jctc.7b00118
   for GFN0-xTB:
   * P. Pracht, E. Caldeweyher, S. Ehlert, S. Grimme, ChemRxiv, 2019, preprint.
     DOI: 10.26434/chemrxiv.8326202.v1
   for GFN-FF:
   * S. Spicher and S. Grimme, Angew. Chem. Int. Ed., 2020, 59, 15665-15673.
     DOI: 10.1002/anie.202004239
   
   for ALPB and GBSA implicit solvation:
   * S. Ehlert, M. Stahn, S. Spicher, S. Grimme, J. Chem. Theory Comput.,
     2021, 17, 4250-4261. DOI: 10.1021/acs.jctc.1c00471
   
   for DFT-D4:
   * E. Caldeweyher, C. Bannwarth and S. Grimme, J. Chem. Phys., 2017,
     147, 034112. DOI: 10.1063/1.4993215
   * E. Caldeweyher, S. Ehlert, A. Hansen, H. Neugebauer, S. Spicher,
     C. Bannwarth and S. Grimme, J. Chem. Phys., 2019, 150, 154122.
     DOI: 10.1063/1.5090222
   * E. Caldeweyher, J.-M. Mewes, S. Ehlert and S. Grimme, Phys. Chem. Chem. Phys.
     2020, 22, 8499-8512. DOI: 10.1039/D0CP00502A
   
   for sTDA-xTB:
   * S. Grimme and C. Bannwarth, J. Chem. Phys., 2016, 145, 054103.
     DOI: 10.1063/1.4959605
   
   in the mass-spec context:
   * V. Asgeirsson, C. Bauer and S. Grimme, Chem. Sci., 2017, 8, 4879.
     DOI: 10.1039/c7sc00601b
   * J. Koopman and S. Grimme, ACS Omega 2019, 4, 12, 15120-15133.
     DOI: 10.1021/acsomega.9b02011
   
   for metadynamics refer to:
   * S. Grimme, J. Chem. Theory Comput., 2019, 155, 2847-2862
     DOI: 10.1021/acs.jctc.9b00143
   
   for SPH calculations refer to:
   * S. Spicher and S. Grimme, J. Chem. Theory Comput., 2021, 17, 1701-1714
     DOI: 10.1021/acs.jctc.0c01306
   
   with help from (in alphabetical order)
   P. Atkinson, C. Bannwarth, F. Bohle, G. Brandenburg, E. Caldeweyher
   M. Checinski, S. Dohm, S. Ehlert, S. Ehrlich, I. Gerasimov, C. Hölzer
   A. Katbashev, J. Koopman, C. Lavigne, S. Lehtola, F. März, M. Müller,
   F. Musil, H. Neugebauer, J. Pisarek, C. Plett, P. Pracht, F. Pultar,
   J. Seibert, P. Shushkov, S. Spicher, M. Stahn, M. Steiner, T. Strunk,
   J. Stückrath, T. Rose, and J. Unsleber
   
 * started run on 2024/04/06 at 11:13:58.363     

           -------------------------------------------------
          |                Calculation Setup                |
           -------------------------------------------------

          program call               : xtb xtbopt.xyz --opt crude --input .xc2 --gfn2
          hostname                   : n-62-30-23
          coordinate file            : xtbopt.xyz
          omp threads                :                     1

   ID    Z sym.   atoms
    1    7 N      1, 17
    2    6 C      2-6, 8, 9, 11-16, 18-23, 25, 26, 28-33
    3    8 O      7, 10, 24, 27
    4    1 H      34-72

molecular fragmentation (1/2 indicates fragments):
111111111111111111111111112211111111111111111111111111111221111111111111
# atoms in fragment 1/2:    68     4
 fragment masses (1/2) :      425.58       30.03
CMA distance (Bohr)    :  16.874
constraining FC (au)   :  0.0500
########################################################################
[WARNING] Please study the warnings concerning your input carefully
-1- readin_getIntValue: could not parse ''
########################################################################

           -------------------------------------------------
          |                 G F N 2 - x T B                 |
           -------------------------------------------------

        Reference                      10.1021/acs.jctc.8b01176
      * Hamiltonian:
        H0-scaling (s, p, d)           1.850000    2.230000    2.230000
        zeta-weighting                 0.500000
      * Dispersion:
        s8                             2.700000
        a1                             0.520000
        a2                             5.000000
        s9                             5.000000
      * Repulsion:
        kExp                           1.500000    1.000000
        rExp                           1.000000
      * Coulomb:
        alpha                          2.000000
        third order                    shell-resolved
        anisotropic                    true
        a3                             3.000000
        a5                             4.000000
        cn-shift                       1.200000
        cn-exp                         4.000000
        max-rad                        5.000000

q/qsh data taken from xtbrestart
CAMM data taken from xtbrestart

          ...................................................
          :                      SETUP                      :
          :.................................................:
          :  # basis functions                 171          :
          :  # atomic orbitals                 171          :
          :  # shells                          105          :
          :  # electrons                       180          :
          :  max. iterations                   250          :
          :  Hamiltonian                  GFN2-xTB          :
          :  restarted?                       true          :
          :  GBSA solvation                  false          :
          :  PC potential                    false          :
          :  electronic temp.         5000.0000000     K    :
          :  accuracy                    1.0000000          :
          :  -> integral cutoff          0.2500000E+02      :
          :  -> integral neglect         0.1000000E-07      :
          :  -> SCF convergence          0.1000000E-05 Eh   :
          :  -> wf. convergence          0.1000000E-03 e    :
          :  Broyden damping             0.4000000          :
          ...................................................

 iter      E             dE          RMSdq      gap      omega  full diag
   1   -100.7603155 -0.100760E+03  0.632E-05    1.75       0.0  T
   2   -100.7603155  0.540354E-09  0.937E-05    1.75     125.8  T
   3   -100.7603155 -0.889017E-09  0.132E-05    1.75     893.0  T

   *** convergence criteria satisfied after 3 iterations ***

         #    Occupation            Energy/Eh            Energy/eV
      -------------------------------------------------------------
         1        2.0000           -0.8115085             -22.0823
       ...           ...                  ...                  ...
        84        1.9927           -0.5093306             -13.8596
        85        1.9855           -0.4984233             -13.5628
        86        1.9795           -0.4928678             -13.4116
        87        1.9647           -0.4841261             -13.1737
        88        1.9318           -0.4734173             -12.8823
        89        1.8883           -0.4652482             -12.6600
        90        1.8624           -0.4617340             -12.5644 (HOMO)
        91        0.3804           -0.3975397             -10.8176 (LUMO)
        92        0.0250           -0.3512702              -9.5585
        93        0.0130           -0.3408415              -9.2748
        94        0.0033           -0.3189500              -8.6791
        95        0.0027           -0.3158695              -8.5952
       ...           ...                  ...                  ...
       171                          0.5713807              15.5481
      -------------------------------------------------------------
                  HL-Gap            0.0641942 Eh            1.7468 eV
             Fermi-level           -0.4204785 Eh          -11.4418 eV

 SCC (total)                   0 d,  0 h,  0 min,  0.119 sec
 SCC setup                      ...        0 min,  0.001 sec (  0.812%)
 Dispersion                     ...        0 min,  0.002 sec (  1.444%)
 classical contributions        ...        0 min,  0.000 sec (  0.362%)
 integral evaluation            ...        0 min,  0.018 sec ( 14.992%)
 iterations                     ...        0 min,  0.027 sec ( 23.180%)
 molecular gradient             ...        0 min,  0.070 sec ( 58.658%)
 printout                       ...        0 min,  0.001 sec (  0.539%)

         :::::::::::::::::::::::::::::::::::::::::::::::::::::
         ::                     SUMMARY                     ::
         :::::::::::::::::::::::::::::::::::::::::::::::::::::
         :: total energy             -99.354928566739 Eh    ::
         :: gradient norm              0.003852303115 Eh/a0 ::
         :: HOMO-LUMO gap              1.746814346680 eV    ::
         ::.................................................::
         :: SCC energy              -100.760315496653 Eh    ::
         :: -> isotropic ES            0.114048899565 Eh    ::
         :: -> anisotropic ES          0.004053318268 Eh    ::
         :: -> anisotropic XC          0.048581409635 Eh    ::
         :: -> dispersion             -0.072830884305 Eh    ::
         :: repulsion energy           1.404130037910 Eh    ::
         :: add. restraining           0.000000000000 Eh    ::
         :: total charge               1.000000000000 e     ::
         :::::::::::::::::::::::::::::::::::::::::::::::::::::

      ----------------------------------------------------------- 
     |                   =====================                   |
     |                        A N C O P T                        |
     |                   =====================                   |
     |               Approximate Normal Coordinate               |
     |                Rational Function Optimizer                |
      ----------------------------------------------------------- 

          ...................................................
          :                      SETUP                      :
          :.................................................:
          :   optimization level             crude          :
          :   max. optcycles                   200          :
          :   ANC micro-cycles                  20          :
          :   degrees of freedom               210          :
          :.................................................:
          :   RF solver                   davidson          :
          :   write xtbopt.log                true          :
          :   linear?                        false          :
          :   energy convergence         0.5000000E-03 Eh   :
          :   grad. convergence          0.1000000E-01 Eh/α :
          :   maxmium RF displ.          1.0000000          :
          :   Hlow (freq-cutoff)         0.1000000E-01      :
          :   Hmax (freq-cutoff)         5.0000000          :
          :   S6 in model hess.         20.0000000          :
          ...................................................

generating ANC from model Hessian ...
Using Lindh-Hessian (1995)
 Shifting diagonal of input Hessian by    1.0021638702734910E-002
 Lowest  eigenvalues of input Hessian
    0.010000    0.010011    0.000000    0.000000    0.000000    0.000000
    0.000000    0.000000    0.010063    0.010089    0.010147    0.010240
    0.010296    0.010342    0.010583    0.010644    0.010683    0.010743
 Highest eigenvalues
    2.001397    2.042386    2.110255    2.135888    2.181850    2.232415


........................................................................
.............................. CYCLE    1 ..............................
........................................................................

 iter      E             dE          RMSdq      gap      omega  full diag
   1   -100.7603155 -0.100760E+03  0.861E-06    1.75       0.0  T
   2   -100.7603155 -0.866862E-12  0.645E-06    1.75    1827.0  T
   3   -100.7603155 -0.163425E-11  0.429E-06    1.75    2750.2  T
     SCC iter.                  ...        0 min,  0.026 sec
     gradient                   ...        0 min,  0.068 sec
 * total energy  :   -99.3549286 Eh     change       -0.2387424E-11 Eh
   gradient norm :     0.0038522 Eh/α   predicted     0.0000000E+00 (-100.00%)
   displ. norm   :     0.1292250 α      lambda       -0.2035968E-03
   maximum displ.:     0.0638575 α      in ANC's #16, #6, #5, ...

   *** GEOMETRY OPTIMIZATION CONVERGED AFTER 1 ITERATIONS ***

------------------------------------------------------------------------
 total energy gain   :        -0.0000000 Eh       -0.0000 kcal/mol
 total RMSD          :         0.0000000 a0        0.0000 Å
 total power (kW/mol):        -0.0000000 (step)   -0.0000 (real)
------------------------------------------------------------------------

 ANCopt (total)                0 d,  0 h,  0 min,  0.178 sec
 optimizer setup                ...        0 min,  0.000 sec (  0.171%)
 model hessian                  ...        0 min,  0.053 sec ( 29.730%)
 ANC generation                 ...        0 min,  0.007 sec (  3.658%)
 coordinate transformation      ...        0 min,  0.000 sec (  0.027%)
 single point calculation       ...        0 min,  0.116 sec ( 64.973%)
 optimization log               ...        0 min,  0.002 sec (  0.986%)
 hessian update                 ...        0 min,  0.000 sec (  0.001%)
 rational function              ...        0 min,  0.000 sec (  0.103%)

================
 final structure:
================
72
 xtb: 6.6.1 (8d0f1dd)
N           -1.98097128985801        2.91021444701534        2.26815462220187
C           -1.92183850920861        2.18839033698503        1.25119189092428
C           -3.06235523881509        1.96165699375073        0.29736035140404
C           -3.49634217843631        0.50565965308723        0.36237020109671
C           -4.38388389198453        0.00368796529562       -0.59168343431663
C           -4.82619944151602       -1.30801595264113       -0.54964443067082
O           -5.68368364789121       -1.86926852144407       -1.42637616171760
C           -6.26666464589028       -1.07037350489765       -2.42880564577347
C           -4.36385957630053       -2.16985643027938        0.48214850287224
O           -4.84145950278253       -3.42910161354082        0.44304274534468
C           -4.48051799302680       -4.33124726808507        1.46292264552662
C           -3.48564154885239       -1.66394430652253        1.42742656854383
C           -3.06000821138096       -0.34296830586469        1.36804552407512
C           -2.50588365876320        2.29466886521898       -1.11209408008945
C           -1.56825954372575        1.22427466080587       -1.69759443925080
C           -0.22929974500913        1.19278469883767       -1.06923565450410
N            0.43389310499382        0.09849094162923       -0.72389606494124
C            1.83937387784925        0.17331035924953       -0.39777736265883
C            2.71769202327430       -0.09589139975152       -1.63549197265078
C            4.17164248113539       -0.02146044445008       -1.26475076824579
C            4.80827057226033        1.20854642558173       -1.14814514373517
C            6.13923371849217        1.29997508673517       -0.78853132294404
C            6.87328485455594        0.13810526110799       -0.53314772675113
O            8.17329867600682        0.10109225919586       -0.19661444586732
C            8.88031072782153        1.30813479493545       -0.01881112504577
C            6.23173753369407       -1.10276106440137       -0.64244490128504
O            7.38284540354073       -2.66031015666193        2.71997704348297
C            7.08956278926828       -3.81130796607245        2.60555186326177
C            4.90395128028015       -1.17529616507686       -0.99885853485600
C           -0.16450046393339       -1.21316200686378       -0.79415988941565
C           -4.30673955055242        2.84979646100412        0.59709462168547
C           -4.93775556859500        2.49452858899348        1.94116068280708
C           -4.00596636602589        4.34495232965985        0.54959828888979
H           -4.74492342114883        0.65451998896657       -1.37050283953856
H           -6.83196709976180       -0.23758986221167       -1.99983844091336
H           -6.94697748451030       -1.72766164364062       -2.96651815791745
H           -5.51454980785793       -0.68392980973907       -3.12440811262519
H           -4.79853058004466       -3.97287494785390        2.44631995659833
H           -5.00173953830728       -5.25769337499290        1.23079122274319
H           -3.40151268090653       -4.51536215412777        1.47230476039329
H           -3.13362429739860       -2.28824531619182        2.23239515779145
H           -2.40079724724877        0.02236239399802        2.14008423547386
H           -3.34297160328244        2.42233584177369       -1.79741874779769
H           -1.97382856565777        3.24547282976492       -1.06309481232244
H           -2.05357098471105        0.25068407724117       -1.66036266441084
H           -1.41975272443910        1.48201539015771       -2.75470835883096
H           -1.00284494121274        1.66868892873817        0.91668632380119
H            0.31571949647054        2.12397021481016       -1.01410099652138
H            2.06946791684889       -0.56067577949018        0.37744400418396
H            2.06968835823117        1.16690236709636       -0.00728393314542
H            2.48591372682134        0.65057021664018       -2.39790799030223
H            2.48678372442887       -1.08321383713846       -2.03685257661461
H            4.25883290935680        2.11579413274019       -1.35342705613029
H            6.59910043703625        2.27211548133685       -0.71349185471857
H            8.46457497465283        1.89287225680112        0.80734759995040
H            8.88321366258931        1.91094034060291       -0.93187306782523
H            9.90025202781672        1.01737946176694        0.22481228208751
H            7.76368686139177       -4.55386534639611        2.15363818899281
H            6.12319830426573       -4.21999820726276        2.94771697005367
H            6.80876199585852       -1.98928059094344       -0.43812929829547
H            4.43122678504740       -2.14237807535993       -1.08436835718725
H           -0.33209318860706       -1.51977342419149       -1.82891153198902
H           -1.12055163688568       -1.22232492218120       -0.26586160611957
H            0.49821662926795       -1.93448172718042       -0.32298598994927
H           -5.03956944592732        2.62669547986052       -0.18701114820503
H           -4.24604780064999        2.71609436864231        2.74753894750715
H           -5.20641432267937        1.44185130740135        1.98451448526885
H           -5.83931069722949        3.08369144422068        2.08659237680905
H           -3.27531023007947        4.60630809567779        1.30846579044323
H           -3.63897182029782        4.65641178700174       -0.42446736250360
H           -4.91923612851214        4.89788126956826        0.75261106405138
H           -1.14029243581705        3.01462584454357        2.82754393327941

 Bond Distances (Angstroems)
 ---------------------------
N1-C2=1.2485         N1-H72=1.0152        C2-N1=1.2485         C2-C3=1.5040         C2-H47=1.1075        C3-C2=1.5040         
C3-C4=1.5207         C3-C14=1.5515        C3-C31=1.5579        C4-C3=1.5207         C4-C5=1.3964         C4-C13=1.3863        
C5-C4=1.3964         C5-C6=1.3849         C5-H34=1.0773        C6-C5=1.3849         C6-O7=1.3487         C6-C9=1.4217         
O7-C6=1.3487         O7-C8=1.4082         C8-O7=1.4082         C8-H35=1.0941        C8-H36=1.0881        C8-H37=1.0949        
C9-C6=1.4217         C9-O10=1.3473        C9-C12=1.3859        O10-C9=1.3473        O10-C11=1.4087       C11-O10=1.4087       
C11-H38=1.0939       C11-H39=1.0881       C11-H40=1.0946       C12-C9=1.3859        C12-C13=1.3891       C12-H41=1.0778       
C13-C4=1.3863        C13-C12=1.3891       C13-H42=1.0789       C14-C3=1.5515        C14-C15=1.5387       C14-H43=1.0894       
C14-H44=1.0906       C15-C14=1.5387       C15-C16=1.4794       C15-H45=1.0885       C15-H46=1.0982       C16-C15=1.4794       
C16-N17=1.3254       C16-H48=1.0804       N17-C16=1.3254       N17-C18=1.4448       N17-C30=1.4434       C18-N17=1.4448       
C18-C19=1.5414       C18-H49=1.0921       C18-H50=1.0921       C19-C18=1.5414       C19-C20=1.5023       C19-H51=1.0919       
C19-H52=1.0905       C20-C19=1.5023       C20-C21=1.3899       C20-C29=1.3922       C21-C20=1.3899       C21-C22=1.3817       
C21-H53=1.0803       C22-C21=1.3817       C22-C23=1.3979       C22-H54=1.0780       C23-C22=1.3979       C23-O24=1.3434       
C23-C26=1.4012       O24-C23=1.3434       O24-C25=1.4101       C25-O24=1.4101       C25-H55=1.0942       C25-H56=1.0941       
C25-H57=1.0882       C26-C23=1.4012       C26-C29=1.3767       C26-H60=1.0773       O27-C28=1.1933       C28-O27=1.1933       
C28-H58=1.1000       C28-H59=1.1036       C29-C20=1.3922       C29-C26=1.3767       C29-H61=1.0798       C30-N17=1.4434       
C30-H62=1.0922       C30-H63=1.0923       C30-H64=1.0870       C31-C3=1.5579        C31-C32=1.5267       C31-C33=1.5258       
C31-H65=1.0962       C32-C31=1.5267       C32-H66=1.0853       C32-H67=1.0873       C32-H68=1.0868       C33-C31=1.5258       
C33-H69=1.0854       C33-H70=1.0865       C33-H71=1.0867       H34-C5=1.0773        H35-C8=1.0941        H36-C8=1.0881        
H37-C8=1.0949        H38-C11=1.0939       H39-C11=1.0881       H40-C11=1.0946       H41-C12=1.0778       H42-C13=1.0789       
H43-C14=1.0894       H44-C14=1.0906       H45-C15=1.0885       H46-C15=1.0982       H47-C2=1.1075        H48-C16=1.0804       
H49-C18=1.0921       H50-C18=1.0921       H51-C19=1.0919       H52-C19=1.0905       H53-C21=1.0803       H54-C22=1.0780       
H55-C25=1.0942       H56-C25=1.0941       H57-C25=1.0882       H58-C28=1.1000       H59-C28=1.1036       H60-C26=1.0773       
H61-C29=1.0798       H62-C30=1.0922       H63-C30=1.0923       H64-C30=1.0870       H65-C31=1.0962       H66-C32=1.0853       
H67-C32=1.0873       H68-C32=1.0868       H69-C33=1.0854       H70-C33=1.0865       H71-C33=1.0867       H72-N1=1.0152        
 C  H  Rav=1.0892 sigma=0.0072  Rmin=1.0773  Rmax=1.1075    38
 C  C  Rav=1.4524 sigma=0.0684  Rmin=1.3767  Rmax=1.5579    22
 N  H  Rav=1.0152 sigma=0.0000  Rmin=1.0152  Rmax=1.0152     1
 N  C  Rav=1.3655 sigma=0.0831  Rmin=1.2485  Rmax=1.4448     4
 O  C  Rav=1.3514 sigma=0.0708  Rmin=1.1933  Rmax=1.4101     7

 selected bond angles (degree)
 --------------------
H72-N1-C2=117.98               C3-C2-N1=124.60                H47-C2-N1=123.82               H47-C2-C3=111.53               
C4-C3-C2=109.49                C14-C3-C2=105.77               C14-C3-C4=110.29               C31-C3-C2=113.44               
C31-C3-C4=108.04               C31-C3-C14=109.81              C5-C4-C3=119.76                C13-C4-C3=121.82               
C13-C4-C5=118.40               C6-C5-C4=121.52                H34-C5-C4=119.33               H34-C5-C6=119.15               
O7-C6-C5=125.27                C9-C6-C5=119.49                C9-C6-O7=115.23                C8-O7-C6=119.33                
H35-C8-O7=111.51               H36-C8-O7=105.54               H36-C8-H35=109.30              H37-C8-O7=111.60               
H37-C8-H35=109.59              H37-C8-H36=109.19              O10-C9-C6=115.48               C12-C9-C6=118.67               
C12-C9-O10=125.84              C11-O10-C9=119.12              

 selected dihedral angles (degree)
 ---------------------------------
C3-C2-N1-H72=181.82           H47-C2-N1-H72=359.05          C4-C3-C2-N1=245.99            C4-C3-C2-H47= 68.46           
C14-C3-C2-N1=127.16           C14-C3-C2-H47=309.63          C31-C3-C2-N1=  6.75           C31-C3-C2-H47=189.22          
C5-C4-C3-C2=190.80            C5-C4-C3-C14=306.79           C5-C4-C3-C31= 66.81           C13-C4-C3-C2= 12.38           
C13-C4-C3-C14=128.37          C13-C4-C3-C31=248.39          C6-C5-C4-C3=181.45            C6-C5-C4-C13=359.93           
H34-C5-C4-C3=  0.54           H34-C5-C4-C13=179.02          O7-C6-C5-C4=179.77            O7-C6-C5-H34=  0.68           
C9-C6-C5-C4=359.66            C9-C6-C5-H34=180.57           C8-O7-C6-C5=355.58            C8-O7-C6-C9=175.69            
H35-C8-O7-C6=301.41           H36-C8-O7-C6=182.84           H37-C8-O7-C6= 64.34           O10-C9-C6-C5=180.24           
O10-C9-C6-O7=  0.14           C12-C9-C6-C5=  0.48           C12-C9-C6-O7=180.39           C11-O10-C9-C6=182.81          
C11-O10-C9-C12=  2.54         

 CMA Distance (Angstroems)
 ---------------------------
R(CMA):  8.9294
           -------------------------------------------------
          |                Final Singlepoint                |
           -------------------------------------------------

          ...................................................
          :                      SETUP                      :
          :.................................................:
          :  # basis functions                 171          :
          :  # atomic orbitals                 171          :
          :  # shells                          105          :
          :  # electrons                       180          :
          :  max. iterations                   250          :
          :  Hamiltonian                  GFN2-xTB          :
          :  restarted?                      false          :
          :  GBSA solvation                  false          :
          :  PC potential                    false          :
          :  electronic temp.         5000.0000000     K    :
          :  accuracy                    1.0000000          :
          :  -> integral cutoff          0.2500000E+02      :
          :  -> integral neglect         0.1000000E-07      :
          :  -> SCF convergence          0.1000000E-05 Eh   :
          :  -> wf. convergence          0.1000000E-03 e    :
          :  Broyden damping             0.4000000          :
          ...................................................

 iter      E             dE          RMSdq      gap      omega  full diag
   1   -100.7603155 -0.100760E+03  0.334E-06    1.75       0.0  T
   2   -100.7603155  0.166267E-11  0.430E-06    1.75    2738.4  T
   3   -100.7603155 -0.193268E-11  0.115E-06    1.75   10219.3  T

   *** convergence criteria satisfied after 3 iterations ***

         #    Occupation            Energy/Eh            Energy/eV
      -------------------------------------------------------------
         1        2.0000           -0.8115085             -22.0823
       ...           ...                  ...                  ...
        84        1.9927           -0.5093306             -13.8596
        85        1.9855           -0.4984233             -13.5628
        86        1.9795           -0.4928678             -13.4116
        87        1.9647           -0.4841261             -13.1737
        88        1.9318           -0.4734174             -12.8823
        89        1.8883           -0.4652482             -12.6600
        90        1.8624           -0.4617340             -12.5644 (HOMO)
        91        0.3804           -0.3975399             -10.8176 (LUMO)
        92        0.0250           -0.3512702              -9.5585
        93        0.0130           -0.3408416              -9.2748
        94        0.0033           -0.3189501              -8.6791
        95        0.0027           -0.3158695              -8.5952
       ...           ...                  ...                  ...
       171                          0.5713808              15.5481
      -------------------------------------------------------------
                  HL-Gap            0.0641941 Eh            1.7468 eV
             Fermi-level           -0.4204786 Eh          -11.4418 eV

 SCC (total)                   0 d,  0 h,  0 min,  0.117 sec
 SCC setup                      ...        0 min,  0.001 sec (  0.743%)
 Dispersion                     ...        0 min,  0.001 sec (  1.114%)
 classical contributions        ...        0 min,  0.000 sec (  0.366%)
 integral evaluation            ...        0 min,  0.018 sec ( 15.116%)
 iterations                     ...        0 min,  0.026 sec ( 22.184%)
 molecular gradient             ...        0 min,  0.070 sec ( 59.991%)
 printout                       ...        0 min,  0.001 sec (  0.471%)

         :::::::::::::::::::::::::::::::::::::::::::::::::::::
         ::                     SUMMARY                     ::
         :::::::::::::::::::::::::::::::::::::::::::::::::::::
         :: total energy             -99.354928566742 Eh    ::
         :: gradient norm              0.003852163091 Eh/a0 ::
         :: HOMO-LUMO gap              1.746811173469 eV    ::
         ::.................................................::
         :: SCC energy              -100.760315496656 Eh    ::
         :: -> isotropic ES            0.114048770635 Eh    ::
         :: -> anisotropic ES          0.004053346917 Eh    ::
         :: -> anisotropic XC          0.048581411661 Eh    ::
         :: -> dispersion             -0.072830885826 Eh    ::
         :: repulsion energy           1.404130037910 Eh    ::
         :: add. restraining           0.000000000000 Eh    ::
         :: total charge               1.000000000000 e     ::
         :::::::::::::::::::::::::::::::::::::::::::::::::::::

           -------------------------------------------------
          |                Property Printout                |
           -------------------------------------------------

    * Orbital Energies and Occupations

         #    Occupation            Energy/Eh            Energy/eV
      -------------------------------------------------------------
         1        2.0000           -0.8115085             -22.0823
       ...           ...                  ...                  ...
        78        1.9981           -0.5305941             -14.4382
        79        1.9980           -0.5295348             -14.4094
        80        1.9972           -0.5245347             -14.2733
        81        1.9954           -0.5165947             -14.0573
        82        1.9946           -0.5140166             -13.9871
        83        1.9936           -0.5114841             -13.9182
        84        1.9927           -0.5093306             -13.8596
        85        1.9855           -0.4984233             -13.5628
        86        1.9795           -0.4928678             -13.4116
        87        1.9647           -0.4841261             -13.1737
        88        1.9318           -0.4734174             -12.8823
        89        1.8883           -0.4652482             -12.6600
        90        1.8624           -0.4617340             -12.5644 (HOMO)
        91        0.3804           -0.3975399             -10.8176 (LUMO)
        92        0.0250           -0.3512702              -9.5585
        93        0.0130           -0.3408416              -9.2748
        94        0.0033           -0.3189501              -8.6791
        95        0.0027           -0.3158695              -8.5952
        96        0.0026           -0.3155554              -8.5867
        97        0.0016           -0.3080471              -8.3824
        98        0.0000           -0.1932601              -5.2589
        99        0.0000           -0.1858307              -5.0567
       100                         -0.1375073              -3.7418
       101                         -0.0701069              -1.9077
       ...                                ...                  ...
       171                          0.5713808              15.5481
      -------------------------------------------------------------
                  HL-Gap            0.0641941 Eh            1.7468 eV
             Fermi-level           -0.4204786 Eh          -11.4418 eV

     #   Z          covCN         q      C6AA      α(0)
     1   7 N        1.774    -0.266    27.733     7.798
     2   6 C        2.827     0.102    25.736     8.313
     3   6 C        3.908     0.006    20.413     6.422
     4   6 C        2.974     0.002    27.974     8.676
     5   6 C        2.920    -0.080    30.010     8.983
     6   6 C        2.862     0.129    25.161     8.222
     7   8 O        1.706    -0.229    17.796     5.696
     8   6 C        3.644     0.027    20.453     6.500
     9   6 C        2.864     0.129    25.175     8.224
    10   8 O        1.706    -0.227    17.766     5.691
    11   6 C        3.645     0.026    20.464     6.501
    12   6 C        2.914    -0.074    29.852     8.959
    13   6 C        2.921    -0.053    29.309     8.878
    14   6 C        3.812    -0.065    21.731     6.635
    15   6 C        3.802    -0.070    21.832     6.652
    16   6 C        2.845     0.009    27.807     8.642
    17   7 N        2.729     0.015    21.001     6.806
    18   6 C        3.756    -0.017    20.936     6.524
    19   6 C        3.807    -0.070    21.832     6.651
    20   6 C        2.970    -0.000    28.033     8.685
    21   6 C        2.924    -0.037    28.926     8.820
    22   6 C        2.915    -0.062    29.533     8.911
    23   6 C        2.865     0.156    24.614     8.132
    24   8 O        1.706    -0.230    17.809     5.698
    25   6 C        3.644     0.026    20.469     6.503
    26   6 C        2.918    -0.047    29.161     8.855
    27   8 O        0.856    -0.266    19.180     5.872
    28   6 C        2.701     0.179    24.151     8.044
    29   6 C        2.922    -0.036    28.888     8.814
    30   6 C        3.700    -0.071    22.021     6.711
    31   6 C        3.853    -0.007    20.670     6.466
    32   6 C        3.756    -0.118    22.824     6.812
    33   6 C        3.755    -0.119    22.840     6.814
    34   1 H        0.926     0.052     2.289     2.366
    35   1 H        0.924     0.055     2.264     2.353
    36   1 H        0.925     0.082     1.960     2.189
    37   1 H        0.924     0.047     2.353     2.399
    38   1 H        0.924     0.056     2.245     2.343
    39   1 H        0.925     0.082     1.960     2.189
    40   1 H        0.924     0.049     2.337     2.390
    41   1 H        0.926     0.053     2.279     2.361
    42   1 H        0.926     0.040     2.444     2.445
    43   1 H        0.925     0.061     2.188     2.313
    44   1 H        0.924     0.054     2.269     2.356
    45   1 H        0.925     0.067     2.118     2.276
    46   1 H        0.923     0.081     1.964     2.192
    47   1 H        0.922     0.006     2.960     2.691
    48   1 H        0.926     0.071     2.074     2.252
    49   1 H        0.924     0.070     2.089     2.260
    50   1 H        0.924     0.068     2.105     2.269
    51   1 H        0.924     0.053     2.282     2.362
    52   1 H        0.924     0.055     2.261     2.351
    53   1 H        0.926     0.040     2.444     2.445
    54   1 H        0.926     0.053     2.282     2.362
    55   1 H        0.924     0.056     2.251     2.346
    56   1 H        0.924     0.054     2.270     2.356
    57   1 H        0.925     0.081     1.967     2.193
    58   1 H        0.923     0.053     2.286     2.365
    59   1 H        0.923     0.045     2.384     2.415
    60   1 H        0.926     0.065     2.141     2.288
    61   1 H        0.926     0.044     2.401     2.423
    62   1 H        0.924     0.077     2.010     2.217
    63   1 H        0.924     0.080     1.981     2.201
    64   1 H        0.925     0.082     1.962     2.191
    65   1 H        0.924     0.038     2.481     2.463
    66   1 H        0.925     0.069     2.102     2.267
    67   1 H        0.925     0.036     2.508     2.476
    68   1 H        0.925     0.052     2.294     2.369
    69   1 H        0.925     0.063     2.168     2.302
    70   1 H        0.925     0.035     2.516     2.480
    71   1 H        0.925     0.055     2.260     2.351
    72   1 H        0.860     0.158     1.345     1.817

 Mol. C6AA /au·bohr⁶  :      47819.298052
 Mol. C8AA /au·bohr⁸  :    1090631.247821
 Mol. α(0) /au        :        336.598120


Wiberg/Mayer (AO) data.
largest (>0.10) Wiberg bond orders for each atom

 ---------------------------------------------------------------------------
     #   Z sym  total        # sym  WBO       # sym  WBO       # sym  WBO
 ---------------------------------------------------------------------------
     1   7 N    3.039 --     2 C    1.958    72 H    0.941
     2   6 C    3.931 --     1 N    1.958     3 C    0.994    47 H    0.903
     3   6 C    3.975 --     2 C    0.994     4 C    0.971    14 C    0.956
                            31 C    0.942
     4   6 C    3.947 --    13 C    1.413     5 C    1.368     3 C    0.971
     5   6 C    3.961 --     6 C    1.400     4 C    1.368    34 H    0.958
     6   6 C    3.903 --     5 C    1.400     9 C    1.220     7 O    1.100
     7   8 O    2.254 --     6 C    1.100     8 C    0.978
     8   6 C    3.931 --     7 O    0.978    36 H    0.977    35 H    0.973
                            37 H    0.973
     9   6 C    3.900 --    12 C    1.391     6 C    1.220    10 O    1.104
    10   8 O    2.253 --     9 C    1.104    11 C    0.977
    11   6 C    3.930 --    10 O    0.977    39 H    0.977    40 H    0.973
                            38 H    0.973
    12   6 C    3.961 --    13 C    1.405     9 C    1.391    41 H    0.964
    13   6 C    3.953 --     4 C    1.413    12 C    1.405    42 H    0.962
    14   6 C    3.973 --    15 C    0.982    44 H    0.972    43 H    0.968
                             3 C    0.956
    15   6 C    3.986 --    16 C    1.060    14 C    0.982    45 H    0.960
                            46 H    0.925
    16   6 C    3.604 --    17 N    1.414    15 C    1.060    48 H    0.957
    17   7 N    3.488 --    16 C    1.414    30 C    0.998    18 C    0.986
    18   6 C    3.953 --    17 N    0.986    50 H    0.967    49 H    0.965
                            19 C    0.965
    19   6 C    3.975 --    20 C    1.008    52 H    0.973    51 H    0.970
                            18 C    0.965
    20   6 C    3.937 --    21 C    1.398    29 C    1.380    19 C    1.008
    21   6 C    3.972 --    22 C    1.456    20 C    1.398    53 H    0.968
    22   6 C    3.952 --    21 C    1.456    23 C    1.338    54 H    0.964
    23   6 C    3.905 --    22 C    1.338    26 C    1.316    24 O    1.113
    24   8 O    2.256 --    23 C    1.113    25 C    0.975
    25   6 C    3.928 --    57 H    0.977    24 O    0.975    55 H    0.973
                            56 H    0.972
    26   6 C    3.947 --    29 C    1.481    23 C    1.316    60 H    0.965
    27   8 O    2.084 --    28 C    1.995
    28   6 C    3.869 --    27 O    1.995    58 H    0.937    59 H    0.937
    29   6 C    3.974 --    26 C    1.481    20 C    1.380    61 H    0.967
    30   6 C    3.957 --    17 N    0.998    64 H    0.977    62 H    0.965
                            63 H    0.963
    31   6 C    3.971 --    33 C    1.009    32 C    1.008    65 H    0.960
                             3 C    0.942
    32   6 C    3.978 --    31 C    1.008    67 H    0.982    68 H    0.981
                            66 H    0.974
    33   6 C    3.981 --    31 C    1.009    70 H    0.983    71 H    0.980
                            69 H    0.976
    34   1 H    0.996 --     5 C    0.958
    35   1 H    0.993 --     8 C    0.973
    36   1 H    0.993 --     8 C    0.977
    37   1 H    0.994 --     8 C    0.973
    38   1 H    0.992 --    11 C    0.973
    39   1 H    0.993 --    11 C    0.977
    40   1 H    0.993 --    11 C    0.973
    41   1 H    0.995 --    12 C    0.964
    42   1 H    0.998 --    13 C    0.962
    43   1 H    0.995 --    14 C    0.968
    44   1 H    0.996 --    14 C    0.972
    45   1 H    0.995 --    15 C    0.960
    46   1 H    0.970 --    15 C    0.925
    47   1 H    0.986 --     2 C    0.903
    48   1 H    0.995 --    16 C    0.957
    49   1 H    0.992 --    18 C    0.965
    50   1 H    0.994 --    18 C    0.967
    51   1 H    0.995 --    19 C    0.970
    52   1 H    0.996 --    19 C    0.973
    53   1 H    0.997 --    21 C    0.968
    54   1 H    0.996 --    22 C    0.964
    55   1 H    0.991 --    25 C    0.973
    56   1 H    0.991 --    25 C    0.972
    57   1 H    0.993 --    25 C    0.977
    58   1 H    0.986 --    28 C    0.937
    59   1 H    0.987 --    28 C    0.937
    60   1 H    0.994 --    26 C    0.965
    61   1 H    0.996 --    29 C    0.967
    62   1 H    0.984 --    30 C    0.965
    63   1 H    0.988 --    30 C    0.963
    64   1 H    0.993 --    30 C    0.977
    65   1 H    0.992 --    31 C    0.960
    66   1 H    0.991 --    32 C    0.974
    67   1 H    0.996 --    32 C    0.982
    68   1 H    0.994 --    32 C    0.981
    69   1 H    0.992 --    33 C    0.976
    70   1 H    0.997 --    33 C    0.983
    71   1 H    0.993 --    33 C    0.980
    72   1 H    0.969 --     1 N    0.941
 ---------------------------------------------------------------------------

Topologies differ in total number of bonds
Writing topology from bond orders to xtbtopo.mol

molecular dipole:
                 x           y           z       tot (Debye)
 q only:        0.161      -0.120      -0.995
   full:        0.505      -0.289      -1.100       3.164
molecular quadrupole (traceless):
                xx          xy          yy          xz          yz          zz
 q only:       46.020      -1.087      -9.150       3.192     -12.208     -36.870
  q+dip:       40.841       0.005      -4.646       6.784     -17.489     -36.195
   full:       40.245      -0.173      -6.768       4.991     -18.045     -33.478

           -------------------------------------------------
          |                Geometry Summary                 |
           -------------------------------------------------

      molecular mass/u    :      455.6105846
   center of mass at/Å    :        0.0078572      -0.0281154       0.0114633
  moments of inertia/u·Å² :        0.2811465E+04   0.1139035E+05   0.1257456E+05
rotational constants/cm⁻¹ :        0.5996031E-02   0.1479993E-02   0.1340614E-02

 * 64 selected distances

     #   Z          #   Z                                           value/Å
     1   7 N        2   6 C                                       1.2484952
     4   6 C        5   6 C                                       1.3963970
     5   6 C        6   6 C                                       1.3849108
     6   6 C        7   8 O                                       1.3486818
     7   8 O        8   6 C                                       1.4081780
     6   6 C        9   6 C                                       1.4216625
     9   6 C       10   8 O                                       1.3473417
    10   8 O       11   6 C                                       1.4086522
     9   6 C       12   6 C                                       1.3859166
     4   6 C       13   6 C                                       1.3863405
    12   6 C       13   6 C                                       1.3891248
    14   6 C       15   6 C                                       1.5387312
    15   6 C       16   6 C                                       1.4794053
    16   6 C       17   7 N                                       1.3253540
    17   7 N       18   6 C                                       1.4447588
    18   6 C       19   6 C                                       1.5413793 (max)
    20   6 C       21   6 C                                       1.3898955
    21   6 C       22   6 C                                       1.3817180
    22   6 C       23   6 C                                       1.3978532
    23   6 C       24   8 O                                       1.3433767
    24   8 O       25   6 C                                       1.4101178
    23   6 C       26   6 C                                       1.4011704
    27   8 O       28   6 C                                       1.1932745
    20   6 C       29   6 C                                       1.3922328
    26   6 C       29   6 C                                       1.3767021
    17   7 N       30   6 C                                       1.4434146
    31   6 C       32   6 C                                       1.5267320
    31   6 C       33   6 C                                       1.5258479
     5   6 C       34   1 H                                       1.0772612 (min)
     8   6 C       35   1 H                                       1.0941246
     8   6 C       36   1 H                                       1.0881122
     8   6 C       37   1 H                                       1.0949331
    11   6 C       38   1 H                                       1.0939073
    11   6 C       39   1 H                                       1.0880531
    11   6 C       40   1 H                                       1.0946410
    12   6 C       41   1 H                                       1.0777952
    13   6 C       42   1 H                                       1.0789206
    14   6 C       43   1 H                                       1.0893508
    14   6 C       44   1 H                                       1.0906475
    15   6 C       45   1 H                                       1.0884816
    15   6 C       46   1 H                                       1.0981688
    16   6 C       48   1 H                                       1.0803668
    18   6 C       49   1 H                                       1.0920839
    18   6 C       50   1 H                                       1.0921333
    19   6 C       51   1 H                                       1.0918812
    19   6 C       52   1 H                                       1.0905113
    21   6 C       53   1 H                                       1.0803338
    22   6 C       54   1 H                                       1.0780378
    25   6 C       55   1 H                                       1.0942087
    25   6 C       56   1 H                                       1.0941048
    25   6 C       57   1 H                                       1.0881964
    28   6 C       58   1 H                                       1.1000277
    26   6 C       60   1 H                                       1.0773204
    29   6 C       61   1 H                                       1.0798278
    30   6 C       62   1 H                                       1.0921580
    30   6 C       63   1 H                                       1.0923448
    30   6 C       64   1 H                                       1.0869688
    31   6 C       65   1 H                                       1.0961915
    32   6 C       66   1 H                                       1.0852636
    32   6 C       67   1 H                                       1.0872841
    32   6 C       68   1 H                                       1.0867682
    33   6 C       69   1 H                                       1.0853780
    33   6 C       70   1 H                                       1.0865064
    33   6 C       71   1 H                                       1.0867412

 * 4 distinct bonds (by element types)

   Z      Z             #   av. dist./Å        max./Å        min./Å
   1 H    6 C          36     1.0883065     1.1000277     1.0772612
   6 C    6 C          17     1.4303541     1.5413793     1.3767021
   6 C    7 N           4     1.3655057     1.4447588     1.2484952
   6 C    8 O           7     1.3513747     1.4101178     1.1932745


optimized geometry written to: xtbopt.xyz


           -------------------------------------------------
          | TOTAL ENERGY              -99.354928566742 Eh   |
          | GRADIENT NORM               0.003852163091 Eh/α |
          | HOMO-LUMO GAP               1.746811173469 eV   |
           -------------------------------------------------

------------------------------------------------------------------------
 * finished run on 2024/04/06 at 11:13:58.834     
------------------------------------------------------------------------
 total:
 * wall-time:     0 d,  0 h,  0 min,  0.471 sec
 *  cpu-time:     0 d,  0 h,  0 min,  0.440 sec
 * ratio c/w:     0.935 speedup
 SCF:
 * wall-time:     0 d,  0 h,  0 min,  0.119 sec
 *  cpu-time:     0 d,  0 h,  0 min,  0.119 sec
 * ratio c/w:     1.000 speedup
 ANC optimizer:
 * wall-time:     0 d,  0 h,  0 min,  0.305 sec
 *  cpu-time:     0 d,  0 h,  0 min,  0.296 sec
 * ratio c/w:     0.970 speedup

