      -----------------------------------------------------------      
     |                   =====================                   |     
     |                           x T B                           |     
     |                   =====================                   |     
     |                         S. Grimme                         |     
     |          Mulliken Center for Theoretical Chemistry        |     
     |                    University of Bonn                     |     
      -----------------------------------------------------------      

   * xtb version 6.6.1 (8d0f1dd) compiled by 'conda@1efc2f54142f' on 2023-08-01

   xtb is free software: you can redistribute it and/or modify it under
   the terms of the GNU Lesser General Public License as published by
   the Free Software Foundation, either version 3 of the License, or
   (at your option) any later version.
   
   xtb is distributed in the hope that it will be useful,
   but WITHOUT ANY WARRANTY; without even the implied warranty of
   MERCHANTABILITY or FITNESS FOR A PARTICULAR PURPOSE.  See the
   GNU Lesser General Public License for more details.
   
   Cite this work as:
   * C. Bannwarth, E. Caldeweyher, S. Ehlert, A. Hansen, P. Pracht,
     J. Seibert, S. Spicher, S. Grimme, WIREs Comput. Mol. Sci., 2020, 11,
     e01493. DOI: 10.1002/wcms.1493
   
   for GFN2-xTB:
   * C. Bannwarth, S. Ehlert and S. Grimme., J. Chem. Theory Comput., 2019,
     15, 1652-1671. DOI: 10.1021/acs.jctc.8b01176
   for GFN1-xTB:
   * S. Grimme, C. Bannwarth, P. Shushkov, J. Chem. Theory Comput., 2017,
     13, 1989-2009. DOI: 10.1021/acs.jctc.7b00118
   for GFN0-xTB:
   * P. Pracht, E. Caldeweyher, S. Ehlert, S. Grimme, ChemRxiv, 2019, preprint.
     DOI: 10.26434/chemrxiv.8326202.v1
   for GFN-FF:
   * S. Spicher and S. Grimme, Angew. Chem. Int. Ed., 2020, 59, 15665-15673.
     DOI: 10.1002/anie.202004239
   
   for ALPB and GBSA implicit solvation:
   * S. Ehlert, M. Stahn, S. Spicher, S. Grimme, J. Chem. Theory Comput.,
     2021, 17, 4250-4261. DOI: 10.1021/acs.jctc.1c00471
   
   for DFT-D4:
   * E. Caldeweyher, C. Bannwarth and S. Grimme, J. Chem. Phys., 2017,
     147, 034112. DOI: 10.1063/1.4993215
   * E. Caldeweyher, S. Ehlert, A. Hansen, H. Neugebauer, S. Spicher,
     C. Bannwarth and S. Grimme, J. Chem. Phys., 2019, 150, 154122.
     DOI: 10.1063/1.5090222
   * E. Caldeweyher, J.-M. Mewes, S. Ehlert and S. Grimme, Phys. Chem. Chem. Phys.
     2020, 22, 8499-8512. DOI: 10.1039/D0CP00502A
   
   for sTDA-xTB:
   * S. Grimme and C. Bannwarth, J. Chem. Phys., 2016, 145, 054103.
     DOI: 10.1063/1.4959605
   
   in the mass-spec context:
   * V. Asgeirsson, C. Bauer and S. Grimme, Chem. Sci., 2017, 8, 4879.
     DOI: 10.1039/c7sc00601b
   * J. Koopman and S. Grimme, ACS Omega 2019, 4, 12, 15120-15133.
     DOI: 10.1021/acsomega.9b02011
   
   for metadynamics refer to:
   * S. Grimme, J. Chem. Theory Comput., 2019, 155, 2847-2862
     DOI: 10.1021/acs.jctc.9b00143
   
   for SPH calculations refer to:
   * S. Spicher and S. Grimme, J. Chem. Theory Comput., 2021, 17, 1701-1714
     DOI: 10.1021/acs.jctc.0c01306
   
   with help from (in alphabetical order)
   P. Atkinson, C. Bannwarth, F. Bohle, G. Brandenburg, E. Caldeweyher
   M. Checinski, S. Dohm, S. Ehlert, S. Ehrlich, I. Gerasimov, C. Hölzer
   A. Katbashev, J. Koopman, C. Lavigne, S. Lehtola, F. März, M. Müller,
   F. Musil, H. Neugebauer, J. Pisarek, C. Plett, P. Pracht, F. Pultar,
   J. Seibert, P. Shushkov, S. Spicher, M. Stahn, M. Steiner, T. Strunk,
   J. Stückrath, T. Rose, and J. Unsleber
   
 * started run on 2024/06/05 at 19:59:14.826     

           -------------------------------------------------
          |                Calculation Setup                |
           -------------------------------------------------

          program call               : xtb struc.xyz --opt loose --input .xc1 --gfn2
          hostname                   : n-62-31-11
          coordinate file            : struc.xyz
          omp threads                :                     1

   ID    Z sym.   atoms
    1    6 C      1, 3, 5-7, 10, 11, 14
    2    7 N      2, 4, 9, 13
    3    8 O      8, 12
    4    1 H      15-25
constraining bond 8 9 to    4.6800000 Å, actual value:    2.2895399 Å

           -------------------------------------------------
          |                 G F N 2 - x T B                 |
           -------------------------------------------------

        Reference                      10.1021/acs.jctc.8b01176
      * Hamiltonian:
        H0-scaling (s, p, d)           1.850000    2.230000    2.230000
        zeta-weighting                 0.500000
      * Dispersion:
        s8                             2.700000
        a1                             0.520000
        a2                             5.000000
        s9                             5.000000
      * Repulsion:
        kExp                           1.500000    1.000000
        rExp                           1.000000
      * Coulomb:
        alpha                          2.000000
        third order                    shell-resolved
        anisotropic                    true
        a3                             3.000000
        a5                             4.000000
        cn-shift                       1.200000
        cn-exp                         4.000000
        max-rad                        5.000000


          ...................................................
          :                      SETUP                      :
          :.................................................:
          :  # basis functions                  67          :
          :  # atomic orbitals                  67          :
          :  # shells                           39          :
          :  # electrons                        74          :
          :  max. iterations                   250          :
          :  Hamiltonian                  GFN2-xTB          :
          :  restarted?                      false          :
          :  GBSA solvation                  false          :
          :  PC potential                    false          :
          :  electronic temp.         5000.0000000     K    :
          :  accuracy                    1.0000000          :
          :  -> integral cutoff          0.2500000E+02      :
          :  -> integral neglect         0.1000000E-07      :
          :  -> SCF convergence          0.1000000E-05 Eh   :
          :  -> wf. convergence          0.1000000E-03 e    :
          :  Broyden damping             0.4000000          :
          ...................................................

 iter      E             dE          RMSdq      gap      omega  full diag
   1    -42.5894031 -0.425894E+02  0.445E+00    3.52       0.0  T
   2    -42.7683054 -0.178902E+00  0.251E+00    3.36       1.0  T
   3    -42.7759211 -0.761567E-02  0.147E+00    3.35       1.0  T
   4    -42.7728404  0.308066E-02  0.553E-01    3.33       1.0  T
   5    -42.7789548 -0.611444E-02  0.112E-01    3.35       1.0  T
   6    -42.7790473 -0.924914E-04  0.614E-02    3.33       1.0  T
   7    -42.7790721 -0.247928E-04  0.258E-02    3.34       1.0  T
   8    -42.7790772 -0.508996E-05  0.938E-03    3.34       2.1  T
   9    -42.7790779 -0.669422E-06  0.448E-03    3.34       4.5  T
  10    -42.7790780 -0.821510E-07  0.115E-03    3.34      17.4  T
  11    -42.7790780 -0.322663E-08  0.553E-04    3.34      36.2  T
  12    -42.7790780 -0.287051E-08  0.180E-04    3.34     111.1  T

   *** convergence criteria satisfied after 12 iterations ***

         #    Occupation            Energy/Eh            Energy/eV
      -------------------------------------------------------------
         1        2.0000           -0.9185990             -24.9964
       ...           ...                  ...                  ...
        31        1.9996           -0.6230278             -16.9534
        32        1.9995           -0.6194601             -16.8564
        33        1.9979           -0.5974976             -16.2587
        34        1.9932           -0.5789629             -15.7544
        35        1.9817           -0.5631863             -15.3251
        36        1.9779           -0.5602245             -15.2445
        37        1.9748           -0.5581234             -15.1873 (HOMO)
        38        0.0652           -0.4353579             -11.8467 (LUMO)
        39        0.0099           -0.4050467             -11.0219
        40        0.0013           -0.3732218             -10.1559
        41        0.0000           -0.2886859              -7.8555
        42                         -0.2065804              -5.6213
       ...                                ...                  ...
        67                          0.5625656              15.3082
      -------------------------------------------------------------
                  HL-Gap            0.1227656 Eh            3.3406 eV
             Fermi-level           -0.4890455 Eh          -13.3076 eV

 SCC (total)                   0 d,  0 h,  0 min,  0.036 sec
 SCC setup                      ...        0 min,  0.000 sec (  0.749%)
 Dispersion                     ...        0 min,  0.000 sec (  0.820%)
 classical contributions        ...        0 min,  0.000 sec (  0.237%)
 integral evaluation            ...        0 min,  0.005 sec ( 13.884%)
 iterations                     ...        0 min,  0.017 sec ( 47.624%)
 molecular gradient             ...        0 min,  0.013 sec ( 36.230%)
 printout                       ...        0 min,  0.000 sec (  0.425%)

         :::::::::::::::::::::::::::::::::::::::::::::::::::::
         ::                     SUMMARY                     ::
         :::::::::::::::::::::::::::::::::::::::::::::::::::::
         :: total energy             -21.841727818481 Eh    ::
         :: gradient norm             12.779253649614 Eh/a0 ::
         :: HOMO-LUMO gap              3.340621582928 eV    ::
         ::.................................................::
         :: SCC energy               -42.779077977399 Eh    ::
         :: -> isotropic ES            0.141123876439 Eh    ::
         :: -> anisotropic ES         -0.005230418907 Eh    ::
         :: -> anisotropic XC          0.011966818540 Eh    ::
         :: -> dispersion             -0.022657731803 Eh    ::
         :: repulsion energy           0.531105277918 Eh    ::
         :: add. restraining          20.406130721990 Eh    ::
         :: total charge               1.000000000002 e     ::
         :::::::::::::::::::::::::::::::::::::::::::::::::::::

      ----------------------------------------------------------- 
     |                   =====================                   |
     |                        A N C O P T                        |
     |                   =====================                   |
     |               Approximate Normal Coordinate               |
     |                Rational Function Optimizer                |
      ----------------------------------------------------------- 

          ...................................................
          :                      SETUP                      :
          :.................................................:
          :   optimization level             loose          :
          :   max. optcycles                   200          :
          :   ANC micro-cycles                  20          :
          :   degrees of freedom                69          :
          :.................................................:
          :   RF solver                   davidson          :
          :   write xtbopt.log                true          :
          :   linear?                        false          :
          :   energy convergence         0.5000000E-04 Eh   :
          :   grad. convergence          0.4000000E-02 Eh/α :
          :   maxmium RF displ.          1.0000000          :
          :   Hlow (freq-cutoff)         0.1000000E-01      :
          :   Hmax (freq-cutoff)         5.0000000          :
          :   S6 in model hess.         20.0000000          :
          ...................................................

generating ANC from model Hessian ...
Using Lindh-Hessian (1995)
 Shifting diagonal of input Hessian by    3.9785371119326611     
 Lowest  eigenvalues of input Hessian
    0.010000    0.439873    0.000000    0.000000    0.000000    0.000000
    0.000000    0.000000    3.981277    3.982983    3.986483    3.987459
    3.988620    3.990122    3.990410    3.996802    3.999376    4.003611
 Highest eigenvalues
    6.127035    6.188091    6.244686    6.365094    6.491339    9.112514


........................................................................
.............................. CYCLE    1 ..............................
........................................................................

 iter      E             dE          RMSdq      gap      omega  full diag
   1    -42.7790780 -0.427791E+02  0.626E-05    3.34       0.0  T
   2    -42.7790780 -0.124416E-10  0.329E-05    3.34     607.4  T
   3    -42.7790780  0.127898E-12  0.193E-05    3.34    1034.2  T
     SCC iter.                  ...        0 min,  0.005 sec
     gradient                   ...        0 min,  0.014 sec
 * total energy  :   -21.8417278 Eh     change       -0.6650680E-10 Eh
   gradient norm :    12.7792534 Eh/α   predicted     0.0000000E+00 (-100.00%)
   displ. norm   :     0.8235436 α      lambda       -0.1052352E+02
   maximum displ.:     0.8123641 α      in ANC's #51, #62, #40, ...

........................................................................
.............................. CYCLE    2 ..............................
........................................................................

 iter      E             dE          RMSdq      gap      omega  full diag
   1    -42.5881910 -0.425882E+02  0.148E+00    2.01       0.0  T
   2    -42.5884802 -0.289170E-03  0.146E+00    2.35       1.0  T
   3    -42.6359630 -0.474828E-01  0.530E-01    2.09       1.0  T
   4    -42.6338287  0.213428E-02  0.375E-01    2.23       1.0  T
   5    -42.6362756 -0.244685E-02  0.137E-01    2.13       1.0  T
   6    -42.6366196 -0.344038E-03  0.433E-02    2.13       1.0  T
   7    -42.6366463 -0.266455E-04  0.237E-02    2.13       1.0  T
   8    -42.6366502 -0.398170E-05  0.996E-03    2.13       2.0  T
   9    -42.6366516 -0.131748E-05  0.438E-03    2.13       4.6  T
  10    -42.6366517 -0.198839E-06  0.225E-03    2.13       8.9  T
  11    -42.6366518 -0.579839E-07  0.658E-04    2.13      30.4  T
  12    -42.6366518 -0.553542E-08  0.269E-04    2.13      74.5  T
     SCC iter.                  ...        0 min,  0.016 sec
     gradient                   ...        0 min,  0.013 sec
 * total energy  :   -30.8104994 Eh     change       -0.8968772E+01 Eh
   gradient norm :     9.0221405 Eh/α   predicted    -0.8830725E+01 (  -1.54%)
   displ. norm   :     0.7834275 α      lambda       -0.7049374E+01
   maximum displ.:     0.7595526 α      in ANC's #51, #62, #40, ...

........................................................................
.............................. CYCLE    3 ..............................
........................................................................

 iter      E             dE          RMSdq      gap      omega  full diag
   1    -42.2545298 -0.422545E+02  0.219E+00    0.94       0.0  T
   2    -41.8849961  0.369534E+00  0.361E+00    1.98       1.0  T
   3    -42.4142436 -0.529247E+00  0.118E+00    1.11       1.0  T
   4    -42.4430146 -0.287711E-01  0.801E-01    1.47       1.0  T
   5    -42.4493607 -0.634610E-02  0.437E-01    1.30       1.0  T
   6    -42.4505396 -0.117884E-02  0.235E-01    1.35       1.0  T
   7    -42.4521152 -0.157560E-02  0.586E-02    1.31       1.0  T
   8    -42.4521924 -0.772303E-04  0.232E-02    1.30       1.0  T
   9    -42.4521945 -0.205494E-05  0.145E-02    1.30       1.4  T
  10    -42.4521972 -0.276720E-05  0.426E-03    1.30       4.7  T
  11    -42.4521976 -0.336297E-06  0.192E-03    1.30      10.4  T
  12    -42.4521976 -0.356715E-07  0.421E-04    1.30      47.5  T
  13    -42.4521976 -0.222359E-08  0.239E-04    1.30      83.6  T
     SCC iter.                  ...        0 min,  0.018 sec
     gradient                   ...        0 min,  0.013 sec
 * total energy  :   -36.5213242 Eh     change       -0.5710825E+01 Eh
   gradient norm :     5.6971823 Eh/α   predicted    -0.5693175E+01 (  -0.31%)
   displ. norm   :     0.7752147 α      lambda       -0.4318444E+01
   maximum displ.:     0.6394775 α      in ANC's #51, #2, #62, ...

........................................................................
.............................. CYCLE    4 ..............................
........................................................................

 iter      E             dE          RMSdq      gap      omega  full diag
   1    -42.2001430 -0.422001E+02  0.167E+00    0.73       0.0  T
   2    -41.9567006  0.243442E+00  0.278E+00    1.31       1.0  T
   3    -42.2065614 -0.249861E+00  0.165E+00    0.40       1.0  T
   4    -42.2855503 -0.789889E-01  0.967E-01    1.10       1.0  T
   5    -42.3029066 -0.173562E-01  0.584E-01    0.96       1.0  T
   6    -42.3069919 -0.408532E-02  0.281E-01    0.93       1.0  T
   7    -42.3094013 -0.240944E-02  0.109E-01    0.90       1.0  T
   8    -42.3097760 -0.374637E-03  0.359E-02    0.88       1.0  T
   9    -42.3097933 -0.173338E-04  0.171E-02    0.87       1.2  T
  10    -42.3097964 -0.313604E-05  0.663E-03    0.87       3.0  T
  11    -42.3097969 -0.481072E-06  0.243E-03    0.87       8.2  T
  12    -42.3097969  0.363830E-07  0.178E-03    0.87      11.3  T
  13    -42.3097969 -0.805207E-07  0.724E-04    0.87      27.6  T
  14    -42.3097970 -0.174357E-07  0.158E-04    0.87     126.7  T
     SCC iter.                  ...        0 min,  0.019 sec
     gradient                   ...        0 min,  0.013 sec
 * total energy  :   -39.9664519 Eh     change       -0.3445128E+01 Eh
   gradient norm :     3.3480807 Eh/α   predicted    -0.3456881E+01 (   0.34%)
   displ. norm   :     0.6570071 α      lambda       -0.2156087E+01
   maximum displ.:     0.5521334 α      in ANC's #51, #2, #62, ...

........................................................................
.............................. CYCLE    5 ..............................
........................................................................

 iter      E             dE          RMSdq      gap      omega  full diag
   1    -42.2134330 -0.422134E+02  0.103E+00    0.45       0.0  T
   2    -42.1195103  0.939227E-01  0.165E+00    0.99       1.0  T
   3    -42.1589337 -0.394234E-01  0.132E+00    0.17       1.0  T
   4    -42.2184487 -0.595149E-01  0.503E-01    0.67       1.0  T
   5    -42.2256500 -0.720128E-02  0.257E-01    0.55       1.0  T
   6    -42.2269513 -0.130131E-02  0.870E-02    0.55       1.0  T
   7    -42.2271407 -0.189428E-03  0.445E-02    0.54       1.0  T
   8    -42.2271708 -0.300995E-04  0.258E-02    0.54       1.0  T
   9    -42.2271855 -0.147541E-04  0.898E-03    0.53       2.2  T
  10    -42.2271881 -0.254687E-05  0.197E-03    0.53      10.1  T
  11    -42.2271881 -0.147218E-07  0.655E-04    0.53      30.5  T
  12    -42.2271881 -0.376592E-08  0.251E-04    0.53      79.6  T
     SCC iter.                  ...        0 min,  0.016 sec
     gradient                   ...        0 min,  0.013 sec
 * total energy  :   -41.4385631 Eh     change       -0.1472111E+01 Eh
   gradient norm :     1.1656783 Eh/α   predicted    -0.1543458E+01 (   4.85%)
   displ. norm   :     0.3527457 α      lambda       -0.3814993E+00
   maximum displ.:     0.2535802 α      in ANC's #51, #2, #48, ...

........................................................................
.............................. CYCLE    6 ..............................
........................................................................

 iter      E             dE          RMSdq      gap      omega  full diag
   1    -42.1725019 -0.421725E+02  0.732E-01    0.23       0.0  T
   2    -42.0692967  0.103205E+00  0.160E+00    0.94       1.0  T
   3    -42.1446117 -0.753150E-01  0.977E-01    0.13       1.0  T
   4    -42.1826515 -0.380398E-01  0.238E-01    0.39       1.0  T
   5    -42.1834288 -0.777309E-03  0.126E-01    0.39       1.0  T
   6    -42.1839404 -0.511595E-03  0.337E-02    0.36       1.0  T
   7    -42.1839694 -0.289543E-04  0.146E-02    0.37       1.4  T
   8    -42.1839704 -0.989266E-06  0.917E-03    0.37       2.2  T
   9    -42.1839713 -0.973661E-06  0.480E-03    0.37       4.2  T
  10    -42.1839722 -0.847336E-06  0.103E-03    0.37      19.5  T
  11    -42.1839722 -0.751824E-08  0.458E-04    0.37      43.6  T
  12    -42.1839722 -0.324265E-08  0.175E-04    0.37     114.4  T
     SCC iter.                  ...        0 min,  0.016 sec
     gradient                   ...        0 min,  0.013 sec
 * total energy  :   -41.6422626 Eh     change       -0.2036995E+00 Eh
   gradient norm :     0.2442172 Eh/α   predicted    -0.2144895E+00 (   5.30%)
   displ. norm   :     0.1672879 α      lambda       -0.1786553E-01
   maximum displ.:     0.1324942 α      in ANC's #1, #2, #40, ...

........................................................................
.............................. CYCLE    7 ..............................
........................................................................

 iter      E             dE          RMSdq      gap      omega  full diag
   1    -42.1810802 -0.421811E+02  0.215E-01    0.29       0.0  T
   2    -42.1758715  0.520873E-02  0.394E-01    0.44       1.0  T
   3    -42.1798254 -0.395396E-02  0.245E-01    0.27       1.0  T
   4    -42.1814408 -0.161542E-02  0.125E-01    0.34       1.0  T
   5    -42.1817555 -0.314603E-03  0.615E-02    0.33       1.0  T
   6    -42.1818861 -0.130606E-03  0.151E-02    0.32       1.3  T
   7    -42.1818890 -0.290958E-05  0.865E-03    0.32       2.3  T
   8    -42.1818900 -0.104081E-05  0.303E-03    0.32       6.6  T
   9    -42.1818901 -0.759505E-07  0.124E-03    0.32      16.1  T
  10    -42.1818901 -0.407589E-08  0.583E-04    0.32      34.3  T
  11    -42.1818901 -0.223008E-08  0.243E-04    0.32      82.3  T
     SCC iter.                  ...        0 min,  0.015 sec
     gradient                   ...        0 min,  0.013 sec
 * total energy  :   -41.6573387 Eh     change       -0.1507609E-01 Eh
   gradient norm :     0.2030329 Eh/α   predicted    -0.9182675E-02 ( -39.09%)
   displ. norm   :     0.4864596 α      lambda       -0.3782491E-01
   maximum displ.:     0.4376487 α      in ANC's #1, #2, #40, ...

........................................................................
.............................. CYCLE    8 ..............................
........................................................................

 iter      E             dE          RMSdq      gap      omega  full diag
   1    -42.1662588 -0.421663E+02  0.693E-01    0.10       0.0  T
   2    -42.0795336  0.867253E-01  0.154E+00    0.79       1.0  T
   3    -42.1633020 -0.837684E-01  0.736E-01    0.13       1.0  T
   4    -42.1750351 -0.117331E-01  0.423E-01    0.33       1.0  T
   5    -42.1792142 -0.417918E-02  0.184E-01    0.25       1.0  T
   6    -42.1801220 -0.907750E-03  0.711E-02    0.22       1.0  T
   7    -42.1803183 -0.196257E-03  0.228E-02    0.24       1.0  T
   8    -42.1803238 -0.558807E-05  0.128E-02    0.24       1.6  T
   9    -42.1803267 -0.290112E-05  0.394E-03    0.24       5.1  T
  10    -42.1803268 -0.660703E-07  0.230E-03    0.24       8.7  T
  11    -42.1803269 -0.775416E-07  0.784E-04    0.24      25.5  T
  12    -42.1803269 -0.232331E-08  0.374E-04    0.24      53.4  T
     SCC iter.                  ...        0 min,  0.016 sec
     gradient                   ...        0 min,  0.013 sec
 * total energy  :   -41.6825426 Eh     change       -0.2520391E-01 Eh
   gradient norm :     0.2155660 Eh/α   predicted    -0.2338801E-01 (  -7.20%)
   displ. norm   :     0.2403342 α      lambda       -0.2339357E-01
   maximum displ.:     0.1601209 α      in ANC's #1, #40, #62, ...

........................................................................
.............................. CYCLE    9 ..............................
........................................................................

 iter      E             dE          RMSdq      gap      omega  full diag
   1    -42.1910675 -0.421911E+02  0.452E-01    0.24       0.0  T
   2    -42.1883386  0.272885E-02  0.441E-01    0.37       1.0  T
   3    -42.1731408  0.151979E-01  0.680E-01    0.09       1.0  T
   4    -42.1899995 -0.168588E-01  0.310E-01    0.34       1.0  T
   5    -42.1927326 -0.273304E-02  0.164E-01    0.29       1.0  T
   6    -42.1936182 -0.885642E-03  0.313E-02    0.26       1.0  T
   7    -42.1936283 -0.100867E-04  0.181E-02    0.26       1.1  T
   8    -42.1936336 -0.528551E-05  0.601E-03    0.26       3.3  T
   9    -42.1936340 -0.387385E-06  0.325E-03    0.26       6.1  T
  10    -42.1936342 -0.197221E-06  0.137E-03    0.26      14.6  T
  11    -42.1936342 -0.922915E-08  0.713E-04    0.26      28.0  T
  12    -42.1936342 -0.127672E-07  0.269E-04    0.26      74.3  T
     SCC iter.                  ...        0 min,  0.016 sec
     gradient                   ...        0 min,  0.013 sec
 * total energy  :   -41.6966793 Eh     change       -0.1413675E-01 Eh
   gradient norm :     0.1448814 Eh/α   predicted    -0.1237250E-01 ( -12.48%)
   displ. norm   :     0.4263875 α      lambda       -0.1736239E-01
   maximum displ.:     0.3830620 α      in ANC's #1, #40, #31, ...

........................................................................
.............................. CYCLE   10 ..............................
........................................................................

 iter      E             dE          RMSdq      gap      omega  full diag
   1    -42.1539853 -0.421540E+02  0.805E-01    0.09       0.0  T
   2    -41.9691780  0.184807E+00  0.214E+00    1.07       1.0  T
   3    -42.1695536 -0.200376E+00  0.784E-01    0.21       1.0  T
   4    -42.1809576 -0.114040E-01  0.534E-01    0.39       1.0  T
   5    -42.1904498 -0.949213E-02  0.209E-01    0.26       1.0  T
   6    -42.1897409  0.708907E-03  0.188E-01    0.20       1.0  T
   7    -42.1915616 -0.182076E-02  0.339E-02    0.25       1.0  T
   8    -42.1916097 -0.481139E-04  0.118E-02    0.26       1.7  T
   9    -42.1916103 -0.576443E-06  0.695E-03    0.25       2.9  T
  10    -42.1916110 -0.687545E-06  0.338E-03    0.26       5.9  T
  11    -42.1916114 -0.358477E-06  0.142E-03    0.26      14.1  T
  12    -42.1916114 -0.378779E-07  0.600E-04    0.26      33.3  T
  13    -42.1916114 -0.669868E-08  0.308E-04    0.26      64.9  T
     SCC iter.                  ...        0 min,  0.017 sec
     gradient                   ...        0 min,  0.013 sec
 * total energy  :   -41.7079418 Eh     change       -0.1126249E-01 Eh
   gradient norm :     0.1666479 Eh/α   predicted    -0.1025953E-01 (  -8.91%)
   displ. norm   :     0.1965733 α      lambda       -0.1319866E-01
   maximum displ.:     0.0955988 α      in ANC's #40, #1, #31, ...

........................................................................
.............................. CYCLE   11 ..............................
........................................................................

 iter      E             dE          RMSdq      gap      omega  full diag
   1    -42.2019199 -0.422019E+02  0.386E-01    0.28       0.0  T
   2    -42.1875098  0.144100E-01  0.625E-01    0.48       1.0  T
   3    -42.1981065 -0.105967E-01  0.424E-01    0.19       1.0  T
   4    -42.2019304 -0.382384E-02  0.290E-01    0.36       1.0  T
   5    -42.2045838 -0.265348E-02  0.142E-01    0.33       1.0  T
   6    -42.2052964 -0.712518E-03  0.222E-02    0.30       1.0  T
   7    -42.2053024 -0.603828E-05  0.162E-02    0.30       1.2  T
   8    -42.2053100 -0.763511E-05  0.579E-03    0.30       3.5  T
   9    -42.2053107 -0.629894E-06  0.251E-03    0.30       8.0  T
  10    -42.2053108 -0.160400E-06  0.133E-03    0.30      15.0  T
  11    -42.2053108 -0.136567E-07  0.805E-04    0.30      24.8  T
  12    -42.2053109 -0.224479E-07  0.274E-04    0.30      73.0  T
     SCC iter.                  ...        0 min,  0.016 sec
     gradient                   ...        0 min,  0.013 sec
 * total energy  :   -41.7172282 Eh     change       -0.9286323E-02 Eh
   gradient norm :     0.1664471 Eh/α   predicted    -0.6854862E-02 ( -26.18%)
   displ. norm   :     0.3189695 α      lambda       -0.1890688E-01
   maximum displ.:     0.1853416 α      in ANC's #1, #40, #31, ...

........................................................................
.............................. CYCLE   12 ..............................
........................................................................

 iter      E             dE          RMSdq      gap      omega  full diag
   1    -42.1739219 -0.421739E+02  0.795E-01    0.20       0.0  T
   2    -42.0103881  0.163534E+00  0.193E+00    0.95       1.0  T
   3    -42.1890191 -0.178631E+00  0.714E-01    0.22       1.0  T
   4    -42.2005730 -0.115540E-01  0.465E-01    0.45       1.0  T
   5    -42.2082291 -0.765610E-02  0.173E-01    0.34       1.0  T
   6    -42.2080172  0.211907E-03  0.134E-01    0.30       1.0  T
   7    -42.2090221 -0.100486E-02  0.204E-02    0.33       1.0  T
   8    -42.2090335 -0.114647E-04  0.104E-02    0.33       1.9  T
   9    -42.2090338 -0.221131E-06  0.742E-03    0.33       2.7  T
  10    -42.2090359 -0.213779E-05  0.180E-03    0.33      11.1  T
  11    -42.2090360 -0.630215E-07  0.836E-04    0.33      23.9  T
  12    -42.2090360 -0.208749E-08  0.556E-04    0.33      36.0  T
     SCC iter.                  ...        0 min,  0.016 sec
     gradient                   ...        0 min,  0.013 sec
 * total energy  :   -41.7331364 Eh     change       -0.1590829E-01 Eh
   gradient norm :     0.1766102 Eh/α   predicted    -0.1041659E-01 ( -34.52%)
   displ. norm   :     0.4859716 α      lambda       -0.4117656E-01
   maximum displ.:     0.2290758 α      in ANC's #40, #22, #31, ...

........................................................................
.............................. CYCLE   13 ..............................
........................................................................

 iter      E             dE          RMSdq      gap      omega  full diag
   1    -42.1502317 -0.421502E+02  0.124E+00    0.09       0.0  T
   2    -41.7923047  0.357927E+00  0.275E+00    0.75       1.0  T
   3    -42.2132275 -0.420923E+00  0.550E-01    0.27       1.0  T
   4    -42.2007242  0.125033E-01  0.728E-01    0.60       1.0  T
   5    -42.2197746 -0.190504E-01  0.237E-01    0.36       1.0  T
   6    -42.2200909 -0.316380E-03  0.143E-01    0.36       1.0  T
   7    -42.2211531 -0.106218E-02  0.344E-02    0.38       1.0  T
   8    -42.2211897 -0.365364E-04  0.125E-02    0.38       1.6  T
   9    -42.2211905 -0.877565E-06  0.723E-03    0.38       2.8  T
  10    -42.2211920 -0.143117E-05  0.246E-03    0.38       8.1  T
  11    -42.2211922 -0.265790E-06  0.918E-04    0.38      21.8  T
  12    -42.2211922  0.538715E-08  0.674E-04    0.38      29.7  T
     SCC iter.                  ...        0 min,  0.016 sec
     gradient                   ...        0 min,  0.013 sec
 * total energy  :   -41.7667897 Eh     change       -0.3365328E-01 Eh
   gradient norm :     0.1860736 Eh/α   predicted    -0.2545062E-01 ( -24.37%)
   displ. norm   :     0.5488818 α      lambda       -0.4602889E-01
   maximum displ.:     0.2286935 α      in ANC's #40, #22, #1, ...

........................................................................
.............................. CYCLE   14 ..............................
........................................................................

 iter      E             dE          RMSdq      gap      omega  full diag
   1    -42.1531593 -0.421532E+02  0.136E+00    0.33       0.0  T
   2    -41.6935094  0.459650E+00  0.315E+00    0.51       1.0  T
   3    -42.2275139 -0.534004E+00  0.384E-01    0.28       1.0  T
   4    -42.2245836  0.293024E-02  0.358E-01    0.44       1.0  T
   5    -42.2194220  0.516160E-02  0.463E-01    0.23       1.0  T
   6    -42.2263392 -0.691715E-02  0.202E-01    0.27       1.0  T
   7    -42.2283069 -0.196769E-02  0.367E-02    0.30       1.0  T
   8    -42.2283450 -0.381494E-04  0.188E-02    0.32       1.1  T
   9    -42.2283511 -0.606914E-05  0.664E-03    0.32       3.0  T
  10    -42.2283519 -0.827682E-06  0.264E-03    0.32       7.6  T
  11    -42.2283520 -0.530867E-07  0.176E-03    0.32      11.4  T
  12    -42.2283520  0.151214E-07  0.116E-03    0.32      17.3  T
  13    -42.2283520 -0.618878E-07  0.216E-04    0.32      92.6  T
  14    -42.2283520  0.198540E-09  0.165E-04    0.32     120.9  T
     SCC iter.                  ...        0 min,  0.019 sec
     gradient                   ...        0 min,  0.013 sec
 * total energy  :   -41.8011739 Eh     change       -0.3438415E-01 Eh
   gradient norm :     0.1663012 Eh/α   predicted    -0.2994770E-01 ( -12.90%)
   displ. norm   :     0.4530320 α      lambda       -0.2942491E-01
   maximum displ.:     0.2032991 α      in ANC's #2, #40, #22, ...

........................................................................
.............................. CYCLE   15 ..............................
........................................................................

 iter      E             dE          RMSdq      gap      omega  full diag
   1    -42.2269088 -0.422269E+02  0.934E-01    0.24       0.0  T
   2    -42.0042947  0.222614E+00  0.214E+00    0.93       1.0  T
   3    -42.2492990 -0.245004E+00  0.399E-01    0.06       1.0  T
   4    -42.2528605 -0.356145E-02  0.237E-01    0.24       1.0  T
   5    -42.2527272  0.133292E-03  0.205E-01    0.18       1.0  T
   6    -42.2541200 -0.139276E-02  0.926E-02    0.16       1.0  T
   7    -42.2544017 -0.281745E-03  0.295E-02    0.15       1.0  T
   8    -42.2544345 -0.327701E-04  0.106E-02    0.17       1.9  T
   9    -42.2544351 -0.659052E-06  0.553E-03    0.17       3.6  T
  10    -42.2544353 -0.211390E-06  0.348E-03    0.17       5.8  T
  11    -42.2544356 -0.280203E-06  0.180E-03    0.17      11.1  T
  12    -42.2544357 -0.919074E-07  0.648E-04    0.17      30.9  T
  13    -42.2544357 -0.108643E-07  0.305E-04    0.17      65.5  T
     SCC iter.                  ...        0 min,  0.017 sec
     gradient                   ...        0 min,  0.013 sec
 * total energy  :   -41.8181411 Eh     change       -0.1696723E-01 Eh
   gradient norm :     0.2019043 Eh/α   predicted    -0.1773219E-01 (   4.51%)
   displ. norm   :     0.2340486 α      lambda       -0.1560713E-01
   maximum displ.:     0.1438908 α      in ANC's #1, #2, #40, ...

........................................................................
.............................. CYCLE   16 ..............................
........................................................................

 iter      E             dE          RMSdq      gap      omega  full diag
   1    -42.2420089 -0.422420E+02  0.445E-01    0.19       0.0  T
   2    -42.1282594  0.113749E+00  0.150E+00    0.68       1.0  T
   3    -42.2514881 -0.123229E+00  0.202E-01    0.15       1.0  T
   4    -42.2519744 -0.486370E-03  0.119E-01    0.12       1.0  T
   5    -42.2517004  0.274015E-03  0.131E-01    0.10       1.0  T
   6    -42.2523582 -0.657802E-03  0.251E-02    0.10       1.0  T
   7    -42.2523797 -0.214545E-04  0.127E-02    0.09       1.6  T
   8    -42.2523814 -0.175846E-05  0.771E-03    0.09       2.6  T
   9    -42.2523826 -0.115965E-05  0.276E-03    0.10       7.3  T
  10    -42.2523826  0.126919E-07  0.222E-03    0.10       9.0  T
  11    -42.2523827 -0.114278E-06  0.705E-04    0.10      28.4  T
  12    -42.2523827 -0.476418E-08  0.403E-04    0.10      49.6  T
     SCC iter.                  ...        0 min,  0.016 sec
     gradient                   ...        0 min,  0.013 sec
 * total energy  :   -41.8275520 Eh     change       -0.9410903E-02 Eh
   gradient norm :     0.1782893 Eh/α   predicted    -0.8232721E-02 ( -12.52%)
   displ. norm   :     0.2272126 α      lambda       -0.1989808E-01
   maximum displ.:     0.1172768 α      in ANC's #1, #31, #2, ...

........................................................................
.............................. CYCLE   17 ..............................
........................................................................

 iter      E             dE          RMSdq      gap      omega  full diag
   1    -42.2716364 -0.422716E+02  0.449E-01    0.21       0.0  T
   2    -42.2278123  0.438241E-01  0.104E+00    0.45       1.0  T
   3    -42.2761215 -0.483092E-01  0.213E-01    0.16       1.0  T
   4    -42.2737825  0.233906E-02  0.285E-01    0.11       1.0  T
   5    -42.2753165 -0.153407E-02  0.221E-01    0.09       1.0  T
   6    -42.2774196 -0.210307E-02  0.312E-02    0.10       1.0  T
   7    -42.2774367 -0.170588E-04  0.131E-02    0.10       1.5  T
   8    -42.2774377 -0.103347E-05  0.106E-02    0.10       1.9  T
   9    -42.2774397 -0.196731E-05  0.538E-03    0.10       3.7  T
  10    -42.2774404 -0.715864E-06  0.220E-03    0.10       9.1  T
  11    -42.2774405 -0.100567E-06  0.103E-03    0.10      19.5  T
  12    -42.2774405 -0.229782E-07  0.342E-04    0.10      58.5  T
  13    -42.2774405 -0.209800E-08  0.989E-05    0.10     202.2  T
     SCC iter.                  ...        0 min,  0.018 sec
     gradient                   ...        0 min,  0.013 sec
 * total energy  :   -41.8412737 Eh     change       -0.1372168E-01 Eh
   gradient norm :     0.1714122 Eh/α   predicted    -0.1046311E-01 ( -23.75%)
   displ. norm   :     0.1526903 α      lambda       -0.1748798E-01
   maximum displ.:     0.0596374 α      in ANC's #31, #42, #61, ...

........................................................................
.............................. CYCLE   18 ..............................
........................................................................

 iter      E             dE          RMSdq      gap      omega  full diag
   1    -42.2980081 -0.422980E+02  0.247E-01    0.09       0.0  T
   2    -42.2971685  0.839626E-03  0.235E-01    0.09       1.0  T
   3    -42.2967857  0.382779E-03  0.204E-01    0.13       1.0  T
   4    -42.2976823 -0.896557E-03  0.156E-01    0.10       1.0  T
   5    -42.2977820 -0.997204E-04  0.135E-01    0.12       1.0  T
   6    -42.2986379 -0.855922E-03  0.228E-02    0.09       1.0  T
   7    -42.2986442 -0.631919E-05  0.169E-02    0.09       1.2  T
   8    -42.2986474 -0.314972E-05  0.103E-02    0.09       2.0  T
   9    -42.2986502 -0.284674E-05  0.370E-03    0.09       5.4  T
  10    -42.2986504 -0.191245E-06  0.199E-03    0.09      10.0  T
  11    -42.2986505 -0.919989E-07  0.648E-04    0.09      30.9  T
  12    -42.2986505 -0.752678E-08  0.236E-04    0.09      84.7  T
     SCC iter.                  ...        0 min,  0.016 sec
     gradient                   ...        0 min,  0.013 sec
 * total energy  :   -41.8560160 Eh     change       -0.1474226E-01 Eh
   gradient norm :     0.1791205 Eh/α   predicted    -0.8947870E-02 ( -39.30%)
   displ. norm   :     0.4908932 α      lambda       -0.5137397E-01
   maximum displ.:     0.1912983 α      in ANC's #40, #68, #61, ...

........................................................................
.............................. CYCLE   19 ..............................
........................................................................

 iter      E             dE          RMSdq      gap      omega  full diag
   1    -42.3316037 -0.423316E+02  0.103E+00    0.51       0.0  T
   2    -42.1208336  0.210770E+00  0.223E+00    0.37       1.0  T
   3    -42.3495196 -0.228686E+00  0.623E-01    0.45       1.0  T
   4    -42.3462780  0.324167E-02  0.588E-01    0.16       1.0  T
   5    -42.3567220 -0.104441E-01  0.361E-01    0.32       1.0  T
   6    -42.3610609 -0.433889E-02  0.647E-02    0.22       1.0  T
   7    -42.3610936 -0.327012E-04  0.428E-02    0.23       1.0  T
   8    -42.3610960 -0.235086E-05  0.326E-02    0.23       1.0  T
   9    -42.3611250 -0.290342E-04  0.117E-02    0.23       1.7  T
  10    -42.3611267 -0.172757E-05  0.640E-03    0.23       3.1  T
  11    -42.3611273 -0.562446E-06  0.267E-03    0.23       7.5  T
  12    -42.3611274 -0.121777E-06  0.114E-03    0.23      17.6  T
  13    -42.3611274 -0.362134E-07  0.551E-04    0.23      36.3  T
  14    -42.3611275 -0.458012E-08  0.164E-04    0.23     121.8  T
     SCC iter.                  ...        0 min,  0.019 sec
     gradient                   ...        0 min,  0.013 sec
 * total energy  :   -41.8967815 Eh     change       -0.4076550E-01 Eh
   gradient norm :     0.1986688 Eh/α   predicted    -0.3187716E-01 ( -21.80%)
   displ. norm   :     0.5937078 α      lambda       -0.5329100E-01
   maximum displ.:     0.2439231 α      in ANC's #40, #68, #61, ...

........................................................................
.............................. CYCLE   20 ..............................
........................................................................

 iter      E             dE          RMSdq      gap      omega  full diag
   1    -42.3053901 -0.423054E+02  0.174E+00    1.18       0.0  T
   2    -41.6364133  0.668977E+00  0.425E+00    0.28       1.0  T
   3    -42.3746855 -0.738272E+00  0.103E+00    0.88       1.0  T
   4    -42.3865991 -0.119135E-01  0.842E-01    0.23       1.0  T
   5    -42.4140523 -0.274532E-01  0.232E-01    0.50       1.0  T
   6    -42.4140373  0.149211E-04  0.101E-01    0.50       1.0  T
   7    -42.4142128 -0.175466E-03  0.380E-02    0.49       1.0  T
   8    -42.4142642 -0.514338E-04  0.175E-02    0.51       1.1  T
   9    -42.4142624  0.188501E-05  0.120E-02    0.51       1.7  T
  10    -42.4142667 -0.430348E-05  0.429E-03    0.51       4.7  T
  11    -42.4142669 -0.270765E-06  0.173E-03    0.51      11.6  T
  12    -42.4142670 -0.198338E-07  0.950E-04    0.51      21.0  T
  13    -42.4142670 -0.133237E-07  0.299E-04    0.51      66.8  T
     SCC iter.                  ...        0 min,  0.017 sec
     gradient                   ...        0 min,  0.013 sec
 * total energy  :   -41.9344445 Eh     change       -0.3766305E-01 Eh
   gradient norm :     0.2261234 Eh/α   predicted    -0.3603769E-01 (  -4.32%)
   displ. norm   :     0.3839486 α      lambda       -0.2756107E-01
   maximum displ.:     0.1741618 α      in ANC's #40, #68, #64, ...
 * RMSD in coord.:     0.9581835 α      energy gain  -0.2009272E+02 Eh

generating ANC from model Hessian ...
Using Lindh-Hessian (1995)
 Shifting diagonal of input Hessian by    1.2839347402171492E-002
 Lowest  eigenvalues of input Hessian
    0.010000    0.000000    0.000000    0.000000    0.000000    0.000000
    0.000000    0.015276    0.015714    0.016995    0.019272    0.021980
    0.025730    0.025848    0.027528    0.028142    0.036797    0.040651
 Highest eigenvalues
    1.907177    1.930740    2.046526    2.176648    2.491272    4.831107


........................................................................
.............................. CYCLE   21 ..............................
........................................................................

 iter      E             dE          RMSdq      gap      omega  full diag
   1    -42.3660452 -0.423660E+02  0.123E+00    1.25       0.0  T
   2    -41.8835817  0.482464E+00  0.348E+00    0.59       1.0  T
   3    -42.4165475 -0.532966E+00  0.667E-01    0.89       1.0  T
   4    -42.4277086 -0.111611E-01  0.410E-01    0.50       1.0  T
   5    -42.4320238 -0.431522E-02  0.203E-01    0.59       1.0  T
   6    -42.4327057 -0.681892E-03  0.794E-02    0.63       1.0  T
   7    -42.4328420 -0.136293E-03  0.284E-02    0.64       1.0  T
   8    -42.4328604 -0.183889E-04  0.184E-02    0.65       1.1  T
   9    -42.4328666 -0.628348E-05  0.681E-03    0.65       2.9  T
  10    -42.4328672 -0.556946E-06  0.258E-03    0.65       7.7  T
  11    -42.4328673 -0.123834E-06  0.144E-03    0.65      13.9  T
  12    -42.4328674 -0.399363E-07  0.517E-04    0.65      38.7  T
  13    -42.4328674 -0.672427E-08  0.191E-04    0.65     104.9  T
     SCC iter.                  ...        0 min,  0.017 sec
     gradient                   ...        0 min,  0.013 sec
 * total energy  :   -41.9504870 Eh     change       -0.1604250E-01 Eh
   gradient norm :     0.2073410 Eh/α   predicted     0.0000000E+00 (-100.00%)
   displ. norm   :     0.4809122 α      lambda       -0.6156135E-01
   maximum displ.:     0.1570404 α      in ANC's #16, #12, #32, ...

........................................................................
.............................. CYCLE   22 ..............................
........................................................................

 iter      E             dE          RMSdq      gap      omega  full diag
   1    -42.4728562 -0.424729E+02  0.497E-01    0.78       0.0  T
   2    -42.4565909  0.162653E-01  0.716E-01    0.38       1.0  T
   3    -42.4737796 -0.171888E-01  0.305E-01    0.81       1.0  T
   4    -42.4748903 -0.111068E-02  0.203E-01    0.60       1.0  T
   5    -42.4754796 -0.589316E-03  0.125E-01    0.69       1.0  T
   6    -42.4760547 -0.575057E-03  0.283E-02    0.68       1.0  T
   7    -42.4760784 -0.237075E-04  0.897E-03    0.69       2.2  T
   8    -42.4760781  0.257398E-06  0.556E-03    0.69       3.6  T
   9    -42.4760789 -0.803127E-06  0.173E-03    0.69      11.6  T
  10    -42.4760790 -0.988746E-08  0.114E-03    0.69      17.5  T
  11    -42.4760790 -0.382703E-07  0.307E-04    0.69      65.1  T
  12    -42.4760790 -0.879211E-09  0.133E-04    0.69     150.3  T
     SCC iter.                  ...        0 min,  0.016 sec
     gradient                   ...        0 min,  0.013 sec
 * total energy  :   -41.9973022 Eh     change       -0.4681522E-01 Eh
   gradient norm :     0.1108631 Eh/α   predicted    -0.3796389E-01 ( -18.91%)
   displ. norm   :     0.5643677 α      lambda       -0.3945147E-01
   maximum displ.:     0.1786983 α      in ANC's #10, #32, #8, ...

........................................................................
.............................. CYCLE   23 ..............................
........................................................................

 iter      E             dE          RMSdq      gap      omega  full diag
   1    -42.5116008 -0.425116E+02  0.687E-01    0.97       0.0  T
   2    -42.4318310  0.797698E-01  0.144E+00    0.20       1.0  T
   3    -42.5203803 -0.885494E-01  0.341E-01    0.88       1.0  T
   4    -42.5203155  0.647902E-04  0.300E-01    0.67       1.0  T
   5    -42.5226165 -0.230096E-02  0.830E-02    0.74       1.0  T
   6    -42.5228137 -0.197213E-03  0.313E-02    0.75       1.0  T
   7    -42.5228444 -0.306837E-04  0.102E-02    0.76       2.0  T
   8    -42.5228438  0.582183E-06  0.700E-03    0.76       2.9  T
   9    -42.5228454 -0.161126E-05  0.226E-03    0.76       8.8  T
  10    -42.5228455 -0.521216E-07  0.123E-03    0.76      16.3  T
  11    -42.5228455 -0.454242E-07  0.386E-04    0.76      51.8  T
  12    -42.5228455 -0.204768E-08  0.135E-04    0.76     148.4  T
     SCC iter.                  ...        0 min,  0.016 sec
     gradient                   ...        0 min,  0.013 sec
 * total energy  :   -42.0250668 Eh     change       -0.2776460E-01 Eh
   gradient norm :     0.0775067 Eh/α   predicted    -0.2600862E-01 (  -6.32%)
   displ. norm   :     0.5295181 α      lambda       -0.1959202E-01
   maximum displ.:     0.2043947 α      in ANC's #12, #10, #8, ...

........................................................................
.............................. CYCLE   24 ..............................
........................................................................

 iter      E             dE          RMSdq      gap      omega  full diag
   1    -42.5398636 -0.425399E+02  0.556E-01    0.89       0.0  T
   2    -42.5128719  0.269917E-01  0.853E-01    0.40       1.0  T
   3    -42.5395992 -0.267273E-01  0.401E-01    0.98       1.0  T
   4    -42.5435940 -0.399475E-02  0.204E-01    0.75       1.0  T
   5    -42.5446195 -0.102552E-02  0.316E-02    0.78       1.0  T
   6    -42.5446368 -0.172910E-04  0.167E-02    0.78       1.2  T
   7    -42.5446396 -0.281565E-05  0.870E-03    0.78       2.3  T
   8    -42.5446406 -0.965587E-06  0.243E-03    0.78       8.2  T
   9    -42.5446406 -0.700727E-07  0.131E-03    0.78      15.3  T
  10    -42.5446406 -0.277090E-08  0.780E-04    0.78      25.6  T
  11    -42.5446407 -0.189527E-07  0.196E-04    0.78     102.2  T
     SCC iter.                  ...        0 min,  0.015 sec
     gradient                   ...        0 min,  0.013 sec
 * total energy  :   -42.0404836 Eh     change       -0.1541680E-01 Eh
   gradient norm :     0.0908482 Eh/α   predicted    -0.1254271E-01 ( -18.64%)
   displ. norm   :     0.5932299 α      lambda       -0.2028142E-01
   maximum displ.:     0.2104516 α      in ANC's #8, #10, #7, ...

........................................................................
.............................. CYCLE   25 ..............................
........................................................................

 iter      E             dE          RMSdq      gap      omega  full diag
   1    -42.5612276 -0.425612E+02  0.732E-01    1.08       0.0  T
   2    -42.4559456  0.105282E+00  0.160E+00    0.25       1.0  T
   3    -42.5679571 -0.112012E+00  0.456E-01    1.05       1.0  T
   4    -42.5731914 -0.523423E-02  0.216E-01    0.87       1.0  T
   5    -42.5741935 -0.100211E-02  0.455E-02    0.82       1.0  T
   6    -42.5742378 -0.443378E-04  0.194E-02    0.83       1.0  T
   7    -42.5742421 -0.432438E-05  0.659E-03    0.83       3.0  T
   8    -42.5742423 -0.207624E-06  0.262E-03    0.83       7.6  T
   9    -42.5742424 -0.111187E-06  0.126E-03    0.83      15.8  T
  10    -42.5742425 -0.388612E-07  0.364E-04    0.83      54.9  T
  11    -42.5742425 -0.123296E-08  0.152E-04    0.83     131.4  T
     SCC iter.                  ...        0 min,  0.015 sec
     gradient                   ...        0 min,  0.013 sec
 * total energy  :   -42.0555498 Eh     change       -0.1506619E-01 Eh
   gradient norm :     0.0825857 Eh/α   predicted    -0.1370945E-01 (  -9.01%)
   displ. norm   :     0.5399278 α      lambda       -0.1687663E-01
   maximum displ.:     0.1900636 α      in ANC's #8, #7, #1, ...

........................................................................
.............................. CYCLE   26 ..............................
........................................................................

 iter      E             dE          RMSdq      gap      omega  full diag
   1    -42.5847649 -0.425848E+02  0.395E-01    0.81       0.0  T
   2    -42.5848825 -0.117623E-03  0.285E-01    0.88       1.0  T
   3    -42.5834835  0.139902E-02  0.230E-01    0.72       1.0  T
   4    -42.5817971  0.168641E-02  0.313E-01    0.99       1.0  T
   5    -42.5854800 -0.368292E-02  0.334E-02    0.83       1.0  T
   6    -42.5855115 -0.315105E-04  0.127E-02    0.84       1.6  T
   7    -42.5855136 -0.209909E-05  0.578E-03    0.83       3.5  T
   8    -42.5855147 -0.106868E-05  0.155E-03    0.83      12.9  T
   9    -42.5855147 -0.619157E-07  0.575E-04    0.83      34.8  T
  10    -42.5855147 -0.156785E-08  0.177E-04    0.83     113.3  T
     SCC iter.                  ...        0 min,  0.014 sec
     gradient                   ...        0 min,  0.013 sec
 * total energy  :   -42.0673471 Eh     change       -0.1179726E-01 Eh
   gradient norm :     0.0703881 Eh/α   predicted    -0.1089829E-01 (  -7.62%)
   displ. norm   :     0.4549138 α      lambda       -0.1370738E-01
   maximum displ.:     0.2473037 α      in ANC's #7, #2, #9, ...

........................................................................
.............................. CYCLE   27 ..............................
........................................................................

 iter      E             dE          RMSdq      gap      omega  full diag
   1    -42.5946383 -0.425946E+02  0.587E-01    1.21       0.0  T
   2    -42.4973780  0.972603E-01  0.156E+00    0.30       1.0  T
   3    -42.6025314 -0.105153E+00  0.295E-01    1.05       1.0  T
   4    -42.6047371 -0.220571E-02  0.129E-01    0.95       1.0  T
   5    -42.6050128 -0.275697E-03  0.404E-02    0.91       1.0  T
   6    -42.6050493 -0.364625E-04  0.157E-02    0.91       1.3  T
   7    -42.6050542 -0.491747E-05  0.512E-03    0.92       3.9  T
   8    -42.6050544 -0.171652E-06  0.300E-03    0.92       6.7  T
   9    -42.6050547 -0.329117E-06  0.763E-04    0.92      26.2  T
  10    -42.6050547 -0.114671E-07  0.248E-04    0.92      80.6  T
     SCC iter.                  ...        0 min,  0.014 sec
     gradient                   ...        0 min,  0.013 sec
 * total energy  :   -42.0747790 Eh     change       -0.7431915E-02 Eh
   gradient norm :     0.0749227 Eh/α   predicted    -0.8272065E-02 (  11.30%)
   displ. norm   :     0.4504011 α      lambda       -0.9517237E-02
   maximum displ.:     0.2285964 α      in ANC's #1, #2, #12, ...

........................................................................
.............................. CYCLE   28 ..............................
........................................................................

 iter      E             dE          RMSdq      gap      omega  full diag
   1    -42.6149189 -0.426149E+02  0.314E-01    0.88       0.0  T
   2    -42.6109282  0.399071E-02  0.403E-01    1.14       1.0  T
   3    -42.6151452 -0.421697E-02  0.177E-01    0.89       1.0  T
   4    -42.6155155 -0.370304E-03  0.751E-02    0.96       1.0  T
   5    -42.6156471 -0.131598E-03  0.103E-02    0.94       1.9  T
   6    -42.6156488 -0.166594E-05  0.565E-03    0.94       3.5  T
   7    -42.6156492 -0.372270E-06  0.232E-03    0.94       8.6  T
   8    -42.6156492 -0.937733E-07  0.714E-04    0.94      28.0  T
   9    -42.6156493 -0.345546E-08  0.380E-04    0.94      52.6  T
     SCC iter.                  ...        0 min,  0.012 sec
     gradient                   ...        0 min,  0.013 sec
 * total energy  :   -42.0796067 Eh     change       -0.4827718E-02 Eh
   gradient norm :     0.0403601 Eh/α   predicted    -0.5723965E-02 (  18.56%)
   displ. norm   :     0.3266079 α      lambda       -0.4981476E-02
   maximum displ.:     0.1339723 α      in ANC's #7, #9, #4, ...

........................................................................
.............................. CYCLE   29 ..............................
........................................................................

 iter      E             dE          RMSdq      gap      omega  full diag
   1    -42.6101678 -0.426102E+02  0.242E-01    0.93       0.0  T
   2    -42.6088536  0.131422E-02  0.261E-01    1.09       1.0  T
   3    -42.6095591 -0.705517E-03  0.177E-01    0.89       1.0  T
   4    -42.6102364 -0.677295E-03  0.863E-02    1.01       1.0  T
   5    -42.6104982 -0.261822E-03  0.144E-02    0.98       1.4  T
   6    -42.6105030 -0.477134E-05  0.530E-03    0.97       3.8  T
   7    -42.6105033 -0.287553E-06  0.248E-03    0.97       8.1  T
   8    -42.6105033 -0.619236E-07  0.742E-04    0.97      26.9  T
   9    -42.6105033 -0.644444E-08  0.360E-04    0.97      55.5  T
     SCC iter.                  ...        0 min,  0.012 sec
     gradient                   ...        0 min,  0.013 sec
 * total energy  :   -42.0818638 Eh     change       -0.2257078E-02 Eh
   gradient norm :     0.0550335 Eh/α   predicted    -0.2756434E-02 (  22.12%)
   displ. norm   :     0.2598185 α      lambda       -0.3301301E-02
   maximum displ.:     0.0978872 α      in ANC's #2, #4, #5, ...

........................................................................
.............................. CYCLE   30 ..............................
........................................................................

 iter      E             dE          RMSdq      gap      omega  full diag
   1    -42.6175830 -0.426176E+02  0.285E-01    1.18       0.0  T
   2    -42.5917162  0.258667E-01  0.839E-01    0.60       1.0  T
   3    -42.6205536 -0.288374E-01  0.939E-02    1.01       1.0  T
   4    -42.6204772  0.764491E-04  0.768E-02    0.99       1.0  T
   5    -42.6205637 -0.865833E-04  0.316E-02    1.00       1.0  T
   6    -42.6205967 -0.329269E-04  0.921E-03    1.01       2.2  T
   7    -42.6205997 -0.301465E-05  0.178E-03    1.02      11.3  T
   8    -42.6205997  0.320721E-07  0.134E-03    1.02      14.9  T
   9    -42.6205997 -0.439933E-07  0.445E-04    1.02      44.9  T
  10    -42.6205997 -0.479449E-08  0.156E-04    1.02     128.1  T
     SCC iter.                  ...        0 min,  0.014 sec
     gradient                   ...        0 min,  0.013 sec
 * total energy  :   -42.0836629 Eh     change       -0.1799137E-02 Eh
   gradient norm :     0.0299675 Eh/α   predicted    -0.1762091E-02 (  -2.06%)
   displ. norm   :     0.2914128 α      lambda       -0.1952939E-02
   maximum displ.:     0.1654370 α      in ANC's #4, #7, #9, ...

........................................................................
.............................. CYCLE   31 ..............................
........................................................................

 iter      E             dE          RMSdq      gap      omega  full diag
   1    -42.6191629 -0.426192E+02  0.192E-01    1.09       0.0  T
   2    -42.6167415  0.242140E-02  0.263E-01    0.90       1.0  T
   3    -42.6188380 -0.209650E-02  0.159E-01    1.12       1.0  T
   4    -42.6195328 -0.694842E-03  0.516E-02    1.04       1.0  T
   5    -42.6195817 -0.488311E-04  0.139E-02    1.04       1.4  T
   6    -42.6195871 -0.541139E-05  0.332E-03    1.04       6.0  T
   7    -42.6195872 -0.791023E-07  0.156E-03    1.04      12.9  T
   8    -42.6195872 -0.146909E-07  0.465E-04    1.04      43.0  T
   9    -42.6195872 -0.109846E-08  0.235E-04    1.04      85.0  T
     SCC iter.                  ...        0 min,  0.012 sec
     gradient                   ...        0 min,  0.013 sec
 * total energy  :   -42.0847310 Eh     change       -0.1068060E-02 Eh
   gradient norm :     0.0240800 Eh/α   predicted    -0.1059403E-02 (  -0.81%)
   displ. norm   :     0.3722671 α      lambda       -0.2338910E-02
   maximum displ.:     0.2551993 α      in ANC's #4, #8, #2, ...

........................................................................
.............................. CYCLE   32 ..............................
........................................................................

 iter      E             dE          RMSdq      gap      omega  full diag
   1    -42.6224534 -0.426225E+02  0.236E-01    1.10       0.0  T
   2    -42.6219256  0.527806E-03  0.168E-01    1.00       1.0  T
   3    -42.6201257  0.179989E-02  0.268E-01    1.23       1.0  T
   4    -42.6225440 -0.241830E-02  0.608E-02    1.07       1.0  T
   5    -42.6226303 -0.862909E-04  0.162E-02    1.08       1.2  T
   6    -42.6226373 -0.706510E-05  0.421E-03    1.08       4.7  T
   7    -42.6226374 -0.839190E-07  0.185E-03    1.08      10.8  T
   8    -42.6226375 -0.228580E-07  0.576E-04    1.08      34.7  T
   9    -42.6226375 -0.118670E-08  0.313E-04    1.08      64.0  T
     SCC iter.                  ...        0 min,  0.012 sec
     gradient                   ...        0 min,  0.013 sec
 * total energy  :   -42.0859396 Eh     change       -0.1208599E-02 Eh
   gradient norm :     0.0326039 Eh/α   predicted    -0.1331523E-02 (  10.17%)
   displ. norm   :     0.4091078 α      lambda       -0.2206935E-02
   maximum displ.:     0.2412842 α      in ANC's #4, #1, #3, ...

........................................................................
.............................. CYCLE   33 ..............................
........................................................................

 iter      E             dE          RMSdq      gap      omega  full diag
   1    -42.6241103 -0.426241E+02  0.218E-01    1.15       0.0  T
   2    -42.6235517  0.558603E-03  0.163E-01    1.04       1.0  T
   3    -42.6222070  0.134471E-02  0.243E-01    1.26       1.0  T
   4    -42.6241807 -0.197377E-02  0.461E-02    1.11       1.0  T
   5    -42.6242352 -0.544501E-04  0.108E-02    1.12       1.9  T
   6    -42.6242383 -0.307015E-05  0.352E-03    1.12       5.7  T
   7    -42.6242384 -0.102437E-06  0.146E-03    1.12      13.7  T
   8    -42.6242384 -0.202506E-07  0.392E-04    1.12      51.0  T
   9    -42.6242384 -0.144802E-09  0.230E-04    1.12      86.8  T
     SCC iter.                  ...        0 min,  0.012 sec
     gradient                   ...        0 min,  0.013 sec
 * total energy  :   -42.0876278 Eh     change       -0.1688230E-02 Eh
   gradient norm :     0.0302432 Eh/α   predicted    -0.1288154E-02 ( -23.70%)
   displ. norm   :     0.5838278 α      lambda       -0.3534283E-02
   maximum displ.:     0.3440700 α      in ANC's #4, #1, #3, ...

........................................................................
.............................. CYCLE   34 ..............................
........................................................................

 iter      E             dE          RMSdq      gap      omega  full diag
   1    -42.6408035 -0.426408E+02  0.304E-01    1.20       0.0  T
   2    -42.6397962  0.100727E-02  0.252E-01    1.04       1.0  T
   3    -42.6392072  0.589032E-03  0.278E-01    1.32       1.0  T
   4    -42.6415105 -0.230333E-02  0.670E-02    1.14       1.0  T
   5    -42.6415681 -0.575987E-04  0.284E-02    1.16       1.0  T
   6    -42.6415922 -0.240945E-04  0.655E-03    1.16       3.1  T
   7    -42.6415929 -0.715279E-06  0.306E-03    1.16       6.5  T
   8    -42.6415930 -0.446058E-07  0.949E-04    1.16      21.1  T
   9    -42.6415930 -0.378319E-08  0.403E-04    1.16      49.6  T
     SCC iter.                  ...        0 min,  0.012 sec
     gradient                   ...        0 min,  0.013 sec
 * total energy  :   -42.0887953 Eh     change       -0.1167440E-02 Eh
   gradient norm :     0.0580087 Eh/α   predicted    -0.2369479E-02 ( 102.96%)
   displ. norm   :     0.4963763 α      lambda       -0.4227884E-02
   maximum displ.:     0.3095607 α      in ANC's #4, #5, #1, ...

........................................................................
.............................. CYCLE   35 ..............................
........................................................................

 iter      E             dE          RMSdq      gap      omega  full diag
   1    -42.6319724 -0.426320E+02  0.321E-01    1.31       0.0  T
   2    -42.6284041  0.356824E-02  0.365E-01    1.01       1.0  T
   3    -42.6314965 -0.309233E-02  0.237E-01    1.34       1.0  T
   4    -42.6328339 -0.133739E-02  0.788E-02    1.22       1.0  T
   5    -42.6329319 -0.980479E-04  0.222E-02    1.23       1.0  T
   6    -42.6329471 -0.152345E-04  0.728E-03    1.22       2.7  T
   7    -42.6329478 -0.649280E-06  0.322E-03    1.22       6.2  T
   8    -42.6329478 -0.519826E-07  0.940E-04    1.22      21.3  T
   9    -42.6329479 -0.357549E-08  0.543E-04    1.22      36.9  T
     SCC iter.                  ...        0 min,  0.012 sec
     gradient                   ...        0 min,  0.013 sec
 * total energy  :   -42.0914668 Eh     change       -0.2671536E-02 Eh
   gradient norm :     0.0368781 Eh/α   predicted    -0.2634794E-02 (  -1.38%)
   displ. norm   :     0.4260136 α      lambda       -0.2884522E-02
   maximum displ.:     0.2227719 α      in ANC's #4, #5, #3, ...

........................................................................
.............................. CYCLE   36 ..............................
........................................................................

 iter      E             dE          RMSdq      gap      omega  full diag
   1    -42.6408162 -0.426408E+02  0.249E-01    1.34       0.0  T
   2    -42.6394933  0.132294E-02  0.248E-01    1.15       1.0  T
   3    -42.6404496 -0.956307E-03  0.183E-01    1.39       1.0  T
   4    -42.6412277 -0.778085E-03  0.732E-02    1.27       1.0  T
   5    -42.6413394 -0.111713E-03  0.177E-02    1.29       1.1  T
   6    -42.6413489 -0.951175E-05  0.487E-03    1.28       4.1  T
   7    -42.6413491 -0.177061E-06  0.171E-03    1.28      11.7  T
   8    -42.6413491 -0.211979E-07  0.586E-04    1.28      34.1  T
   9    -42.6413491 -0.934079E-10  0.360E-04    1.28      55.5  T
     SCC iter.                  ...        0 min,  0.012 sec
     gradient                   ...        0 min,  0.013 sec
 * total energy  :   -42.0938608 Eh     change       -0.2393953E-02 Eh
   gradient norm :     0.0525800 Eh/α   predicted    -0.1704014E-02 ( -28.82%)
   displ. norm   :     0.5630002 α      lambda       -0.5520056E-02
   maximum displ.:     0.2489280 α      in ANC's #4, #5, #3, ...

........................................................................
.............................. CYCLE   37 ..............................
........................................................................

 iter      E             dE          RMSdq      gap      omega  full diag
   1    -42.6675907 -0.426676E+02  0.366E-01    1.48       0.0  T
   2    -42.6661380  0.145270E-02  0.329E-01    1.26       1.0  T
   3    -42.6673782 -0.124021E-02  0.239E-01    1.56       1.0  T
   4    -42.6684956 -0.111739E-02  0.116E-01    1.36       1.0  T
   5    -42.6688332 -0.337586E-03  0.264E-02    1.42       1.0  T
   6    -42.6688504 -0.171987E-04  0.804E-03    1.42       2.5  T
   7    -42.6688509 -0.489929E-06  0.434E-03    1.42       4.6  T
   8    -42.6688511 -0.228202E-06  0.996E-04    1.42      20.1  T
   9    -42.6688511 -0.154073E-07  0.473E-04    1.42      42.2  T
     SCC iter.                  ...        0 min,  0.012 sec
     gradient                   ...        0 min,  0.012 sec
 * total energy  :   -42.0984390 Eh     change       -0.4578261E-02 Eh
   gradient norm :     0.0569874 Eh/α   predicted    -0.3634874E-02 ( -20.61%)
   displ. norm   :     0.7754739 α      lambda       -0.7397166E-02
   maximum displ.:     0.3831828 α      in ANC's #4, #5, #3, ...

........................................................................
.............................. CYCLE   38 ..............................
........................................................................

 iter      E             dE          RMSdq      gap      omega  full diag
   1    -42.6869759 -0.426870E+02  0.468E-01    1.61       0.0  T
   2    -42.6872835 -0.307604E-03  0.304E-01    1.54       1.0  T
   3    -42.6864733  0.810124E-03  0.245E-01    1.74       1.0  T
   4    -42.6870175 -0.544127E-03  0.171E-01    1.48       1.0  T
   5    -42.6880634 -0.104596E-02  0.229E-02    1.61       1.0  T
   6    -42.6880737 -0.102519E-04  0.844E-03    1.60       2.4  T
   7    -42.6880740 -0.263075E-06  0.477E-03    1.60       4.2  T
   8    -42.6880743 -0.371162E-06  0.139E-03    1.60      14.4  T
   9    -42.6880744 -0.408909E-07  0.613E-04    1.60      32.6  T
  10    -42.6880744 -0.593573E-09  0.308E-04    1.60      64.9  T
     SCC iter.                  ...        0 min,  0.014 sec
     gradient                   ...        0 min,  0.013 sec
 * total energy  :   -42.1054236 Eh     change       -0.6984600E-02 Eh
   gradient norm :     0.0829523 Eh/α   predicted    -0.5922759E-02 ( -15.20%)
   displ. norm   :     0.7360803 α      lambda       -0.1721826E-01
   maximum displ.:     0.3092860 α      in ANC's #16, #5, #24, ...

........................................................................
.............................. CYCLE   39 ..............................
........................................................................

 iter      E             dE          RMSdq      gap      omega  full diag
   1    -42.7699829 -0.427700E+02  0.674E-01    1.99       0.0  T
   2    -42.7684001  0.158282E-02  0.518E-01    1.63       1.0  T
   3    -42.7707083 -0.230826E-02  0.376E-01    2.11       1.0  T
   4    -42.7734974 -0.278906E-02  0.138E-01    1.84       1.0  T
   5    -42.7738656 -0.368168E-03  0.307E-02    1.87       1.0  T
   6    -42.7738837 -0.181038E-04  0.119E-02    1.89       1.7  T
   7    -42.7738845 -0.881701E-06  0.634E-03    1.88       3.2  T
   8    -42.7738849 -0.382758E-06  0.154E-03    1.88      13.0  T
   9    -42.7738850 -0.430125E-07  0.714E-04    1.88      28.0  T
  10    -42.7738850 -0.373273E-08  0.249E-04    1.88      80.3  T
     SCC iter.                  ...        0 min,  0.014 sec
     gradient                   ...        0 min,  0.012 sec
 * total energy  :   -42.1034035 Eh     change        0.2020098E-02 Eh
   gradient norm :     0.2040070 Eh/α   predicted    -0.1327366E-01 (-757.08%)
   displ. norm   :     0.4256111 α      lambda       -0.2423073E-01
   maximum displ.:     0.2247877 α      in ANC's #4, #5, #6, ...

........................................................................
.............................. CYCLE   40 ..............................
........................................................................

 iter      E             dE          RMSdq      gap      omega  full diag
   1    -42.7285487 -0.427285E+02  0.414E-01    1.83       0.0  T
   2    -42.7285433  0.536871E-05  0.347E-01    2.10       1.0  T
   3    -42.7305643 -0.202095E-02  0.182E-01    1.83       1.0  T
   4    -42.7305270  0.372812E-04  0.135E-01    1.99       1.0  T
   5    -42.7310406 -0.513562E-03  0.174E-02    1.92       1.2  T
   6    -42.7310464 -0.580811E-05  0.790E-03    1.91       2.5  T
   7    -42.7310469 -0.480925E-06  0.370E-03    1.92       5.4  T
   8    -42.7310470 -0.865177E-07  0.139E-03    1.92      14.3  T
   9    -42.7310470 -0.118706E-07  0.763E-04    1.92      26.2  T
  10    -42.7310470 -0.504591E-08  0.271E-04    1.92      73.7  T
     SCC iter.                  ...        0 min,  0.013 sec
     gradient                   ...        0 min,  0.012 sec
 * total energy  :   -42.1178340 Eh     change       -0.1443050E-01 Eh
   gradient norm :     0.1197284 Eh/α   predicted    -0.1431002E-01 (  -0.83%)
   displ. norm   :     0.4190489 α      lambda       -0.1018478E-01
   maximum displ.:     0.2400688 α      in ANC's #4, #1, #3, ...

........................................................................
.............................. CYCLE   41 ..............................
........................................................................

 iter      E             dE          RMSdq      gap      omega  full diag
   1    -42.7115231 -0.427115E+02  0.353E-01    2.19       0.0  T
   2    -42.7085713  0.295173E-02  0.420E-01    1.72       1.0  T
   3    -42.7137325 -0.516112E-02  0.139E-01    2.04       1.0  T
   4    -42.7138387 -0.106208E-03  0.719E-02    1.95       1.0  T
   5    -42.7139347 -0.960645E-04  0.120E-02    1.98       1.7  T
   6    -42.7139370 -0.228183E-05  0.470E-03    1.98       4.3  T
   7    -42.7139371 -0.856159E-07  0.247E-03    1.98       8.1  T
   8    -42.7139372 -0.517546E-07  0.911E-04    1.98      22.0  T
   9    -42.7139372 -0.124640E-07  0.367E-04    1.98      54.4  T
     SCC iter.                  ...        0 min,  0.012 sec
     gradient                   ...        0 min,  0.013 sec
 * total energy  :   -42.1225297 Eh     change       -0.4695654E-02 Eh
   gradient norm :     0.0631714 Eh/α   predicted    -0.5986642E-02 (  27.49%)
   displ. norm   :     0.4816155 α      lambda       -0.9454496E-02
   maximum displ.:     0.1790430 α      in ANC's #5, #6, #16, ...

........................................................................
.............................. CYCLE   42 ..............................
........................................................................

 iter      E             dE          RMSdq      gap      omega  full diag
   1    -42.7100300 -0.427100E+02  0.371E-01    1.87       0.0  T
   2    -42.7078251  0.220487E-02  0.422E-01    2.34       1.0  T
   3    -42.7126257 -0.480064E-02  0.145E-01    2.03       1.0  T
   4    -42.7125461  0.796538E-04  0.867E-02    2.07       1.0  T
   5    -42.7127037 -0.157636E-03  0.131E-02    2.04       1.5  T
   6    -42.7127085 -0.473699E-05  0.512E-03    2.05       3.9  T
   7    -42.7127085 -0.852829E-07  0.252E-03    2.05       7.9  T
   8    -42.7127087 -0.121943E-06  0.710E-04    2.05      28.2  T
   9    -42.7127087 -0.301082E-08  0.400E-04    2.05      50.0  T
     SCC iter.                  ...        0 min,  0.012 sec
     gradient                   ...        0 min,  0.013 sec
 * total energy  :   -42.1282816 Eh     change       -0.5751911E-02 Eh
   gradient norm :     0.0787164 Eh/α   predicted    -0.5823763E-02 (   1.25%)
   displ. norm   :     0.3169363 α      lambda       -0.7069827E-02
   maximum displ.:     0.1286880 α      in ANC's #1, #15, #6, ...
 * RMSD in coord.:     1.3560046 α      energy gain  -0.1938371E+00 Eh

generating ANC from model Hessian ...
Using Lindh-Hessian (1995)
 Shifting diagonal of input Hessian by    1.1516146062071275E-002
 Lowest  eigenvalues of input Hessian
    0.010000    0.000000    0.000000    0.000000    0.000000    0.000000
    0.000000    0.011933    0.012065    0.012408    0.012998    0.014195
    0.015037    0.017378    0.017674    0.019931    0.021603    0.024363
 Highest eigenvalues
    2.094746    2.217683    2.343098    2.643447    3.034871    4.548666


........................................................................
.............................. CYCLE   43 ..............................
........................................................................

 iter      E             dE          RMSdq      gap      omega  full diag
   1    -42.7400950 -0.427401E+02  0.218E-01    2.19       0.0  T
   2    -42.7395635  0.531441E-03  0.220E-01    1.98       1.0  T
   3    -42.7406939 -0.113035E-02  0.934E-02    2.15       1.0  T
   4    -42.7407526 -0.586620E-04  0.464E-02    2.09       1.0  T
   5    -42.7407952 -0.425953E-04  0.893E-03    2.11       2.2  T
   6    -42.7407964 -0.127313E-05  0.364E-03    2.11       5.5  T
   7    -42.7407965 -0.301310E-07  0.195E-03    2.11      10.2  T
   8    -42.7407965 -0.392735E-07  0.522E-04    2.11      38.3  T
   9    -42.7407965 -0.444866E-08  0.202E-04    2.11      99.2  T
     SCC iter.                  ...        0 min,  0.012 sec
     gradient                   ...        0 min,  0.013 sec
 * total energy  :   -42.1315953 Eh     change       -0.3313755E-02 Eh
   gradient norm :     0.0541348 Eh/α   predicted     0.0000000E+00 (-100.00%)
   displ. norm   :     0.3488557 α      lambda       -0.5164808E-02
   maximum displ.:     0.2284598 α      in ANC's #7, #10, #8, ...

........................................................................
.............................. CYCLE   44 ..............................
........................................................................

 iter      E             dE          RMSdq      gap      omega  full diag
   1    -42.7486938 -0.427487E+02  0.159E-01    2.23       0.0  T
   2    -42.7486266  0.672926E-04  0.131E-01    2.11       1.0  T
   3    -42.7488412 -0.214606E-03  0.766E-02    2.21       1.0  T
   4    -42.7488621 -0.209767E-04  0.443E-02    2.15       1.0  T
   5    -42.7489213 -0.591724E-04  0.511E-03    2.17       3.9  T
   6    -42.7489217 -0.376133E-06  0.231E-03    2.17       8.7  T
   7    -42.7489217 -0.291234E-07  0.985E-04    2.17      20.3  T
   8    -42.7489217 -0.482680E-08  0.344E-04    2.17      58.1  T
     SCC iter.                  ...        0 min,  0.011 sec
     gradient                   ...        0 min,  0.013 sec
 * total energy  :   -42.1352194 Eh     change       -0.3624024E-02 Eh
   gradient norm :     0.0188780 Eh/α   predicted    -0.2899376E-02 ( -20.00%)
   displ. norm   :     0.5072310 α      lambda       -0.3846919E-02
   maximum displ.:     0.2977569 α      in ANC's #7, #8, #9, ...

........................................................................
.............................. CYCLE   45 ..............................
........................................................................

 iter      E             dE          RMSdq      gap      omega  full diag
   1    -42.7529642 -0.427530E+02  0.240E-01    2.25       0.0  T
   2    -42.7529285  0.357036E-04  0.162E-01    2.15       1.0  T
   3    -42.7527374  0.191044E-03  0.131E-01    2.30       1.0  T
   4    -42.7530810 -0.343580E-03  0.431E-02    2.19       1.0  T
   5    -42.7531402 -0.591868E-04  0.623E-03    2.21       3.2  T
   6    -42.7531407 -0.534250E-06  0.308E-03    2.21       6.5  T
   7    -42.7531408 -0.475214E-07  0.105E-03    2.21      19.0  T
   8    -42.7531408 -0.106711E-07  0.326E-04    2.21      61.4  T
   9    -42.7531408 -0.142953E-08  0.170E-04    2.21     117.8  T
     SCC iter.                  ...        0 min,  0.012 sec
     gradient                   ...        0 min,  0.012 sec
 * total energy  :   -42.1369977 Eh     change       -0.1778356E-02 Eh
   gradient norm :     0.0340532 Eh/α   predicted    -0.2418361E-02 (  35.99%)
   displ. norm   :     0.4396735 α      lambda       -0.2790175E-02
   maximum displ.:     0.2585264 α      in ANC's #10, #7, #8, ...

........................................................................
.............................. CYCLE   46 ..............................
........................................................................

 iter      E             dE          RMSdq      gap      omega  full diag
   1    -42.7499148 -0.427499E+02  0.192E-01    2.22       0.0  T
   2    -42.7498837  0.310687E-04  0.124E-01    2.28       1.0  T
   3    -42.7496150  0.268778E-03  0.117E-01    2.17       1.0  T
   4    -42.7499716 -0.356610E-03  0.250E-02    2.26       1.0  T
   5    -42.7499912 -0.195979E-04  0.409E-03    2.24       4.9  T
   6    -42.7499913 -0.107446E-06  0.198E-03    2.24      10.1  T
   7    -42.7499913 -0.156977E-07  0.581E-04    2.24      34.4  T
   8    -42.7499913 -0.404275E-08  0.212E-04    2.24      94.3  T
     SCC iter.                  ...        0 min,  0.011 sec
     gradient                   ...        0 min,  0.013 sec
 * total energy  :   -42.1387884 Eh     change       -0.1790712E-02 Eh
   gradient norm :     0.0383018 Eh/α   predicted    -0.1664797E-02 (  -7.03%)
   displ. norm   :     0.3756181 α      lambda       -0.1800889E-02
   maximum displ.:     0.1985232 α      in ANC's #8, #10, #7, ...

........................................................................
.............................. CYCLE   47 ..............................
........................................................................

 iter      E             dE          RMSdq      gap      omega  full diag
   1    -42.7506935 -0.427507E+02  0.150E-01    2.27       0.0  T
   2    -42.7507157 -0.221648E-04  0.932E-02    2.26       1.0  T
   3    -42.7506787  0.369506E-04  0.538E-02    2.27       1.0  T
   4    -42.7507274 -0.486920E-04  0.164E-02    2.25       1.2  T
   5    -42.7507354 -0.798920E-05  0.513E-03    2.27       3.9  T
   6    -42.7507361 -0.699917E-06  0.178E-03    2.26      11.3  T
   7    -42.7507361 -0.225716E-07  0.815E-04    2.26      24.5  T
   8    -42.7507361 -0.873901E-08  0.259E-04    2.26      77.2  T
     SCC iter.                  ...        0 min,  0.011 sec
     gradient                   ...        0 min,  0.012 sec
 * total energy  :   -42.1399731 Eh     change       -0.1184684E-02 Eh
   gradient norm :     0.0146201 Eh/α   predicted    -0.1027502E-02 ( -13.27%)
   displ. norm   :     0.5636580 α      lambda       -0.2134388E-02
   maximum displ.:     0.3194357 α      in ANC's #8, #4, #1, ...

........................................................................
.............................. CYCLE   48 ..............................
[...]
N           -3.58438084257862        0.88579361601503       -0.19567662680018
C           -3.91238993552928        2.09793499704757        0.43761065182462
C           -3.07810902638413        0.30541809901310       -1.09843913386545
O           -2.62346131820315       -0.42958264224702       -1.87014003917372
N           -0.45923638879370       -0.97276802187406        0.29407814206380
C           -1.25723978350672       -2.14627724389054        0.42265004653296
H            4.06496579841166        1.44808820534538        0.54500811469728
H            4.99924120778259        0.13000532572078       -0.19240245496747
H            4.03011079733774        1.21489134399822       -1.21077086776383
H            3.85748009841708       -2.09909839979841       -0.11450638510805
H           -3.00858897524708        2.66199793071751        0.68223784322263
H           -4.55663790000555        2.70684495824029       -0.20056714745637
H           -4.44658102884101        1.85969807712030        1.35780951411852
H           -0.79440685183917       -2.92330180793683        1.03811831987509
H           -1.47382293109003       -2.55499122004112       -0.56705843014209
H           -2.20213685692861       -1.84638513234735        0.87289421517151
H            1.49539513127908       -2.97013081421641        0.13193916711626

 Bond Distances (Angstroems)
 ---------------------------
C1-N2=1.4353         C1-H15=1.0914        C1-H16=1.0879        C1-H17=1.0921        N2-C1=1.4353         N2-C3=1.3178         
N2-C6=1.4066         C3-N2=1.3178         C3-N4=1.3364         C3-H18=1.0748        N4-C3=1.3364         N4-C5=1.4147         
N4-H25=1.0085        C5-N4=1.4147         C5-C6=1.4672         C5-N13=1.2551        C6-N2=1.4066         C6-C5=1.4672         
C6-C7=1.3261         C7-C6=1.3261         C7-O8=1.1563         O8-C7=1.1563         N9-C10=1.4064        N9-C11=1.1866        
C10-N9=1.4064        C10-H19=1.0931       C10-H20=1.0923       C10-H21=1.0904       C11-N9=1.1866        C11-O12=1.1586       
O12-C11=1.1586       N13-C5=1.2551        N13-C14=1.4249       C14-N13=1.4249       C14-H22=1.0940       C14-H23=1.0925       
C14-H24=1.0888       H15-C1=1.0914        H16-C1=1.0879        H17-C1=1.0921        H18-C3=1.0748        H19-C10=1.0931       
H20-C10=1.0923       H21-C10=1.0904       H22-C14=1.0940       H23-C14=1.0925       H24-C14=1.0888       H25-N4=1.0085        
 C  H  Rav=1.0897 sigma=0.0053  Rmin=1.0748  Rmax=1.0940    10
 C  C  Rav=1.3966 sigma=0.0705  Rmin=1.3261  Rmax=1.4672     2
 N  H  Rav=1.0085 sigma=0.0000  Rmin=1.0085  Rmax=1.0085     1
 N  C  Rav=1.3538 sigma=0.0818  Rmin=1.1866  Rmax=1.4353     9
 O  C  Rav=1.1575 sigma=0.0012  Rmin=1.1563  Rmax=1.1586     2

 selected bond angles (degree)
 --------------------
H15-C1-N2=110.00               H16-C1-N2=109.74               H16-C1-H15=109.16              H17-C1-N2=110.37               
H17-C1-H15=108.46              H17-C1-H16=109.09              C3-N2-C1=127.56                C6-N2-C1=123.64                
C6-N2-C3=108.80                N4-C3-N2=111.09                H18-C3-N2=124.32               H18-C3-N4=124.58               
C5-N4-C3=110.45                H25-N4-C3=125.28               H25-N4-C5=124.27               C6-C5-N4=102.88                
N13-C5-N4=130.42               N13-C5-C6=126.69               C5-C6-N2=106.77                C7-C6-N2=126.29                
C7-C6-C5=126.94                O8-C7-C6=175.97                C11-N9-C10=149.72              H19-C10-N9=110.65              
H20-C10-N9=110.79              H20-C10-H19=109.32             H21-C10-N9=107.82              H21-C10-H19=109.21             
H21-C10-H20=109.02             

 selected dihedral angles (degree)
 ---------------------------------
C3-N2-C1-H15=232.79           C3-N2-C1-H16=352.90           C3-N2-C1-H17=113.15           C6-N2-C1-H15= 53.30           
C6-N2-C1-H16=173.41           C6-N2-C1-H17=293.66           N4-C3-N2-C1=180.24            N4-C3-N2-C6=359.79            
H18-C3-N2-C1=  0.47           H18-C3-N2-C6=180.02           C5-N4-C3-N2=359.68            C5-N4-C3-H18=179.44           
H25-N4-C3-N2=179.43           H25-N4-C3-H18=359.19          C6-C5-N4-C3=  0.68            C6-C5-N4-H25=180.93           
N13-C5-N4-C3=181.94           N13-C5-N4-H25=  2.19          C5-C6-N2-C1=180.21            C5-C6-N2-C3=  0.64            
C7-C6-N2-C1=  0.86            C7-C6-N2-C3=181.29            N2-C6-C5-N4=359.22            N2-C6-C5-N13=178.03           
C7-C6-C5-N4=178.57            C7-C6-C5-N13=357.37           O8-C7-C6-N2=158.51            O8-C7-C6-C5=339.29            
H19-C10-N9-C11=299.83         H20-C10-N9-C11= 61.25         H21-C10-N9-C11=180.47         
           -------------------------------------------------
          |                Final Singlepoint                |
           -------------------------------------------------

          ...................................................
          :                      SETUP                      :
          :.................................................:
          :  # basis functions                  67          :
          :  # atomic orbitals                  67          :
          :  # shells                           39          :
          :  # electrons                        74          :
          :  max. iterations                   250          :
          :  Hamiltonian                  GFN2-xTB          :
          :  restarted?                      false          :
          :  GBSA solvation                  false          :
          :  PC potential                    false          :
          :  electronic temp.         5000.0000000     K    :
          :  accuracy                    1.0000000          :
          :  -> integral cutoff          0.2500000E+02      :
          :  -> integral neglect         0.1000000E-07      :
          :  -> SCF convergence          0.1000000E-05 Eh   :
          :  -> wf. convergence          0.1000000E-03 e    :
          :  Broyden damping             0.4000000          :
          ...................................................

 iter      E             dE          RMSdq      gap      omega  full diag
   1    -42.7663179 -0.427663E+02  0.900E-05    2.37       0.0  T
   2    -42.7663179 -0.494325E-10  0.634E-05    2.37     315.5  T
   3    -42.7663179 -0.795879E-10  0.285E-05    2.37     702.7  T

   *** convergence criteria satisfied after 3 iterations ***

         #    Occupation            Energy/Eh            Energy/eV
      -------------------------------------------------------------
         1        2.0000           -0.9117129             -24.8090
       ...           ...                  ...                  ...
        31        1.9997           -0.6127833             -16.6747
        32        1.9996           -0.6090231             -16.5724
        33        1.9990           -0.5963940             -16.2287
        34        1.9386           -0.5299193             -14.4198
        35        1.9253           -0.5267115             -14.3325
        36        1.9174           -0.5250469             -14.2873
        37        1.9098           -0.5235898             -14.2476 (HOMO)
        38        0.1582           -0.4363926             -11.8748 (LUMO)
        39        0.1502           -0.4355062             -11.8507
        40        0.0029           -0.3719572             -10.1215
        41        0.0000           -0.2951056              -8.0302
        42        0.0000           -0.2894890              -7.8774
       ...           ...                  ...                  ...
        67                          1.2328542              33.5477
      -------------------------------------------------------------
                  HL-Gap            0.0871972 Eh            2.3728 eV
             Fermi-level           -0.4752577 Eh          -12.9324 eV

 SCC (total)                   0 d,  0 h,  0 min,  0.022 sec
 SCC setup                      ...        0 min,  0.000 sec (  0.920%)
 Dispersion                     ...        0 min,  0.000 sec (  0.827%)
 classical contributions        ...        0 min,  0.000 sec (  0.336%)
 integral evaluation            ...        0 min,  0.004 sec ( 19.323%)
 iterations                     ...        0 min,  0.005 sec ( 21.132%)
 molecular gradient             ...        0 min,  0.012 sec ( 56.873%)
 printout                       ...        0 min,  0.000 sec (  0.536%)

         :::::::::::::::::::::::::::::::::::::::::::::::::::::
         ::                     SUMMARY                     ::
         :::::::::::::::::::::::::::::::::::::::::::::::::::::
         :: total energy             -42.145091414675 Eh    ::
         :: gradient norm              0.003083315282 Eh/a0 ::
         :: HOMO-LUMO gap              2.372756598639 eV    ::
         ::.................................................::
         :: SCC energy               -42.766317884872 Eh    ::
         :: -> isotropic ES            0.116674645151 Eh    ::
         :: -> anisotropic ES         -0.002189898969 Eh    ::
         :: -> anisotropic XC          0.024965389042 Eh    ::
         :: -> dispersion             -0.018604846711 Eh    ::
         :: repulsion energy           0.621124019203 Eh    ::
         :: add. restraining           0.000000068730 Eh    ::
         :: total charge               1.000000000000 e     ::
         :::::::::::::::::::::::::::::::::::::::::::::::::::::

           -------------------------------------------------
          |                Property Printout                |
           -------------------------------------------------

    * Orbital Energies and Occupations

         #    Occupation            Energy/Eh            Energy/eV
      -------------------------------------------------------------
         1        2.0000           -0.9117129             -24.8090
       ...           ...                  ...                  ...
        25        2.0000           -0.6521139             -17.7449
        26        2.0000           -0.6443278             -17.5331
        27        1.9999           -0.6425157             -17.4837
        28        1.9999           -0.6412971             -17.4506
        29        1.9997           -0.6173918             -16.8001
        30        1.9997           -0.6136156             -16.6973
        31        1.9997           -0.6127833             -16.6747
        32        1.9996           -0.6090231             -16.5724
        33        1.9990           -0.5963940             -16.2287
        34        1.9386           -0.5299193             -14.4198
        35        1.9253           -0.5267115             -14.3325
        36        1.9174           -0.5250469             -14.2873
        37        1.9098           -0.5235898             -14.2476 (HOMO)
        38        0.1582           -0.4363926             -11.8748 (LUMO)
        39        0.1502           -0.4355062             -11.8507
        40        0.0029           -0.3719572             -10.1215
        41        0.0000           -0.2951056              -8.0302
        42        0.0000           -0.2894890              -7.8774
        43        0.0000           -0.2746737              -7.4743
        44                         -0.1808373              -4.9208
        45                         -0.1472004              -4.0055
        46                         -0.0892464              -2.4285
        47                         -0.0593999              -1.6164
        48                         -0.0496754              -1.3517
       ...                                ...                  ...
        67                          1.2328542              33.5477
      -------------------------------------------------------------
                  HL-Gap            0.0871972 Eh            2.3728 eV
             Fermi-level           -0.4752577 Eh          -12.9324 eV

     #   Z          covCN         q      C6AA      α(0)
     1   6 C        3.691    -0.084    22.302     6.758
     2   7 N        2.801     0.060    20.186     6.673
     3   6 C        2.959     0.080    26.214     8.398
     4   7 N        2.772    -0.090    22.996     7.122
     5   6 C        2.926     0.157    24.604     8.134
     6   6 C        3.042    -0.020    28.469     8.751
     7   6 C        1.844     0.252    25.324     8.129
     8   8 O        0.856    -0.118    16.785     5.493
     9   7 N        1.820    -0.140    24.808     7.380
    10   6 C        3.686    -0.033    21.362     6.617
    11   6 C        1.770     0.311    24.236     7.959
    12   8 O        0.856    -0.260    19.083     5.857
    13   7 N        1.824    -0.213    26.478     7.625
    14   6 C        3.700    -0.037    21.406     6.616
    15   1 H        0.924     0.101     1.774     2.083
    16   1 H        0.925     0.103     1.756     2.072
    17   1 H        0.924     0.103     1.759     2.074
    18   1 H        0.926     0.115     1.654     2.011
    19   1 H        0.924     0.081     1.969     2.194
    20   1 H        0.924     0.090     1.881     2.145
    21   1 H        0.924     0.098     1.804     2.100
    22   1 H        0.924     0.051     2.308     2.376
    23   1 H        0.924     0.088     1.902     2.157
    24   1 H        0.925     0.086     1.917     2.165
    25   1 H        0.860     0.220     1.011     1.575

 Mol. C6AA /au·bohr⁶  :       6678.167069
 Mol. C8AA /au·bohr⁸  :     152888.110537
 Mol. α(0) /au        :        124.463365


Wiberg/Mayer (AO) data.
largest (>0.10) Wiberg bond orders for each atom

 ---------------------------------------------------------------------------
     #   Z sym  total        # sym  WBO       # sym  WBO       # sym  WBO
 ---------------------------------------------------------------------------
     1   6 C    3.933 --     2 N    0.994    16 H    0.973    15 H    0.964
                            17 H    0.961
     2   7 N    3.622 --     3 C    1.404     6 C    1.043     1 C    0.994
                             4 N    0.112
     3   6 C    3.845 --     2 N    1.404     4 N    1.320    18 H    0.949
     4   7 N    3.539 --     3 C    1.320     5 C    1.032    25 H    0.923
                             2 N    0.112
     5   6 C    3.928 --    13 N    1.710     6 C    1.039     4 N    1.032
     6   6 C    3.871 --     7 C    1.480     2 N    1.043     5 C    1.039
                             8 O    0.152
     7   6 C    3.704 --     8 O    2.083     6 C    1.480
     8   8 O    2.358 --     7 C    2.083     6 C    0.152
     9   7 N    3.358 --    11 C    1.985    10 C    1.023    12 O    0.350
    10   6 C    3.923 --     9 N    1.023    21 H    0.960    19 H    0.952
                            20 H    0.950
    11   6 C    3.935 --     9 N    1.985    12 O    1.883
    12   8 O    2.272 --    11 C    1.883     9 N    0.350
    13   7 N    3.020 --     5 C    1.710    14 C    1.032
    14   6 C    3.947 --    13 N    1.032    24 H    0.966    22 H    0.960
                            23 H    0.943
    15   1 H    0.987 --     1 C    0.964
    16   1 H    0.989 --     1 C    0.973
    17   1 H    0.986 --     1 C    0.961
    18   1 H    0.984 --     3 C    0.949
    19   1 H    0.977 --    10 C    0.952
    20   1 H    0.975 --    10 C    0.950
    21   1 H    0.979 --    10 C    0.960
    22   1 H    0.981 --    14 C    0.960
    23   1 H    0.977 --    14 C    0.943
    24   1 H    0.981 --    14 C    0.966
    25   1 H    0.950 --     4 N    0.923
 ---------------------------------------------------------------------------

Topologies differ in total number of bonds
Writing topology from bond orders to xtbtopo.mol

molecular dipole:
                 x           y           z       tot (Debye)
 q only:        2.624      -0.537       0.532
   full:        2.957      -0.933       0.475       7.973
molecular quadrupole (traceless):
                xx          xy          yy          xz          yz          zz
 q only:       34.251     -14.969      -4.372      -7.277      -0.795     -29.878
  q+dip:       33.473     -18.913      -2.354      -6.436      -1.610     -31.119
   full:       33.955     -17.265      -3.681      -5.849      -2.216     -30.274

           -------------------------------------------------
          |                Geometry Summary                 |
           -------------------------------------------------

      molecular mass/u    :      195.1988581
   center of mass at/Å    :        0.0524278       0.0204753      -0.1692612
  moments of inertia/u·Å² :        0.4766450E+03   0.1379279E+04   0.1706983E+04
rotational constants/cm⁻¹ :        0.3536727E-01   0.1222206E-01   0.9875688E-02

 * 23 selected distances

     #   Z          #   Z                                           value/Å
     1   6 C        2   7 N                                       1.4353393 (max)
     2   7 N        3   6 C                                       1.3178496
     3   6 C        4   7 N                                       1.3363767
     4   7 N        5   6 C                                       1.4147460
     2   7 N        6   6 C                                       1.4066468
     6   6 C        7   6 C                                       1.3260794
     7   6 C        8   8 O                                       1.1563343
     9   7 N       10   6 C                                       1.4063889
     9   7 N       11   6 C                                       1.1866454
    11   6 C       12   8 O                                       1.1586428
     5   6 C       13   7 N                                       1.2550935
    13   7 N       14   6 C                                       1.4249437
     1   6 C       15   1 H                                       1.0913842
     1   6 C       16   1 H                                       1.0879444
     1   6 C       17   1 H                                       1.0920611
     3   6 C       18   1 H                                       1.0747928
    10   6 C       19   1 H                                       1.0930992
    10   6 C       20   1 H                                       1.0922902
    10   6 C       21   1 H                                       1.0903592
    14   6 C       22   1 H                                       1.0939757
    14   6 C       23   1 H                                       1.0924644
    14   6 C       24   1 H                                       1.0888002
     4   7 N       25   1 H                                       1.0084595 (min)

 * 5 distinct bonds (by element types)

   Z      Z             #   av. dist./Å        max./Å        min./Å
   1 H    6 C          10     1.0897171     1.0939757     1.0747928
   6 C    6 C           1     1.3260794     1.3260794     1.3260794
   1 H    7 N           1     1.0084595     1.0084595     1.0084595
   6 C    7 N           9     1.3537811     1.4353393     1.1866454
   6 C    8 O           2     1.1574885     1.1586428     1.1563343


optimized geometry written to: xtbopt.xyz


           -------------------------------------------------
          | TOTAL ENERGY              -42.145091414675 Eh   |
          | GRADIENT NORM               0.003083315282 Eh/α |
          | HOMO-LUMO GAP               2.372756598639 eV   |
           -------------------------------------------------

------------------------------------------------------------------------
 * finished run on 2024/06/05 at 19:59:17.134     
------------------------------------------------------------------------
 total:
 * wall-time:     0 d,  0 h,  0 min,  2.307 sec
 *  cpu-time:     0 d,  0 h,  0 min,  2.286 sec
 * ratio c/w:     0.991 speedup
 SCF:
 * wall-time:     0 d,  0 h,  0 min,  0.036 sec
 *  cpu-time:     0 d,  0 h,  0 min,  0.036 sec
 * ratio c/w:     1.000 speedup
 ANC optimizer:
 * wall-time:     0 d,  0 h,  0 min,  2.241 sec
 *  cpu-time:     0 d,  0 h,  0 min,  2.237 sec
 * ratio c/w:     0.998 speedup

