      -----------------------------------------------------------      
     |                   =====================                   |     
     |                           x T B                           |     
     |                   =====================                   |     
     |                         S. Grimme                         |     
     |          Mulliken Center for Theoretical Chemistry        |     
     |                    University of Bonn                     |     
      -----------------------------------------------------------      

   * xtb version 6.6.1 (8d0f1dd) compiled by 'conda@1efc2f54142f' on 2023-08-01

   xtb is free software: you can redistribute it and/or modify it under
   the terms of the GNU Lesser General Public License as published by
   the Free Software Foundation, either version 3 of the License, or
   (at your option) any later version.
   
   xtb is distributed in the hope that it will be useful,
   but WITHOUT ANY WARRANTY; without even the implied warranty of
   MERCHANTABILITY or FITNESS FOR A PARTICULAR PURPOSE.  See the
   GNU Lesser General Public License for more details.
   
   Cite this work as:
   * C. Bannwarth, E. Caldeweyher, S. Ehlert, A. Hansen, P. Pracht,
     J. Seibert, S. Spicher, S. Grimme, WIREs Comput. Mol. Sci., 2020, 11,
     e01493. DOI: 10.1002/wcms.1493
   
   for GFN2-xTB:
   * C. Bannwarth, S. Ehlert and S. Grimme., J. Chem. Theory Comput., 2019,
     15, 1652-1671. DOI: 10.1021/acs.jctc.8b01176
   for GFN1-xTB:
   * S. Grimme, C. Bannwarth, P. Shushkov, J. Chem. Theory Comput., 2017,
     13, 1989-2009. DOI: 10.1021/acs.jctc.7b00118
   for GFN0-xTB:
   * P. Pracht, E. Caldeweyher, S. Ehlert, S. Grimme, ChemRxiv, 2019, preprint.
     DOI: 10.26434/chemrxiv.8326202.v1
   for GFN-FF:
   * S. Spicher and S. Grimme, Angew. Chem. Int. Ed., 2020, 59, 15665-15673.
     DOI: 10.1002/anie.202004239
   
   for ALPB and GBSA implicit solvation:
   * S. Ehlert, M. Stahn, S. Spicher, S. Grimme, J. Chem. Theory Comput.,
     2021, 17, 4250-4261. DOI: 10.1021/acs.jctc.1c00471
   
   for DFT-D4:
   * E. Caldeweyher, C. Bannwarth and S. Grimme, J. Chem. Phys., 2017,
     147, 034112. DOI: 10.1063/1.4993215
   * E. Caldeweyher, S. Ehlert, A. Hansen, H. Neugebauer, S. Spicher,
     C. Bannwarth and S. Grimme, J. Chem. Phys., 2019, 150, 154122.
     DOI: 10.1063/1.5090222
   * E. Caldeweyher, J.-M. Mewes, S. Ehlert and S. Grimme, Phys. Chem. Chem. Phys.
     2020, 22, 8499-8512. DOI: 10.1039/D0CP00502A
   
   for sTDA-xTB:
   * S. Grimme and C. Bannwarth, J. Chem. Phys., 2016, 145, 054103.
     DOI: 10.1063/1.4959605
   
   in the mass-spec context:
   * V. Asgeirsson, C. Bauer and S. Grimme, Chem. Sci., 2017, 8, 4879.
     DOI: 10.1039/c7sc00601b
   * J. Koopman and S. Grimme, ACS Omega 2019, 4, 12, 15120-15133.
     DOI: 10.1021/acsomega.9b02011
   
   for metadynamics refer to:
   * S. Grimme, J. Chem. Theory Comput., 2019, 155, 2847-2862
     DOI: 10.1021/acs.jctc.9b00143
   
   for SPH calculations refer to:
   * S. Spicher and S. Grimme, J. Chem. Theory Comput., 2021, 17, 1701-1714
     DOI: 10.1021/acs.jctc.0c01306
   
   with help from (in alphabetical order)
   P. Atkinson, C. Bannwarth, F. Bohle, G. Brandenburg, E. Caldeweyher
   M. Checinski, S. Dohm, S. Ehlert, S. Ehrlich, I. Gerasimov, C. Hölzer
   A. Katbashev, J. Koopman, C. Lavigne, S. Lehtola, F. März, M. Müller,
   F. Musil, H. Neugebauer, J. Pisarek, C. Plett, P. Pracht, F. Pultar,
   J. Seibert, P. Shushkov, S. Spicher, M. Stahn, M. Steiner, T. Strunk,
   J. Stückrath, T. Rose, and J. Unsleber
   
 * started run on 2024/06/05 at 20:00:17.968     

           -------------------------------------------------
          |                Calculation Setup                |
           -------------------------------------------------

          program call               : xtb xtbopt.xyz --opt crude --input .xc2 --gfn2
          hostname                   : n-62-11-66
          coordinate file            : xtbopt.xyz
          omp threads                :                     1

   ID    Z sym.   atoms
    1    6 C      1, 3, 5-7, 10, 11, 14
    2    7 N      2, 4, 9, 13
    3    8 O      8, 12
    4    1 H      15-25
########################################################################
[WARNING] Please study the warnings concerning your input carefully
-1- readin_getIntValue: could not parse ''
########################################################################

           -------------------------------------------------
          |                 G F N 2 - x T B                 |
           -------------------------------------------------

        Reference                      10.1021/acs.jctc.8b01176
      * Hamiltonian:
        H0-scaling (s, p, d)           1.850000    2.230000    2.230000
        zeta-weighting                 0.500000
      * Dispersion:
        s8                             2.700000
        a1                             0.520000
        a2                             5.000000
        s9                             5.000000
      * Repulsion:
        kExp                           1.500000    1.000000
        rExp                           1.000000
      * Coulomb:
        alpha                          2.000000
        third order                    shell-resolved
        anisotropic                    true
        a3                             3.000000
        a5                             4.000000
        cn-shift                       1.200000
        cn-exp                         4.000000
        max-rad                        5.000000

q/qsh data taken from xtbrestart
CAMM data taken from xtbrestart

          ...................................................
          :                      SETUP                      :
          :.................................................:
          :  # basis functions                  67          :
          :  # atomic orbitals                  67          :
          :  # shells                           39          :
          :  # electrons                        74          :
          :  max. iterations                   250          :
          :  Hamiltonian                  GFN2-xTB          :
          :  restarted?                       true          :
          :  GBSA solvation                  false          :
          :  PC potential                    false          :
          :  electronic temp.         5000.0000000     K    :
          :  accuracy                    1.0000000          :
          :  -> integral cutoff          0.2500000E+02      :
          :  -> integral neglect         0.1000000E-07      :
          :  -> SCF convergence          0.1000000E-05 Eh   :
          :  -> wf. convergence          0.1000000E-03 e    :
          :  Broyden damping             0.4000000          :
          ...................................................

 iter      E             dE          RMSdq      gap      omega  full diag
   1    -42.7401419 -0.427401E+02  0.928E-06    2.79       0.0  T
   2    -42.7401419 -0.305533E-12  0.637E-06    2.79    3137.8  T
   3    -42.7401419 -0.710543E-12  0.337E-06    2.79    5933.0  T

   *** convergence criteria satisfied after 3 iterations ***

         #    Occupation            Energy/Eh            Energy/eV
      -------------------------------------------------------------
         1        2.0000           -0.9128744             -24.8406
       ...           ...                  ...                  ...
        31        1.9997           -0.6206997             -16.8901
        32        1.9997           -0.6185560             -16.8318
        33        1.9993           -0.6038798             -16.4324
        34        1.9970           -0.5816641             -15.8279
        35        1.9953           -0.5746239             -15.6363
        36        1.9584           -0.5397931             -14.6885
        37        1.9381           -0.5333546             -14.5133 (HOMO)
        38        0.0914           -0.4306992             -11.7199 (LUMO)
        39        0.0192           -0.4054206             -11.0321
        40        0.0025           -0.3727417             -10.1428
        41        0.0000           -0.2947213              -8.0198
        42                         -0.2088658              -5.6835
       ...                                ...                  ...
        67                          0.5313486              14.4587
      -------------------------------------------------------------
                  HL-Gap            0.1026554 Eh            2.7934 eV
             Fermi-level           -0.4788139 Eh          -13.0292 eV

 SCC (total)                   0 d,  0 h,  0 min,  0.022 sec
 SCC setup                      ...        0 min,  0.000 sec (  0.987%)
 Dispersion                     ...        0 min,  0.000 sec (  1.152%)
 classical contributions        ...        0 min,  0.000 sec (  0.317%)
 integral evaluation            ...        0 min,  0.004 sec ( 20.003%)
 iterations                     ...        0 min,  0.005 sec ( 24.834%)
 molecular gradient             ...        0 min,  0.011 sec ( 52.051%)
 printout                       ...        0 min,  0.000 sec (  0.625%)

         :::::::::::::::::::::::::::::::::::::::::::::::::::::
         ::                     SUMMARY                     ::
         :::::::::::::::::::::::::::::::::::::::::::::::::::::
         :: total energy             -42.219882191243 Eh    ::
         :: gradient norm              0.029495738454 Eh/a0 ::
         :: HOMO-LUMO gap              2.793395073170 eV    ::
         ::.................................................::
         :: SCC energy               -42.740141901306 Eh    ::
         :: -> isotropic ES            0.133301709119 Eh    ::
         :: -> anisotropic ES         -0.007699618150 Eh    ::
         :: -> anisotropic XC          0.016287655596 Eh    ::
         :: -> dispersion             -0.021894683594 Eh    ::
         :: repulsion energy           0.520169846172 Eh    ::
         :: add. restraining           0.000000000000 Eh    ::
         :: total charge               1.000000000000 e     ::
         :::::::::::::::::::::::::::::::::::::::::::::::::::::

      ----------------------------------------------------------- 
     |                   =====================                   |
     |                        A N C O P T                        |
     |                   =====================                   |
     |               Approximate Normal Coordinate               |
     |                Rational Function Optimizer                |
      ----------------------------------------------------------- 

          ...................................................
          :                      SETUP                      :
          :.................................................:
          :   optimization level             crude          :
          :   max. optcycles                   200          :
          :   ANC micro-cycles                  20          :
          :   degrees of freedom                69          :
          :.................................................:
          :   RF solver                   davidson          :
          :   write xtbopt.log                true          :
          :   linear?                        false          :
          :   energy convergence         0.5000000E-03 Eh   :
          :   grad. convergence          0.1000000E-01 Eh/α :
          :   maxmium RF displ.          1.0000000          :
          :   Hlow (freq-cutoff)         0.1000000E-01      :
          :   Hmax (freq-cutoff)         5.0000000          :
          :   S6 in model hess.         20.0000000          :
          ...................................................

generating ANC from model Hessian ...
Using Lindh-Hessian (1995)
 Shifting diagonal of input Hessian by    8.0222424299403756E-003
 Lowest  eigenvalues of input Hessian
    0.000000    0.000000    0.000000    0.000000    0.000000    0.000000
    0.010000    0.011331    0.012421    0.013491    0.015630    0.019043
    0.019621    0.021553    0.025770    0.028124    0.034410    0.041414
 Highest eigenvalues
    2.062909    2.145556    2.215775    2.265749    2.317210    2.512936


........................................................................
.............................. CYCLE    1 ..............................
........................................................................

 iter      E             dE          RMSdq      gap      omega  full diag
   1    -42.7401419 -0.427401E+02  0.100E-06    2.79       0.0  T
   2    -42.7401419 -0.994760E-13  0.707E-07    2.79   28283.0  T
   3    -42.7401419 -0.781597E-13  0.441E-07    2.79   45320.8  T
     SCC iter.                  ...        0 min,  0.004 sec
     gradient                   ...        0 min,  0.011 sec
 * total energy  :   -42.2198822 Eh     change       -0.4973799E-13 Eh
   gradient norm :     0.0294957 Eh/α   predicted     0.0000000E+00 (-100.00%)
   displ. norm   :     0.1624881 α      lambda       -0.2889724E-02
   maximum displ.:     0.0852330 α      in ANC's #4, #39, #19, ...

........................................................................
.............................. CYCLE    2 ..............................
........................................................................

 iter      E             dE          RMSdq      gap      omega  full diag
   1    -42.7510258 -0.427510E+02  0.112E-01    2.75       0.0  T
   2    -42.7511049 -0.790834E-04  0.749E-02    2.76       1.0  T
   3    -42.7511198 -0.148614E-04  0.425E-02    2.76       1.0  T
   4    -42.7511235 -0.377160E-05  0.129E-02    2.76       1.6  T
   5    -42.7511260 -0.240541E-05  0.301E-03    2.76       6.6  T
   6    -42.7511261 -0.151953E-06  0.143E-03    2.76      14.0  T
   7    -42.7511261 -0.326694E-08  0.599E-04    2.76      33.4  T
   8    -42.7511261 -0.282195E-08  0.251E-04    2.76      79.5  T
     SCC iter.                  ...        0 min,  0.010 sec
     gradient                   ...        0 min,  0.011 sec
 * total energy  :   -42.2218909 Eh     change       -0.2008756E-02 Eh
   gradient norm :     0.0110324 Eh/α   predicted    -0.1483045E-02 ( -26.17%)
   displ. norm   :     0.1727636 α      lambda       -0.9821604E-03
   maximum displ.:     0.1156551 α      in ANC's #4, #6, #17, ...

........................................................................
.............................. CYCLE    3 ..............................
........................................................................

 iter      E             dE          RMSdq      gap      omega  full diag
   1    -42.7544679 -0.427545E+02  0.886E-02    2.71       0.0  T
   2    -42.7545193 -0.514405E-04  0.577E-02    2.71       1.0  T
   3    -42.7545258 -0.652537E-05  0.326E-02    2.72       1.0  T
   4    -42.7545278 -0.191633E-05  0.120E-02    2.71       1.7  T
   5    -42.7545297 -0.195229E-05  0.200E-03    2.72      10.0  T
   6    -42.7545298 -0.565026E-07  0.993E-04    2.72      20.1  T
   7    -42.7545298 -0.156944E-08  0.393E-04    2.72      50.9  T
     SCC iter.                  ...        0 min,  0.009 sec
     gradient                   ...        0 min,  0.011 sec
 * total energy  :   -42.2224485 Eh     change       -0.5575329E-03 Eh
   gradient norm :     0.0068700 Eh/α   predicted    -0.5058116E-03 (  -9.28%)
   displ. norm   :     0.0876985 α      lambda       -0.1123467E-03
   maximum displ.:     0.0685967 α      in ANC's #4, #6, #3, ...

........................................................................
.............................. CYCLE    4 ..............................
........................................................................

 iter      E             dE          RMSdq      gap      omega  full diag
   1    -42.7537162 -0.427537E+02  0.252E-02    2.71       0.0  T
   2    -42.7537183 -0.212729E-05  0.150E-02    2.70       1.3  T
   3    -42.7537182  0.135601E-06  0.692E-03    2.71       2.9  T
   4    -42.7537184 -0.222192E-06  0.288E-03    2.70       6.9  T
   5    -42.7537185 -0.153294E-06  0.510E-04    2.70      39.2  T
   6    -42.7537185 -0.107415E-08  0.299E-04    2.70      66.8  T
     SCC iter.                  ...        0 min,  0.008 sec
     gradient                   ...        0 min,  0.011 sec
 * total energy  :   -42.2225351 Eh     change       -0.8662335E-04 Eh
   gradient norm :     0.0040172 Eh/α   predicted    -0.5660558E-04 ( -34.65%)
   displ. norm   :     0.1344907 α      lambda       -0.1162950E-03
   maximum displ.:     0.1039195 α      in ANC's #4, #6, #3, ...

   *** GEOMETRY OPTIMIZATION CONVERGED AFTER 4 ITERATIONS ***

------------------------------------------------------------------------
 total energy gain   :        -0.0026529 Eh       -1.6647 kcal/mol
 total RMSD          :         0.0810375 a0        0.0429 Å
 total power (kW/mol):        -1.7413049 (step)  -66.6831 (real)
------------------------------------------------------------------------

 ANCopt (total)                0 d,  0 h,  0 min,  0.104 sec
 optimizer setup                ...        0 min,  0.000 sec (  0.305%)
 model hessian                  ...        0 min,  0.005 sec (  5.255%)
 ANC generation                 ...        0 min,  0.001 sec (  0.692%)
 coordinate transformation      ...        0 min,  0.000 sec (  0.034%)
 single point calculation       ...        0 min,  0.096 sec ( 91.666%)
 optimization log               ...        0 min,  0.001 sec (  1.418%)
 hessian update                 ...        0 min,  0.000 sec (  0.041%)
 rational function              ...        0 min,  0.000 sec (  0.289%)

================
 final structure:
================
25
 xtb: 6.6.1 (8d0f1dd)
C            2.66247692952798        1.36887057706487        0.23422880910566
N            1.94327321093608        0.13176027886885        0.13158460620801
C            2.44968746754079       -1.09693631864220        0.09715385593693
N            1.44786728403889       -2.00028426295729       -0.03068077242184
C            0.27003181843120       -1.31689896145670       -0.07958514314306
C            0.58114342785681        0.02871946635944        0.02233970820512
C           -0.46170252538220        1.01693208007623        0.02643100466015
O           -1.73352347674575        0.45200907745740       -0.12386917326822
N           -0.25265687935279        2.24532950462258        0.15599369889416
C           -1.24349105210138        3.26504733055358        0.18354833111824
C           -2.05307767037471       -0.84036374547971       -0.24511984308974
O           -3.17921751376366       -1.19117034710613       -0.37748593672421
N           -0.99128590145789       -1.78126929899452       -0.20284870522651
C           -1.28561200981935       -3.19786603236668       -0.29147724874864
H            2.16439859959461        2.01519398862494        0.95597878529549
H            3.68893278222252        1.17851299316135        0.53794443618771
H            2.65569864096094        1.88383939768986       -0.72762692263144
H            3.48966017855156       -1.34542140049666        0.16253846388022
H           -0.86538695968455        4.10268349139945       -0.40304648906515
H           -2.21741482885506        2.94376941679874       -0.18931787144644
H           -1.34730169354396        3.60640055038545        1.21547940474250
H           -0.92514260989357       -3.71588320032937        0.59792712614129
H           -0.83450131751203       -3.62672603421325       -1.18693641207154
H           -2.36738836723235       -3.30587365316953       -0.35352180708470
H            1.56496398016291       -3.00213635624249       -0.07846028755782

 Bond Distances (Angstroems)
 ---------------------------
C1-N2=1.4347         C1-H15=1.0894        C1-H16=1.0872        C1-H17=1.0911        N2-C1=1.4347         N2-C3=1.3294         
N2-C6=1.3704         C3-N2=1.3294         C3-N4=1.3550         C3-H18=1.0712        N4-C3=1.3550         N4-C5=1.3626         
N4-H25=1.0098        C5-N4=1.3626         C5-C6=1.3849         C5-N13=1.3497        C6-N2=1.3704         C6-C5=1.3849         
C6-C7=1.4367         C7-C6=1.4367         C7-O8=1.3997         C7-N9=1.2528         O8-C7=1.3997         O8-C11=1.3368        
N9-C7=1.2528         N9-C10=1.4221        C10-N9=1.4221        C10-H19=1.0903       C10-H20=1.0912       C10-H21=1.0919       
C11-O8=1.3368        C11-O12=1.1869       C11-N13=1.4193       O12-C11=1.1869       N13-C5=1.3497        N13-C11=1.4193       
N13-C14=1.4496       C14-N13=1.4496       C14-H22=1.0906       C14-H23=1.0905       C14-H24=1.0889       H15-C1=1.0894        
H16-C1=1.0872        H17-C1=1.0911        H18-C3=1.0712        H19-C10=1.0903       H20-C10=1.0912       H21-C10=1.0919       
H22-C14=1.0906       H23-C14=1.0905       H24-C14=1.0889       H25-N4=1.0098        
 C  H  Rav=1.0882 sigma=0.0058  Rmin=1.0712  Rmax=1.0919    10
 C  C  Rav=1.4108 sigma=0.0259  Rmin=1.3849  Rmax=1.4367     2
 N  H  Rav=1.0098 sigma=0.0000  Rmin=1.0098  Rmax=1.0098     1
 N  C  Rav=1.3746 sigma=0.0562  Rmin=1.2528  Rmax=1.4496    10
 O  C  Rav=1.3078 sigma=0.0893  Rmin=1.1869  Rmax=1.3997     3

 selected bond angles (degree)
 --------------------
H15-C1-N2=109.26               H16-C1-N2=110.02               H16-C1-H15=110.52              H17-C1-N2=109.93               
H17-C1-H15=107.53              H17-C1-H16=109.56              C3-N2-C1=127.44                C6-N2-C1=124.67                
C6-N2-C3=107.88                N4-C3-N2=109.69                H18-C3-N2=125.63               H18-C3-N4=124.67               
C5-N4-C3=107.95                H25-N4-C3=125.46               H25-N4-C5=126.59               C6-C5-N4=106.89                
N13-C5-N4=129.68               N13-C5-C6=123.43               C5-C6-N2=107.59                C7-C6-N2=132.03                
C7-C6-C5=120.36                O8-C7-C6=112.43                N9-C7-C6=123.62                N9-C7-O8=123.95                
C11-O8-C7=128.11               C10-N9-C7=126.07               H19-C10-N9=107.39              H20-C10-N9=113.84              
H20-C10-H19=110.60             H21-C10-N9=107.98              H21-C10-H19=107.53             H21-C10-H20=109.28             

 selected dihedral angles (degree)
 ---------------------------------
C3-N2-C1-H15=224.00           C3-N2-C1-H16=345.49           C3-N2-C1-H17=106.23           C6-N2-C1-H15= 45.46           
C6-N2-C1-H16=166.95           C6-N2-C1-H17=287.68           N4-C3-N2-C1=181.19            N4-C3-N2-C6=359.93            
H18-C3-N2-C1=  1.34           H18-C3-N2-C6=180.09           C5-N4-C3-N2=  0.05            C5-N4-C3-H18=179.90           
H25-N4-C3-N2=180.16           H25-N4-C3-H18=  0.00          C6-C5-N4-C3=  0.00            C6-C5-N4-H25=179.87           
N13-C5-N4-C3=179.92           N13-C5-N4-H25=359.81          C5-C6-N2-C1=178.84            C5-C6-N2-C3=  0.06            
C7-C6-N2-C1=357.48            C7-C6-N2-C3=178.69            N2-C6-C5-N4=359.97            N2-C6-C5-N13=180.03           
C7-C6-C5-N4=181.15            C7-C6-C5-N13=  1.21           O8-C7-C6-N2=179.57            O8-C7-C6-C5=358.06            
N9-C7-C6-N2=359.28            N9-C7-C6-C5=177.77            C11-O8-C7-C6=  0.94           C11-O8-C7-N9=181.23           
C10-N9-C7-C6=180.81           C10-N9-C7-O8=  0.49           H19-C10-N9-C7=221.29          H20-C10-N9-C7=344.07          
H21-C10-N9-C7=105.59          
           -------------------------------------------------
          |                Final Singlepoint                |
           -------------------------------------------------

          ...................................................
          :                      SETUP                      :
          :.................................................:
          :  # basis functions                  67          :
          :  # atomic orbitals                  67          :
          :  # shells                           39          :
          :  # electrons                        74          :
          :  max. iterations                   250          :
          :  Hamiltonian                  GFN2-xTB          :
          :  restarted?                      false          :
          :  GBSA solvation                  false          :
          :  PC potential                    false          :
          :  electronic temp.         5000.0000000     K    :
          :  accuracy                    1.0000000          :
          :  -> integral cutoff          0.2500000E+02      :
          :  -> integral neglect         0.1000000E-07      :
          :  -> SCF convergence          0.1000000E-05 Eh   :
          :  -> wf. convergence          0.1000000E-03 e    :
          :  Broyden damping             0.4000000          :
          ...................................................

 iter      E             dE          RMSdq      gap      omega  full diag
   1    -42.7537185 -0.427537E+02  0.139E-04    2.70       0.0  T
   2    -42.7537185 -0.575753E-10  0.952E-05    2.70     210.1  T
   3    -42.7537185 -0.144780E-09  0.570E-05    2.70     351.2  T

   *** convergence criteria satisfied after 3 iterations ***

         #    Occupation            Energy/Eh            Energy/eV
      -------------------------------------------------------------
         1        2.0000           -0.9127068             -24.8360
       ...           ...                  ...                  ...
        31        1.9998           -0.6212530             -16.9052
        32        1.9997           -0.6188500             -16.8398
        33        1.9994           -0.6044366             -16.4476
        34        1.9974           -0.5819317             -15.8352
        35        1.9957           -0.5739218             -15.6172
        36        1.9627           -0.5395410             -14.6817
        37        1.9281           -0.5288657             -14.3912 (HOMO)
        38        0.0962           -0.4295161             -11.6877 (LUMO)
        39        0.0193           -0.4034573             -10.9786
        40        0.0023           -0.3694457             -10.0531
        41        0.0000           -0.2893528              -7.8737
        42                         -0.1989183              -5.4128
       ...                                ...                  ...
        67                          0.5552252              15.1084
      -------------------------------------------------------------
                  HL-Gap            0.0993496 Eh            2.7034 eV
             Fermi-level           -0.4767862 Eh          -12.9740 eV

 SCC (total)                   0 d,  0 h,  0 min,  0.020 sec
 SCC setup                      ...        0 min,  0.000 sec (  0.882%)
 Dispersion                     ...        0 min,  0.000 sec (  0.789%)
 classical contributions        ...        0 min,  0.000 sec (  0.317%)
 integral evaluation            ...        0 min,  0.004 sec ( 20.445%)
 iterations                     ...        0 min,  0.004 sec ( 21.422%)
 molecular gradient             ...        0 min,  0.011 sec ( 55.543%)
 printout                       ...        0 min,  0.000 sec (  0.569%)

         :::::::::::::::::::::::::::::::::::::::::::::::::::::
         ::                     SUMMARY                     ::
         :::::::::::::::::::::::::::::::::::::::::::::::::::::
         :: total energy             -42.222535104193 Eh    ::
         :: gradient norm              0.004018675426 Eh/a0 ::
         :: HOMO-LUMO gap              2.703440208778 eV    ::
         ::.................................................::
         :: SCC energy               -42.753718542940 Eh    ::
         :: -> isotropic ES            0.132487616398 Eh    ::
         :: -> anisotropic ES         -0.007281418177 Eh    ::
         :: -> anisotropic XC          0.015977682731 Eh    ::
         :: -> dispersion             -0.021948980066 Eh    ::
         :: repulsion energy           0.531092220422 Eh    ::
         :: add. restraining           0.000000000000 Eh    ::
         :: total charge               1.000000000000 e     ::
         :::::::::::::::::::::::::::::::::::::::::::::::::::::

           -------------------------------------------------
          |                Property Printout                |
           -------------------------------------------------

    * Orbital Energies and Occupations

         #    Occupation            Energy/Eh            Energy/eV
      -------------------------------------------------------------
         1        2.0000           -0.9127068             -24.8360
       ...           ...                  ...                  ...
        25        2.0000           -0.6659525             -18.1215
        26        2.0000           -0.6615162             -18.0008
        27        1.9999           -0.6427365             -17.4898
        28        1.9999           -0.6392941             -17.3961
        29        1.9998           -0.6244101             -16.9911
        30        1.9998           -0.6232176             -16.9586
        31        1.9998           -0.6212530             -16.9052
        32        1.9997           -0.6188500             -16.8398
        33        1.9994           -0.6044366             -16.4476
        34        1.9974           -0.5819317             -15.8352
        35        1.9957           -0.5739218             -15.6172
        36        1.9627           -0.5395410             -14.6817
        37        1.9281           -0.5288657             -14.3912 (HOMO)
        38        0.0962           -0.4295161             -11.6877 (LUMO)
        39        0.0193           -0.4034573             -10.9786
        40        0.0023           -0.3694457             -10.0531
        41        0.0000           -0.2893528              -7.8737
        42                         -0.1989183              -5.4128
        43                         -0.1904438              -5.1822
        44                         -0.1493177              -4.0631
        45                         -0.1365003              -3.7144
        46                         -0.0808942              -2.2012
        47                         -0.0616374              -1.6772
        48                         -0.0425718              -1.1584
       ...                                ...                  ...
        67                          0.5552252              15.1084
      -------------------------------------------------------------
                  HL-Gap            0.0993496 Eh            2.7034 eV
             Fermi-level           -0.4767862 Eh          -12.9740 eV

     #   Z          covCN         q      C6AA      α(0)
     1   6 C        3.692    -0.096    22.532     6.792
     2   7 N        2.833     0.081    19.833     6.614
     3   6 C        3.059     0.046    26.914     8.508
     4   7 N        2.797    -0.062    22.437     7.035
     5   6 C        3.044     0.120    25.319     8.253
     6   6 C        3.125    -0.010    28.080     8.677
     7   6 C        2.777     0.221    23.341     7.913
     8   8 O        1.707    -0.238    17.946     5.720
     9   7 N        1.829    -0.200    26.175     7.581
    10   6 C        3.702    -0.042    21.478     6.627
    11   6 C        2.653     0.408    20.127     7.340
    12   8 O        0.858    -0.329    20.318     6.043
    13   7 N        2.734    -0.081    22.814     7.094
    14   6 C        3.695    -0.070    22.025     6.714
    15   1 H        0.925     0.126     1.567     1.958
    16   1 H        0.925     0.107     1.724     2.053
    17   1 H        0.924     0.117     1.634     1.999
    18   1 H        0.926     0.124     1.581     1.966
    19   1 H        0.924     0.093     1.848     2.126
    20   1 H        0.924     0.073     2.057     2.243
    21   1 H        0.924     0.095     1.830     2.115
    22   1 H        0.924     0.081     1.969     2.195
    23   1 H        0.924     0.082     1.959     2.189
    24   1 H        0.925     0.124     1.580     1.966
    25   1 H        0.860     0.230     0.963     1.537

 Mol. C6AA /au·bohr⁶  :       6537.392584
 Mol. C8AA /au·bohr⁸  :     149822.002400
 Mol. α(0) /au        :        123.257000


Wiberg/Mayer (AO) data.
largest (>0.10) Wiberg bond orders for each atom

 ---------------------------------------------------------------------------
     #   Z sym  total        # sym  WBO       # sym  WBO       # sym  WBO
 ---------------------------------------------------------------------------
     1   6 C    3.921 --     2 N    0.990    16 H    0.973    15 H    0.957
                            17 H    0.952
     2   7 N    3.678 --     3 C    1.378     6 C    1.165     1 C    0.990
     3   6 C    3.842 --     2 N    1.378     4 N    1.264    18 H    0.953
     4   7 N    3.585 --     3 C    1.264     5 C    1.194    25 H    0.919
     5   6 C    3.938 --     6 C    1.357    13 N    1.194     4 N    1.194
     6   6 C    3.916 --     5 C    1.357     2 N    1.165     7 C    1.096
     7   6 C    3.910 --     9 N    1.739     6 C    1.096     8 O    0.944
     8   8 O    2.366 --    11 C    1.084     7 C    0.944    12 O    0.134
                             9 N    0.107
     9   7 N    3.058 --     7 C    1.739    10 C    1.041     8 O    0.107
    10   6 C    3.941 --     9 N    1.041    20 H    0.962    19 H    0.953
                            21 H    0.937
    11   6 C    3.936 --    12 O    1.757     8 O    1.084    13 N    1.021
    12   8 O    2.105 --    11 C    1.757     8 O    0.134    13 N    0.126
    13   7 N    3.526 --     5 C    1.194    11 C    1.021    14 C    0.975
                            12 O    0.126
    14   6 C    3.926 --    13 N    0.975    22 H    0.972    23 H    0.971
                            24 H    0.966
    15   1 H    0.983 --     1 C    0.957
    16   1 H    0.988 --     1 C    0.973
    17   1 H    0.983 --     1 C    0.952
    18   1 H    0.984 --     3 C    0.953
    19   1 H    0.978 --    10 C    0.953
    20   1 H    0.977 --    10 C    0.962
    21   1 H    0.975 --    10 C    0.937
    22   1 H    0.990 --    14 C    0.972
    23   1 H    0.990 --    14 C    0.971
    24   1 H    0.984 --    14 C    0.966
    25   1 H    0.946 --     4 N    0.919
 ---------------------------------------------------------------------------

Topologies differ in total number of bonds
Writing topology from bond orders to xtbtopo.mol

molecular dipole:
                 x           y           z       tot (Debye)
 q only:        3.227      -1.103       0.204
   full:        3.320      -1.557       0.182       9.333
molecular quadrupole (traceless):
                xx          xy          yy          xz          yz          zz
 q only:       -1.930      -4.069      20.492       0.201       2.447     -18.562
  q+dip:       -4.073      -9.340      19.756      -0.675       1.831     -15.683
   full:       -5.005      -8.950      19.324      -0.849       1.704     -14.319

           -------------------------------------------------
          |                Geometry Summary                 |
           -------------------------------------------------

      molecular mass/u    :      195.1988581
   center of mass at/Å    :       -0.1661698      -0.2051042      -0.0377025
  moments of inertia/u·Å² :        0.5696863E+03   0.6727981E+03   0.1232663E+04
rotational constants/cm⁻¹ :        0.2959108E-01   0.2505600E-01   0.1367579E-01

 * 25 selected distances

     #   Z          #   Z                                           value/Å
     1   6 C        2   7 N                                       1.4346540
     2   7 N        3   6 C                                       1.3294121
     3   6 C        4   7 N                                       1.3549993
     4   7 N        5   6 C                                       1.3626092
     2   7 N        6   6 C                                       1.3703831
     5   6 C        6   6 C                                       1.3848713
     6   6 C        7   6 C                                       1.4367007
     7   6 C        9   7 N                                       1.2527758
     9   7 N       10   6 C                                       1.4220888
     8   8 O       11   6 C                                       1.3368038
    11   6 C       12   8 O                                       1.1869192
     5   6 C       13   7 N                                       1.3497246
    11   6 C       13   7 N                                       1.4193281
    13   7 N       14   6 C                                       1.4495619 (max)
     1   6 C       15   1 H                                       1.0893756
     1   6 C       16   1 H                                       1.0872401
     1   6 C       17   1 H                                       1.0910571
     3   6 C       18   1 H                                       1.0712439
    10   6 C       19   1 H                                       1.0902710
    10   6 C       20   1 H                                       1.0912270
    10   6 C       21   1 H                                       1.0918702
    14   6 C       22   1 H                                       1.0905596
    14   6 C       23   1 H                                       1.0905361
    14   6 C       24   1 H                                       1.0889240
     4   7 N       25   1 H                                       1.0098031 (min)

 * 5 distinct bonds (by element types)

   Z      Z             #   av. dist./Å        max./Å        min./Å
   1 H    6 C          10     1.0882305     1.0918702     1.0712439
   6 C    6 C           2     1.4107860     1.4367007     1.3848713
   1 H    7 N           1     1.0098031     1.0098031     1.0098031
   6 C    7 N          10     1.3745537     1.4495619     1.2527758
   6 C    8 O           2     1.2618615     1.3368038     1.1869192


optimized geometry written to: xtbopt.xyz


           -------------------------------------------------
          | TOTAL ENERGY              -42.222535104193 Eh   |
          | GRADIENT NORM               0.004018675426 Eh/α |
          | HOMO-LUMO GAP               2.703440208778 eV   |
           -------------------------------------------------

------------------------------------------------------------------------
 * finished run on 2024/06/05 at 20:00:18.154     
------------------------------------------------------------------------
 total:
 * wall-time:     0 d,  0 h,  0 min,  0.186 sec
 *  cpu-time:     0 d,  0 h,  0 min,  0.159 sec
 * ratio c/w:     0.854 speedup
 SCF:
 * wall-time:     0 d,  0 h,  0 min,  0.022 sec
 *  cpu-time:     0 d,  0 h,  0 min,  0.022 sec
 * ratio c/w:     0.999 speedup
 ANC optimizer:
 * wall-time:     0 d,  0 h,  0 min,  0.130 sec
 *  cpu-time:     0 d,  0 h,  0 min,  0.124 sec
 * ratio c/w:     0.958 speedup

