72
 energy: -99.651270347152 xtb: 6.6.1 (8d0f1dd)
N           -1.96684981770685        3.12190199625480        2.57697487094799
C           -1.81699769913615        2.31792869347456        1.62648894828639
C           -2.81622078512013        2.15877828091139        0.51126868630042
C           -3.34591087239234        0.73318497320700        0.50502887334002
C           -4.14180846214650        0.28521950705934       -0.55240515383381
C           -4.65965374346760       -0.99631769240490       -0.57518653495013
O           -5.45439743884366       -1.50790389920993       -1.55712578803050
C           -5.89408448430174       -0.66196003070329       -2.58871327427638
C           -4.36605263651909       -1.88683030023755        0.48269907540457
O           -4.89956056253803       -3.13439501344937        0.36280762481912
C           -4.69603915738444       -4.05754031294933        1.40152094589170
C           -3.58868487004510       -1.43933983919010        1.53357621321018
C           -3.09057410104363       -0.14141871096161        1.54467570575445
C           -2.04529579382931        2.45389644149608       -0.80340805663051
C           -1.13443451529330        1.32706649732121       -1.32008654111063
C            0.09670294671211        1.14071638309750       -0.50826299509285
N            0.62734925176780       -0.02024308411278       -0.15088177914314
C            1.78261792728305       -0.13502897781103        0.49057482950964
C            3.53268286914848       -1.22841334352026       -2.41057475661211
C            4.66077677360353       -0.90776493613553       -1.68844632305407
C            5.38539741046582        0.28747098182994       -1.92597899474809
C            6.51792723974076        0.59866638674699       -1.21172889251697
C            6.97265512401989       -0.23985895553099       -0.19903978790802
O            8.04045208815899       -0.00883639289351        0.61352630303362
C            8.80646341650958        1.15245085162013        0.42390163819923
C            6.28879600694187       -1.46304201505090        0.04332537019985
O            6.82856191728188       -2.22038515622592        1.04319842530992
C            6.28398018747949       -3.48887023235321        1.29704044732418
C            5.17996423753706       -1.78367283814580       -0.68990709366456
C           -0.09901277641405       -1.24608516706454       -0.44504917387297
C           -4.03173861032868        3.12233764217524        0.63172686155481
C           -4.85044899153680        2.84133899448475        1.89119096772777
C           -3.64014450856489        4.59865573322131        0.59807771235418
H           -4.36364102875145        0.95719136685993       -1.36530201356511
H           -6.44580519440556        0.20028259159780       -2.20027042076605
H           -6.56188561095570       -1.26845856591159       -3.19892451004981
H           -5.06364803048592       -0.31151604028350       -3.21025216118395
H           -5.11887222078108       -3.70391290332055        2.34758661529463
H           -5.21761542070139       -4.96136209530385        1.09069390570417
H           -3.63394341392825       -4.28501111259016        1.54228217058497
H           -3.36515860941238       -2.08755382218092        2.36604832756383
H           -2.51246348382607        0.18026815396851        2.39672478116304
H           -2.77371352828505        2.67446337123364       -1.58496021020856
H           -1.44216484179833        3.35117333843285       -0.65761741360631
H           -1.71080882328138        0.40657759205706       -1.39237133753411
H           -0.84458482362201        1.61168490216658       -2.34210833196244
H           -0.92952394129500        1.68627229106001        1.49365696977512
H            0.70086560629037        2.00989430539338       -0.31061375064795
H            2.12141661257489       -1.08801414068510        0.83106912256907
H            2.32752977731584        0.74649636186247        0.76038258172086
H            3.16407176066883       -0.58294271611037       -3.18622454211216
H            3.02821080638879       -2.16854024342577       -2.26998868682477
H            5.04871328920200        0.94609612521108       -2.71145338159930
H            7.03697694229359        1.52228077807941       -1.42185145991275
H            8.21326485523935        2.06034251639184        0.57878466985400
H            9.25791343342076        1.17948549846676       -0.57632594175833
H            9.58918461885226        1.10509781753792        1.17938867229233
H            6.89410943276941       -3.91255011426097        2.09311862092876
H            5.24722819766861       -3.42733766094222        1.64553955283719
H            6.32924130547590       -4.13107521804539        0.41075042194711
H            4.65401364213157       -2.70949105754457       -0.52413324033968
H           -0.17892642346067       -1.38997232928142       -1.52341537638675
H           -1.10214551813654       -1.20904058364774       -0.01524903718995
H            0.43242315245222       -2.09288933065135       -0.01798302583782
H           -4.67488865912352        2.92565929839208       -0.23502744768709
H           -4.26390313034246        3.07096660201413        2.77338970968275
H           -5.15843086834195        1.79933143926660        1.93279605556313
H           -5.74275904064605        3.46353913182453        1.89657645958839
H           -2.96719139101556        4.82253349382908        1.41846858204140
H           -3.16458572034446        4.86816961821437       -0.34073386044969
H           -4.53281448153881        5.21035912130235        0.70923679402914
H           -1.21073365313963        3.15506826024628        3.25700793267398
