      -----------------------------------------------------------      
     |                   =====================                   |     
     |                           x T B                           |     
     |                   =====================                   |     
     |                         S. Grimme                         |     
     |          Mulliken Center for Theoretical Chemistry        |     
     |                    University of Bonn                     |     
      -----------------------------------------------------------      

   * xtb version 6.6.1 (8d0f1dd) compiled by 'conda@1efc2f54142f' on 2023-08-01

   xtb is free software: you can redistribute it and/or modify it under
   the terms of the GNU Lesser General Public License as published by
   the Free Software Foundation, either version 3 of the License, or
   (at your option) any later version.
   
   xtb is distributed in the hope that it will be useful,
   but WITHOUT ANY WARRANTY; without even the implied warranty of
   MERCHANTABILITY or FITNESS FOR A PARTICULAR PURPOSE.  See the
   GNU Lesser General Public License for more details.
   
   Cite this work as:
   * C. Bannwarth, E. Caldeweyher, S. Ehlert, A. Hansen, P. Pracht,
     J. Seibert, S. Spicher, S. Grimme, WIREs Comput. Mol. Sci., 2020, 11,
     e01493. DOI: 10.1002/wcms.1493
   
   for GFN2-xTB:
   * C. Bannwarth, S. Ehlert and S. Grimme., J. Chem. Theory Comput., 2019,
     15, 1652-1671. DOI: 10.1021/acs.jctc.8b01176
   for GFN1-xTB:
   * S. Grimme, C. Bannwarth, P. Shushkov, J. Chem. Theory Comput., 2017,
     13, 1989-2009. DOI: 10.1021/acs.jctc.7b00118
   for GFN0-xTB:
   * P. Pracht, E. Caldeweyher, S. Ehlert, S. Grimme, ChemRxiv, 2019, preprint.
     DOI: 10.26434/chemrxiv.8326202.v1
   for GFN-FF:
   * S. Spicher and S. Grimme, Angew. Chem. Int. Ed., 2020, 59, 15665-15673.
     DOI: 10.1002/anie.202004239
   
   for ALPB and GBSA implicit solvation:
   * S. Ehlert, M. Stahn, S. Spicher, S. Grimme, J. Chem. Theory Comput.,
     2021, 17, 4250-4261. DOI: 10.1021/acs.jctc.1c00471
   
   for DFT-D4:
   * E. Caldeweyher, C. Bannwarth and S. Grimme, J. Chem. Phys., 2017,
     147, 034112. DOI: 10.1063/1.4993215
   * E. Caldeweyher, S. Ehlert, A. Hansen, H. Neugebauer, S. Spicher,
     C. Bannwarth and S. Grimme, J. Chem. Phys., 2019, 150, 154122.
     DOI: 10.1063/1.5090222
   * E. Caldeweyher, J.-M. Mewes, S. Ehlert and S. Grimme, Phys. Chem. Chem. Phys.
     2020, 22, 8499-8512. DOI: 10.1039/D0CP00502A
   
   for sTDA-xTB:
   * S. Grimme and C. Bannwarth, J. Chem. Phys., 2016, 145, 054103.
     DOI: 10.1063/1.4959605
   
   in the mass-spec context:
   * V. Asgeirsson, C. Bauer and S. Grimme, Chem. Sci., 2017, 8, 4879.
     DOI: 10.1039/c7sc00601b
   * J. Koopman and S. Grimme, ACS Omega 2019, 4, 12, 15120-15133.
     DOI: 10.1021/acsomega.9b02011
   
   for metadynamics refer to:
   * S. Grimme, J. Chem. Theory Comput., 2019, 155, 2847-2862
     DOI: 10.1021/acs.jctc.9b00143
   
   for SPH calculations refer to:
   * S. Spicher and S. Grimme, J. Chem. Theory Comput., 2021, 17, 1701-1714
     DOI: 10.1021/acs.jctc.0c01306
   
   with help from (in alphabetical order)
   P. Atkinson, C. Bannwarth, F. Bohle, G. Brandenburg, E. Caldeweyher
   M. Checinski, S. Dohm, S. Ehlert, S. Ehrlich, I. Gerasimov, C. Hölzer
   A. Katbashev, J. Koopman, C. Lavigne, S. Lehtola, F. März, M. Müller,
   F. Musil, H. Neugebauer, J. Pisarek, C. Plett, P. Pracht, F. Pultar,
   J. Seibert, P. Shushkov, S. Spicher, M. Stahn, M. Steiner, T. Strunk,
   J. Stückrath, T. Rose, and J. Unsleber
   
 * started run on 2024/04/06 at 11:12:52.775     

           -------------------------------------------------
          |                Calculation Setup                |
           -------------------------------------------------

          program call               : xtb xtbopt.xyz --opt crude --input .xc2 --gfn2
          hostname                   : n-62-30-23
          coordinate file            : xtbopt.xyz
          omp threads                :                     1

   ID    Z sym.   atoms
    1    7 N      1, 17
    2    6 C      2-6, 8, 9, 11-16, 18-23, 25, 26, 28-33
    3    8 O      7, 10, 24, 27
    4    1 H      34-72

molecular fragmentation (1/2 indicates fragments):
111111111111111111111111111111111111111211111111111111111111111111111111
# atoms in fragment 1/2:    71     1
 fragment masses (1/2) :      454.60        1.01
CMA distance (Bohr)    :  15.039
constraining FC (au)   :  0.0500
########################################################################
[WARNING] Please study the warnings concerning your input carefully
-1- readin_getIntValue: could not parse ''
########################################################################

           -------------------------------------------------
          |                 G F N 2 - x T B                 |
           -------------------------------------------------

        Reference                      10.1021/acs.jctc.8b01176
      * Hamiltonian:
        H0-scaling (s, p, d)           1.850000    2.230000    2.230000
        zeta-weighting                 0.500000
      * Dispersion:
        s8                             2.700000
        a1                             0.520000
        a2                             5.000000
        s9                             5.000000
      * Repulsion:
        kExp                           1.500000    1.000000
        rExp                           1.000000
      * Coulomb:
        alpha                          2.000000
        third order                    shell-resolved
        anisotropic                    true
        a3                             3.000000
        a5                             4.000000
        cn-shift                       1.200000
        cn-exp                         4.000000
        max-rad                        5.000000

q/qsh data taken from xtbrestart
CAMM data taken from xtbrestart

          ...................................................
          :                      SETUP                      :
          :.................................................:
          :  # basis functions                 171          :
          :  # atomic orbitals                 171          :
          :  # shells                          105          :
          :  # electrons                       180          :
          :  max. iterations                   250          :
          :  Hamiltonian                  GFN2-xTB          :
          :  restarted?                       true          :
          :  GBSA solvation                  false          :
          :  PC potential                    false          :
          :  electronic temp.         5000.0000000     K    :
          :  accuracy                    1.0000000          :
          :  -> integral cutoff          0.2500000E+02      :
          :  -> integral neglect         0.1000000E-07      :
          :  -> SCF convergence          0.1000000E-05 Eh   :
          :  -> wf. convergence          0.1000000E-03 e    :
          :  Broyden damping             0.4000000          :
          ...................................................

 iter      E             dE          RMSdq      gap      omega  full diag
   1   -100.6434029 -0.100643E+03  0.390E-05    0.46       0.0  T
   2   -100.6434029  0.499554E-09  0.729E-05    0.46     161.7  T
   3   -100.6434029 -0.541291E-09  0.243E-05    0.46     484.6  T

   *** convergence criteria satisfied after 3 iterations ***

         #    Occupation            Energy/Eh            Energy/eV
      -------------------------------------------------------------
         1        2.0000           -0.8492138             -23.1083
       ...           ...                  ...                  ...
        84        1.9958           -0.5150878             -14.0163
        85        1.9934           -0.5078318             -13.8188
        86        1.9785           -0.4889628             -13.3054
        87        1.9784           -0.4888492             -13.3023
        88        1.9463           -0.4741906             -12.9034
        89        1.8415           -0.4561895             -12.4135
        90        1.1800           -0.4231189             -11.5137 (HOMO)
        91        0.6594           -0.4061206             -11.0511 (LUMO)
        92        0.4128           -0.3960306             -10.7765
        93        0.0174           -0.3424055              -9.3173
        94        0.0073           -0.3284392              -8.9373
        95        0.0051           -0.3229969              -8.7892
       ...           ...                  ...                  ...
       171                          0.5760946              15.6763
      -------------------------------------------------------------
                  HL-Gap            0.0169983 Eh            0.4625 eV
             Fermi-level           -0.4173572 Eh          -11.3569 eV

 SCC (total)                   0 d,  0 h,  0 min,  0.120 sec
 SCC setup                      ...        0 min,  0.001 sec (  1.082%)
 Dispersion                     ...        0 min,  0.002 sec (  1.646%)
 classical contributions        ...        0 min,  0.001 sec (  0.453%)
 integral evaluation            ...        0 min,  0.018 sec ( 15.218%)
 iterations                     ...        0 min,  0.028 sec ( 22.920%)
 molecular gradient             ...        0 min,  0.070 sec ( 58.124%)
 printout                       ...        0 min,  0.001 sec (  0.544%)

         :::::::::::::::::::::::::::::::::::::::::::::::::::::
         ::                     SUMMARY                     ::
         :::::::::::::::::::::::::::::::::::::::::::::::::::::
         :: total energy             -99.269018696264 Eh    ::
         :: gradient norm              0.002671242180 Eh/a0 ::
         :: HOMO-LUMO gap              0.462548185326 eV    ::
         ::.................................................::
         :: SCC energy              -100.643402863641 Eh    ::
         :: -> isotropic ES            0.107020600219 Eh    ::
         :: -> anisotropic ES          0.003808609923 Eh    ::
         :: -> anisotropic XC          0.045690116199 Eh    ::
         :: -> dispersion             -0.074876427528 Eh    ::
         :: repulsion energy           1.373178243192 Eh    ::
         :: add. restraining           0.000000000000 Eh    ::
         :: total charge               0.999999998448 e     ::
         :::::::::::::::::::::::::::::::::::::::::::::::::::::

      ----------------------------------------------------------- 
     |                   =====================                   |
     |                        A N C O P T                        |
     |                   =====================                   |
     |               Approximate Normal Coordinate               |
     |                Rational Function Optimizer                |
      ----------------------------------------------------------- 

          ...................................................
          :                      SETUP                      :
          :.................................................:
          :   optimization level             crude          :
          :   max. optcycles                   200          :
          :   ANC micro-cycles                  20          :
          :   degrees of freedom               210          :
          :.................................................:
          :   RF solver                   davidson          :
          :   write xtbopt.log                true          :
          :   linear?                        false          :
          :   energy convergence         0.5000000E-03 Eh   :
          :   grad. convergence          0.1000000E-01 Eh/α :
          :   maxmium RF displ.          1.0000000          :
          :   Hlow (freq-cutoff)         0.1000000E-01      :
          :   Hmax (freq-cutoff)         5.0000000          :
          :   S6 in model hess.         20.0000000          :
          ...................................................

generating ANC from model Hessian ...
Using Lindh-Hessian (1995)
 Shifting diagonal of input Hessian by    1.0110796069759074E-002
 Lowest  eigenvalues of input Hessian
    0.010000    0.010051    0.000000    0.000000    0.000000    0.000000
    0.000000    0.000000    0.010150    0.010164    0.010269    0.010361
    0.010434    0.010709    0.010810    0.010885    0.011055    0.011081
 Highest eigenvalues
    1.988247    2.048538    2.094947    2.105804    2.184915    2.209592


........................................................................
.............................. CYCLE    1 ..............................
........................................................................

 iter      E             dE          RMSdq      gap      omega  full diag
   1   -100.6434029 -0.100643E+03  0.172E-05    0.46       0.0  T
   2   -100.6434029  0.122810E-09  0.334E-05    0.46     352.8  T
   3   -100.6434029 -0.132857E-09  0.118E-05    0.46    1001.2  T
     SCC iter.                  ...        0 min,  0.026 sec
     gradient                   ...        0 min,  0.069 sec
 * total energy  :   -99.2690187 Eh     change       -0.4278888E-10 Eh
   gradient norm :     0.0026720 Eh/α   predicted     0.0000000E+00 (-100.00%)
   displ. norm   :     0.1427048 α      lambda       -0.2350495E-03
   maximum displ.:     0.1072124 α      in ANC's #10, #1, #2, ...

   *** GEOMETRY OPTIMIZATION CONVERGED AFTER 1 ITERATIONS ***

------------------------------------------------------------------------
 total energy gain   :        -0.0000000 Eh       -0.0000 kcal/mol
 total RMSD          :         0.0000000 a0        0.0000 Å
 total power (kW/mol):        -0.0000001 (step)   -0.0000 (real)
------------------------------------------------------------------------

 ANCopt (total)                0 d,  0 h,  0 min,  0.182 sec
 optimizer setup                ...        0 min,  0.000 sec (  0.144%)
 model hessian                  ...        0 min,  0.053 sec ( 29.015%)
 ANC generation                 ...        0 min,  0.007 sec (  3.573%)
 coordinate transformation      ...        0 min,  0.000 sec (  0.025%)
 single point calculation       ...        0 min,  0.119 sec ( 65.494%)
 optimization log               ...        0 min,  0.002 sec (  1.285%)
 hessian update                 ...        0 min,  0.000 sec (  0.001%)
 rational function              ...        0 min,  0.000 sec (  0.110%)

================
 final structure:
================
72
 xtb: 6.6.1 (8d0f1dd)
N           -1.91077552940008        2.86773929076745        2.23439073172790
C           -1.84435573002746        2.16930904125750        1.20077456972125
C           -2.98392680030532        1.96227386155574        0.23905665096681
C           -3.47099894008940        0.52510440064976        0.32667982956963
C           -4.40796756226074        0.05658743945302       -0.59698737048609
C           -4.90959607752108       -1.23320285451019       -0.53365093409907
O           -5.82718565763641       -1.75752167760386       -1.36678944947344
C           -6.41684176058920       -0.93490402734933       -2.34947311119724
C           -4.44532634636190       -2.10314002136181        0.49058888826945
O           -4.97462716946807       -3.34937128246413        0.47308697505076
C           -4.81752093995031       -4.25475840000781        1.40039408669975
C           -3.50192533027202       -1.63745135552562        1.40367694394265
C           -3.02787832422458       -0.34028453579105        1.32122354273788
C           -2.41281983940421        2.24536943732547       -1.17552098503926
C           -1.48616031124886        1.14654946412540       -1.72653677284175
C           -0.15066887102028        1.12634718835816       -1.08906598688171
N            0.50421410104749        0.03735429553638       -0.70168224953648
C            1.88361122431320        0.12194374626719       -0.28341738401241
C            2.85099390155554       -0.33965735928699       -1.39052547890304
C            4.27061632326220       -0.13788214098424       -0.93910407914019
C            4.91038156270015        1.07305794462163       -1.14877097745694
C            6.20888986861819        1.27611174787205       -0.70814471029016
C            6.89366575547258        0.26989338309985       -0.04197585071763
O            8.15233213989447        0.35283342483361        0.42609411190633
C            8.88511951632625        1.53939746711787        0.22422921759155
C            6.24330343538617       -0.97543167423497        0.18283655244758
O            6.98038895808748       -1.89565329565571        0.83489132978225
C            6.43561334238218       -3.17046388516871        1.07901548719411
C            4.94416847665115       -1.15435686281349       -0.26613688077783
C           -0.09313901869130       -1.27533526673270       -0.75482091349253
C           -4.19717539455930        2.90247288727907        0.51326461264473
C           -4.86173191377576        2.58599683920057        1.85104883920886
C           -3.83306986125180        4.38348628274858        0.45706254622640
H           -4.76162781171731        0.71816416308730       -1.36955966473289
H           -6.92005316047224       -0.07449366734583       -1.89912527774296
H           -7.15242325214489       -1.56113987055823       -2.84989198136302
H           -5.67897983165380       -0.59074023060280       -3.08052752739869
H           -4.26237889832898       -4.09048380839191        2.30749602111468
H           -5.28991217951784       -5.19761319581064        1.19751061659058
H           -3.35686367522656       -6.86601631524286        2.06467736455246
H           -3.13098809825163       -2.28501624625779        2.18172187980936
H           -2.32083293749133        0.00099113355708        2.06075215837604
H           -3.24342138500458        2.36753692211029       -1.86989334293067
H           -1.86632905501714        3.18876978068567       -1.14922819009833
H           -1.98025416522837        0.17888534662004       -1.65878453057176
H           -1.33613790362873        1.36899645338588       -2.79136944296162
H           -0.92369860756213        1.65790482044443        0.85985091013741
H            0.39772484465138        2.05616311232469       -1.05608961592286
H            2.02784747402008       -0.49766168093406        0.60588959700555
H            2.11795768792978        1.15556041811295       -0.02100050797521
H            2.66002482289589        0.24744010199768       -2.29048850966665
H            2.67367887569633       -1.39106681644843       -1.61908847202527
H            4.40268246885167        1.86894223074137       -1.67232031985682
H            6.68281270018763        2.22600073793981       -0.89328126697013
H            8.41270096822746        2.39180158932607        0.72188110849881
H            9.00651557132665        1.75856727666099       -0.84077103515805
H            9.86167492078494        1.35824285266770        0.66901598923938
H            7.21739457159084       -3.72894741959912        1.59005403641449
H            5.55285350620375       -3.11301736259945        1.72395630086536
H            6.17648611804917       -3.68161120524876        0.14669373190950
H            4.44544846222532       -2.09776741035592       -0.10780983661420
H           -0.24545988473955       -1.59973778106044       -1.78667457420232
H           -1.05681382398529       -1.27723734294234       -0.23993661970274
H            0.56265896615036       -1.98813950725308       -0.26153836134807
H           -4.92736933334308        2.70544040295031       -0.27996755315436
H           -4.17268480900312        2.78564341117147        2.66508335612094
H           -5.17519680810065        1.54589272537069        1.90017808563437
H           -5.73966113441874        3.21395288257269        1.97775990106635
H           -3.09139707271279        4.61951673576693        1.21372553433008
H           -3.45523349066054        4.67308348351657       -0.51989084103373
H           -4.72219295992857        4.97549834607149        0.65791785793991
H           -1.07164331129651        2.95942095348892        2.79862608308363

 Bond Distances (Angstroems)
 ---------------------------
N1-C2=1.2492         N1-H72=1.0153        C2-N1=1.2492         C2-C3=1.5055         C2-H47=1.1070        C3-C2=1.5055         
C3-C4=1.5200         C3-C14=1.5516        C3-C31=1.5592        C4-C3=1.5200         C4-C5=1.3966         C4-C13=1.3908        
C5-C4=1.3966         C5-C6=1.3854         C5-H34=1.0769        C6-C5=1.3854         C6-O7=1.3457         C6-C9=1.4218         
O7-C6=1.3457         O7-C8=1.4107         C8-O7=1.4107         C8-H35=1.0938        C8-H36=1.0880        C8-H37=1.0942        
C9-C6=1.4218         C9-O10=1.3541        C9-C12=1.3931        O10-C9=1.3541        O10-C11=1.3055       C11-O10=1.3055       
C11-H38=1.0761       C11-H39=1.0739       C12-C9=1.3931        C12-C13=1.3835       C12-H41=1.0781       C13-C4=1.3908        
C13-C12=1.3835       C13-H42=1.0786       C14-C3=1.5516        C14-C15=1.5394       C14-H43=1.0895       C14-H44=1.0906       
C15-C14=1.5394       C15-C16=1.4800       C15-H45=1.0886       C15-H46=1.0981       C16-C15=1.4800       C16-N17=1.3285       
C16-H48=1.0800       N17-C16=1.3285       N17-C18=1.4439       N17-C30=1.4432       C18-N17=1.4439       C18-C19=1.5410       
C18-H49=1.0934       C18-H50=1.0919       C19-C18=1.5410       C19-C20=1.5033       C19-H51=1.0914       C19-H52=1.0905       
C20-C19=1.5033       C20-C21=1.3855       C20-C29=1.3928       C21-C20=1.3855       C21-C22=1.3862       C21-H53=1.0795       
C22-C21=1.3862       C22-C23=1.3875       C22-H54=1.0776       C23-C22=1.3875       C23-O24=1.3454       C23-C26=1.4228       
O24-C23=1.3454       O24-C25=1.4091       C25-O24=1.4091       C25-H55=1.0943       C25-H56=1.0941       C25-H57=1.0883       
C26-C23=1.4228       C26-O27=1.3473       C26-C29=1.3861       O27-C26=1.3473       O27-C28=1.4077       C28-O27=1.4077       
C28-H58=1.0882       C28-H59=1.0948       C28-H60=1.0944       C29-C20=1.3928       C29-C26=1.3861       C29-H61=1.0788       
C30-N17=1.4432       C30-H62=1.0923       C30-H63=1.0926       C30-H64=1.0870       C31-C3=1.5592        C31-C32=1.5269       
C31-C33=1.5261       C31-H65=1.0960       C32-C31=1.5269       C32-H66=1.0850       C32-H67=1.0874       C32-H68=1.0868       
C33-C31=1.5261       C33-H69=1.0855       C33-H70=1.0868       C33-H71=1.0869       H34-C5=1.0769        H35-C8=1.0938        
H36-C8=1.0880        H37-C8=1.0942        H38-C11=1.0761       H39-C11=1.0739       H41-C12=1.0781       H42-C13=1.0786       
H43-C14=1.0895       H44-C14=1.0906       H45-C15=1.0886       H46-C15=1.0981       H47-C2=1.1070        H48-C16=1.0800       
H49-C18=1.0934       H50-C18=1.0919       H51-C19=1.0914       H52-C19=1.0905       H53-C21=1.0795       H54-C22=1.0776       
H55-C25=1.0943       H56-C25=1.0941       H57-C25=1.0883       H58-C28=1.0882       H59-C28=1.0948       H60-C28=1.0944       
H61-C29=1.0788       H62-C30=1.0923       H63-C30=1.0926       H64-C30=1.0870       H65-C31=1.0960       H66-C32=1.0850       
H67-C32=1.0874       H68-C32=1.0868       H69-C33=1.0855       H70-C33=1.0868       H71-C33=1.0869       H72-N1=1.0153        
 C  H  Rav=1.0880 sigma=0.0071  Rmin=1.0739  Rmax=1.1070    37
 C  C  Rav=1.4539 sigma=0.0677  Rmin=1.3835  Rmax=1.5592    22
 N  H  Rav=1.0153 sigma=0.0000  Rmin=1.0153  Rmax=1.0153     1
 N  C  Rav=1.3662 sigma=0.0823  Rmin=1.2492  Rmax=1.4439     4
 O  C  Rav=1.3657 sigma=0.0364  Rmin=1.3055  Rmax=1.4107     8

 selected bond angles (degree)
 --------------------
H72-N1-C2=117.80               C3-C2-N1=124.42                H47-C2-N1=123.87               H47-C2-C3=111.67               
C4-C3-C2=109.62                C14-C3-C2=106.18               C14-C3-C4=110.06               C31-C3-C2=113.19               
C31-C3-C4=108.10               C31-C3-C14=109.68              C5-C4-C3=119.61                C13-C4-C3=121.83               
C13-C4-C5=118.55               C6-C5-C4=121.67                H34-C5-C4=119.26               H34-C5-C6=119.07               
O7-C6-C5=125.54                C9-C6-C5=118.97                C9-C6-O7=115.48                C8-O7-C6=119.28                
H35-C8-O7=111.36               H36-C8-O7=105.51               H36-C8-H35=109.34              H37-C8-O7=111.53               
H37-C8-H35=109.75              H37-C8-H36=109.25              O10-C9-C6=115.23               C12-C9-C6=119.26               
C12-C9-O10=125.51              C11-O10-C9=125.60              

 selected dihedral angles (degree)
 ---------------------------------
C3-C2-N1-H72=181.69           H47-C2-N1-H72=359.18          C4-C3-C2-N1=249.34            C4-C3-C2-H47= 71.58           
C14-C3-C2-N1=130.49           C14-C3-C2-H47=312.73          C31-C3-C2-N1= 10.11           C31-C3-C2-H47=192.35          
C5-C4-C3-C2=188.21            C5-C4-C3-C14=304.65           C5-C4-C3-C31= 64.41           C13-C4-C3-C2=  9.41           
C13-C4-C3-C14=125.84          C13-C4-C3-C31=245.61          C6-C5-C4-C3=181.87            C6-C5-C4-C13=  0.72           
H34-C5-C4-C3=  0.93           H34-C5-C4-C13=179.77          O7-C6-C5-C4=178.88            O7-C6-C5-H34=359.82           
C9-C6-C5-C4=359.31            C9-C6-C5-H34=180.26           C8-O7-C6-C5=355.69            C8-O7-C6-C9=175.27            
H35-C8-O7-C6=301.61           H36-C8-O7-C6=183.09           H37-C8-O7-C6= 64.59           O10-C9-C6-C5=180.68           
O10-C9-C6-O7=  1.07           C12-C9-C6-C5=  0.11           C12-C9-C6-O7=180.50           C11-O10-C9-C6=188.62          
C11-O10-C9-C12=  9.23         

 CMA Distance (Angstroems)
 ---------------------------
R(CMA):  7.9584
           -------------------------------------------------
          |                Final Singlepoint                |
           -------------------------------------------------

          ...................................................
          :                      SETUP                      :
          :.................................................:
          :  # basis functions                 171          :
          :  # atomic orbitals                 171          :
          :  # shells                          105          :
          :  # electrons                       180          :
          :  max. iterations                   250          :
          :  Hamiltonian                  GFN2-xTB          :
          :  restarted?                      false          :
          :  GBSA solvation                  false          :
          :  PC potential                    false          :
          :  electronic temp.         5000.0000000     K    :
          :  accuracy                    1.0000000          :
          :  -> integral cutoff          0.2500000E+02      :
          :  -> integral neglect         0.1000000E-07      :
          :  -> SCF convergence          0.1000000E-05 Eh   :
          :  -> wf. convergence          0.1000000E-03 e    :
          :  Broyden damping             0.4000000          :
          ...................................................

 iter      E             dE          RMSdq      gap      omega  full diag
   1   -100.6434029 -0.100643E+03  0.653E-06    0.46       0.0  T
   2   -100.6434029  0.332534E-11  0.778E-06    0.46    1514.5  T
   3   -100.6434029 -0.416378E-11  0.442E-06    0.46    2668.5  T

   *** convergence criteria satisfied after 3 iterations ***

         #    Occupation            Energy/Eh            Energy/eV
      -------------------------------------------------------------
         1        2.0000           -0.8492135             -23.1083
       ...           ...                  ...                  ...
        84        1.9958           -0.5150878             -14.0163
        85        1.9934           -0.5078318             -13.8188
        86        1.9785           -0.4889627             -13.3054
        87        1.9784           -0.4888494             -13.3023
        88        1.9463           -0.4741907             -12.9034
        89        1.8415           -0.4561898             -12.4136
        90        1.1800           -0.4231185             -11.5136 (HOMO)
        91        0.6593           -0.4061201             -11.0511 (LUMO)
        92        0.4128           -0.3960308             -10.7765
        93        0.0174           -0.3424056              -9.3173
        94        0.0073           -0.3284391              -8.9373
        95        0.0052           -0.3229968              -8.7892
       ...           ...                  ...                  ...
       171                          0.5760943              15.6763
      -------------------------------------------------------------
                  HL-Gap            0.0169984 Eh            0.4625 eV
             Fermi-level           -0.4173570 Eh          -11.3569 eV

 SCC (total)                   0 d,  0 h,  0 min,  0.117 sec
 SCC setup                      ...        0 min,  0.001 sec (  0.768%)
 Dispersion                     ...        0 min,  0.002 sec (  1.375%)
 classical contributions        ...        0 min,  0.000 sec (  0.369%)
 integral evaluation            ...        0 min,  0.018 sec ( 15.294%)
 iterations                     ...        0 min,  0.026 sec ( 22.593%)
 molecular gradient             ...        0 min,  0.069 sec ( 59.095%)
 printout                       ...        0 min,  0.001 sec (  0.492%)

         :::::::::::::::::::::::::::::::::::::::::::::::::::::
         ::                     SUMMARY                     ::
         :::::::::::::::::::::::::::::::::::::::::::::::::::::
         :: total energy             -99.269018696317 Eh    ::
         :: gradient norm              0.002671819226 Eh/a0 ::
         :: HOMO-LUMO gap              0.462549424813 eV    ::
         ::.................................................::
         :: SCC energy              -100.643402863694 Eh    ::
         :: -> isotropic ES            0.107020180292 Eh    ::
         :: -> anisotropic ES          0.003808771336 Eh    ::
         :: -> anisotropic XC          0.045690103626 Eh    ::
         :: -> dispersion             -0.074876428890 Eh    ::
         :: repulsion energy           1.373178243192 Eh    ::
         :: add. restraining           0.000000000000 Eh    ::
         :: total charge               0.999999998447 e     ::
         :::::::::::::::::::::::::::::::::::::::::::::::::::::

           -------------------------------------------------
          |                Property Printout                |
           -------------------------------------------------

    * Orbital Energies and Occupations

         #    Occupation            Energy/Eh            Energy/eV
      -------------------------------------------------------------
         1        2.0000           -0.8492135             -23.1083
       ...           ...                  ...                  ...
        78        1.9986           -0.5324925             -14.4899
        79        1.9985           -0.5311307             -14.4528
        80        1.9983           -0.5289917             -14.3946
        81        1.9977           -0.5241958             -14.2641
        82        1.9970           -0.5204141             -14.1612
        83        1.9962           -0.5165006             -14.0547
        84        1.9958           -0.5150878             -14.0163
        85        1.9934           -0.5078318             -13.8188
        86        1.9785           -0.4889627             -13.3054
        87        1.9784           -0.4888494             -13.3023
        88        1.9463           -0.4741907             -12.9034
        89        1.8415           -0.4561898             -12.4136
        90        1.1800           -0.4231185             -11.5136 (HOMO)
        91        0.6593           -0.4061201             -11.0511 (LUMO)
        92        0.4128           -0.3960308             -10.7765
        93        0.0174           -0.3424056              -9.3173
        94        0.0073           -0.3284391              -8.9373
        95        0.0052           -0.3229968              -8.7892
        96        0.0027           -0.3127853              -8.5113
        97        0.0023           -0.3105201              -8.4497
        98        0.0000           -0.2042804              -5.5588
        99        0.0000           -0.1880196              -5.1163
       100                         -0.1377927              -3.7495
       101                         -0.0762941              -2.0761
       ...                                ...                  ...
       171                          0.5760943              15.6763
      -------------------------------------------------------------
                  HL-Gap            0.0169984 Eh            0.4625 eV
             Fermi-level           -0.4173570 Eh          -11.3569 eV

     #   Z          covCN         q      C6AA      α(0)
     1   7 N        1.774    -0.270    27.817     7.810
     2   6 C        2.826     0.100    25.783     8.320
     3   6 C        3.907     0.006    20.418     6.423
     4   6 C        2.974     0.009    27.803     8.649
     5   6 C        2.920    -0.079    29.986     8.980
     6   6 C        2.860     0.136    25.022     8.199
     7   8 O        1.706    -0.231    17.833     5.702
     8   6 C        3.645     0.025    20.489     6.506
     9   6 C        2.869     0.101    25.756     8.319
    10   8 O        1.710    -0.101    15.843     5.374
    11   6 C        2.733     0.036    27.173     8.534
    12   6 C        2.911    -0.062    29.553     8.914
    13   6 C        2.920    -0.052    29.285     8.874
    14   6 C        3.812    -0.066    21.748     6.638
    15   6 C        3.802    -0.069    21.814     6.650
    16   6 C        2.843     0.004    27.920     8.660
    17   7 N        2.729     0.010    21.078     6.819
    18   6 C        3.756    -0.017    20.924     6.522
    19   6 C        3.808    -0.071    21.844     6.653
    20   6 C        2.969    -0.000    28.032     8.685
    21   6 C        2.922    -0.049    29.214     8.864
    22   6 C        2.914    -0.067    29.680     8.934
    23   6 C        2.865     0.134    25.077     8.208
    24   8 O        1.706    -0.221    17.672     5.676
    25   6 C        3.645     0.025    20.491     6.506
    26   6 C        2.863     0.133    25.082     8.209
    27   8 O        1.706    -0.224    17.714     5.683
    28   6 C        3.645     0.027    20.459     6.501
    29   6 C        2.919    -0.079    29.987     8.980
    30   6 C        3.699    -0.070    22.002     6.708
    31   6 C        3.853    -0.007    20.673     6.467
    32   6 C        3.756    -0.119    22.841     6.814
    33   6 C        3.755    -0.119    22.833     6.813
    34   1 H        0.926     0.058     2.225     2.333
    35   1 H        0.924     0.056     2.243     2.342
    36   1 H        0.925     0.084     1.939     2.177
    37   1 H        0.924     0.050     2.314     2.379
    38   1 H        0.926     0.074     2.038     2.233
    39   1 H        0.926     0.107     1.726     2.055
    40   1 H        0.000    -0.148    18.925     7.955
    41   1 H        0.926     0.058     2.217     2.328
    42   1 H        0.926     0.046     2.369     2.407
    43   1 H        0.925     0.060     2.204     2.322
    44   1 H        0.924     0.055     2.254     2.348
    45   1 H        0.925     0.063     2.161     2.299
    46   1 H        0.923     0.080     1.983     2.202
    47   1 H        0.922     0.005     2.971     2.696
    48   1 H        0.926     0.069     2.095     2.263
    49   1 H        0.924     0.068     2.113     2.273
    50   1 H        0.924     0.068     2.112     2.273
    51   1 H        0.924     0.055     2.255     2.349
    52   1 H        0.924     0.056     2.248     2.345
    53   1 H        0.926     0.045     2.384     2.414
    54   1 H        0.926     0.059     2.215     2.328
    55   1 H        0.924     0.054     2.266     2.354
    56   1 H        0.924     0.056     2.245     2.343
    57   1 H        0.925     0.083     1.952     2.185
    58   1 H        0.925     0.082     1.955     2.187
    59   1 H        0.924     0.049     2.331     2.387
    60   1 H        0.924     0.053     2.283     2.363
    61   1 H        0.926     0.048     2.349     2.397
    62   1 H        0.924     0.076     2.018     2.222
    63   1 H        0.924     0.076     2.020     2.223
    64   1 H        0.925     0.081     1.966     2.193
    65   1 H        0.924     0.036     2.503     2.474
    66   1 H        0.925     0.070     2.082     2.256
    67   1 H        0.925     0.033     2.546     2.495
    68   1 H        0.925     0.052     2.296     2.370
    69   1 H        0.925     0.061     2.185     2.312
    70   1 H        0.925     0.035     2.518     2.481
    71   1 H        0.925     0.055     2.257     2.349
    72   1 H        0.860     0.157     1.353     1.822

 Mol. C6AA /au·bohr⁶  :      48754.203304
 Mol. C8AA /au·bohr⁸  :    1105721.141568
 Mol. α(0) /au        :        341.324886


Wiberg/Mayer (AO) data.
largest (>0.10) Wiberg bond orders for each atom

 ---------------------------------------------------------------------------
     #   Z sym  total        # sym  WBO       # sym  WBO       # sym  WBO
 ---------------------------------------------------------------------------
     1   7 N    3.038 --     2 C    1.957    72 H    0.942
     2   6 C    3.929 --     1 N    1.957     3 C    0.994    47 H    0.903
     3   6 C    3.978 --     2 C    0.994     4 C    0.974    14 C    0.957
                            31 C    0.941
     4   6 C    3.913 --    13 C    1.392     5 C    1.373     3 C    0.974
     5   6 C    3.961 --     6 C    1.395     4 C    1.373    34 H    0.957
     6   6 C    3.894 --     5 C    1.395     9 C    1.224     7 O    1.110
     7   8 O    2.271 --     6 C    1.110     8 C    0.973
     8   6 C    3.929 --    36 H    0.977    37 H    0.975    35 H    0.975
                             7 O    0.973
     9   6 C    3.891 --    12 C    1.355     6 C    1.224    10 O    1.056
    10   8 O    2.429 --    11 C    1.275     9 C    1.056
    11   6 C    3.343 --    10 O    1.275    38 H    0.965    39 H    0.962
    12   6 C    3.913 --    13 C    1.437     9 C    1.355    41 H    0.961
    13   6 C    3.973 --    12 C    1.437     4 C    1.392    42 H    0.962
    14   6 C    3.972 --    15 C    0.982    44 H    0.972    43 H    0.969
                             3 C    0.957
    15   6 C    3.987 --    16 C    1.059    14 C    0.982    45 H    0.962
                            46 H    0.928
    16   6 C    3.580 --    17 N    1.397    15 C    1.059    48 H    0.957
    17   7 N    3.472 --    16 C    1.397    30 C    0.999    18 C    0.988
    18   6 C    3.955 --    17 N    0.988    50 H    0.968    19 C    0.967
                            49 H    0.964
    19   6 C    3.976 --    20 C    1.008    52 H    0.972    51 H    0.972
                            18 C    0.967
    20   6 C    3.944 --    21 C    1.409    29 C    1.380    19 C    1.008
    21   6 C    3.949 --    22 C    1.417    20 C    1.409    53 H    0.968
    22   6 C    3.959 --    21 C    1.417    23 C    1.383    54 H    0.963
    23   6 C    3.895 --    22 C    1.383    26 C    1.219    24 O    1.111
    24   8 O    2.255 --    23 C    1.111    25 C    0.976
    25   6 C    3.928 --    57 H    0.977    24 O    0.976    56 H    0.973
                            55 H    0.973
    26   6 C    3.898 --    29 C    1.394    23 C    1.219    27 O    1.105
    27   8 O    2.255 --    26 C    1.105    28 C    0.978
    28   6 C    3.931 --    27 O    0.978    58 H    0.977    59 H    0.973
                            60 H    0.973
    29   6 C    3.959 --    26 C    1.394    20 C    1.380    61 H    0.962
    30   6 C    3.958 --    17 N    0.999    64 H    0.977    62 H    0.966
                            63 H    0.963
    31   6 C    3.974 --    33 C    1.009    32 C    1.009    65 H    0.961
                             3 C    0.941
    32   6 C    3.981 --    31 C    1.009    67 H    0.982    68 H    0.982
                            66 H    0.974
    33   6 C    3.984 --    31 C    1.009    70 H    0.983    71 H    0.980
                            69 H    0.977
    34   1 H    0.996 --     5 C    0.957
    35   1 H    0.994 --     8 C    0.975
    36   1 H    0.992 --     8 C    0.977
    37   1 H    0.995 --     8 C    0.975
    38   1 H    0.994 --    11 C    0.965
    39   1 H    0.988 --    11 C    0.962
    40   1 H    0.017
    41   1 H    0.995 --    12 C    0.961
    42   1 H    0.997 --    13 C    0.962
    43   1 H    0.995 --    14 C    0.969
    44   1 H    0.996 --    14 C    0.972
    45   1 H    0.995 --    15 C    0.962
    46   1 H    0.969 --    15 C    0.928
    47   1 H    0.989 --     2 C    0.903
    48   1 H    0.995 --    16 C    0.957
    49   1 H    0.990 --    18 C    0.964
    50   1 H    0.994 --    18 C    0.968
    51   1 H    0.996 --    19 C    0.972
    52   1 H    0.996 --    19 C    0.972
    53   1 H    0.997 --    21 C    0.968
    54   1 H    0.995 --    22 C    0.963
    55   1 H    0.992 --    25 C    0.973
    56   1 H    0.991 --    25 C    0.973
    57   1 H    0.992 --    25 C    0.977
    58   1 H    0.993 --    28 C    0.977
    59   1 H    0.993 --    28 C    0.973
    60   1 H    0.993 --    28 C    0.973
    61   1 H    0.996 --    29 C    0.962
    62   1 H    0.984 --    30 C    0.966
    63   1 H    0.987 --    30 C    0.963
    64   1 H    0.993 --    30 C    0.977
    65   1 H    0.994 --    31 C    0.961
    66   1 H    0.991 --    32 C    0.974
    67   1 H    0.997 --    32 C    0.982
    68   1 H    0.994 --    32 C    0.982
    69   1 H    0.994 --    33 C    0.977
    70   1 H    0.997 --    33 C    0.983
    71   1 H    0.994 --    33 C    0.980
    72   1 H    0.971 --     1 N    0.942
 ---------------------------------------------------------------------------

Topologies differ in total number of bonds
Writing topology from bond orders to xtbtopo.mol

molecular dipole:
                 x           y           z       tot (Debye)
 q only:        0.232       1.031      -1.265
   full:        0.498       0.913      -1.445       4.526
molecular quadrupole (traceless):
                xx          xy          yy          xz          yz          zz
 q only:       69.575      -1.733     -36.710      10.836      -0.891     -32.864
  q+dip:       63.489       3.499     -34.949      14.270      -4.787     -28.540
   full:       63.492       2.884     -35.643      11.254      -4.295     -27.850

           -------------------------------------------------
          |                Geometry Summary                 |
           -------------------------------------------------

      molecular mass/u    :      455.6105846
   center of mass at/Å    :       -0.0093364       0.0314902      -0.0030144
  moments of inertia/u·Å² :        0.2470764E+04   0.1104819E+05   0.1233988E+05
rotational constants/cm⁻¹ :        0.6822842E-02   0.1525828E-02   0.1366110E-02

 * 65 selected distances

     #   Z          #   Z                                           value/Å
     1   7 N        2   6 C                                       1.2492314
     4   6 C        5   6 C                                       1.3966316
     5   6 C        6   6 C                                       1.3853527
     6   6 C        7   8 O                                       1.3457344
     7   8 O        8   6 C                                       1.4106955
     6   6 C        9   6 C                                       1.4217611
     9   6 C       10   8 O                                       1.3540895
    10   8 O       11   6 C                                       1.3054911
     9   6 C       12   6 C                                       1.3930548
     4   6 C       13   6 C                                       1.3908168
    12   6 C       13   6 C                                       1.3835322
    14   6 C       15   6 C                                       1.5393902
    15   6 C       16   6 C                                       1.4799713
    16   6 C       17   7 N                                       1.3284742
    17   7 N       18   6 C                                       1.4438967
    18   6 C       19   6 C                                       1.5409716 (max)
    20   6 C       21   6 C                                       1.3855093
    21   6 C       22   6 C                                       1.3861842
    22   6 C       23   6 C                                       1.3875067
    23   6 C       24   8 O                                       1.3454404
    24   8 O       25   6 C                                       1.4091350
    23   6 C       26   6 C                                       1.4227954
    26   6 C       27   8 O                                       1.3473228
    27   8 O       28   6 C                                       1.4076645
    20   6 C       29   6 C                                       1.3927593
    26   6 C       29   6 C                                       1.3861253
    17   7 N       30   6 C                                       1.4431939
    31   6 C       32   6 C                                       1.5269118
    31   6 C       33   6 C                                       1.5261496
     5   6 C       34   1 H                                       1.0768600
     8   6 C       35   1 H                                       1.0937738
     8   6 C       36   1 H                                       1.0879663
     8   6 C       37   1 H                                       1.0942256
    11   6 C       38   1 H                                       1.0761055
    11   6 C       39   1 H                                       1.0739137 (min)
    12   6 C       41   1 H                                       1.0780950
    13   6 C       42   1 H                                       1.0785569
    14   6 C       43   1 H                                       1.0894847
    14   6 C       44   1 H                                       1.0905723
    15   6 C       45   1 H                                       1.0886198
    15   6 C       46   1 H                                       1.0981158
    16   6 C       48   1 H                                       1.0799912
    18   6 C       49   1 H                                       1.0934268
    18   6 C       50   1 H                                       1.0918537
    19   6 C       51   1 H                                       1.0913690
    19   6 C       52   1 H                                       1.0904787
    21   6 C       53   1 H                                       1.0794880
    22   6 C       54   1 H                                       1.0775749
    25   6 C       55   1 H                                       1.0942713
    25   6 C       56   1 H                                       1.0940741
    25   6 C       57   1 H                                       1.0882614
    28   6 C       58   1 H                                       1.0882308
    28   6 C       59   1 H                                       1.0947666
    28   6 C       60   1 H                                       1.0943686
    29   6 C       61   1 H                                       1.0788015
    30   6 C       62   1 H                                       1.0923190
    30   6 C       63   1 H                                       1.0926019
    30   6 C       64   1 H                                       1.0869631
    31   6 C       65   1 H                                       1.0960030
    32   6 C       66   1 H                                       1.0850332
    32   6 C       67   1 H                                       1.0874239
    32   6 C       68   1 H                                       1.0868047
    33   6 C       69   1 H                                       1.0855082
    33   6 C       70   1 H                                       1.0867681
    33   6 C       71   1 H                                       1.0869044

 * 4 distinct bonds (by element types)

   Z      Z             #   av. dist./Å        max./Å        min./Å
   1 H    6 C          36     1.0874882     1.0981158     1.0739137
   6 C    6 C          17     1.4320837     1.5409716     1.3835322
   6 C    7 N           4     1.3661991     1.4438967     1.2492314
   6 C    8 O           8     1.3656966     1.4106955     1.3054911


optimized geometry written to: xtbopt.xyz


           -------------------------------------------------
          | TOTAL ENERGY              -99.269018696317 Eh   |
          | GRADIENT NORM               0.002671819226 Eh/α |
          | HOMO-LUMO GAP               0.462549424813 eV   |
           -------------------------------------------------

------------------------------------------------------------------------
 * finished run on 2024/04/06 at 11:12:53.252     
------------------------------------------------------------------------
 total:
 * wall-time:     0 d,  0 h,  0 min,  0.476 sec
 *  cpu-time:     0 d,  0 h,  0 min,  0.444 sec
 * ratio c/w:     0.932 speedup
 SCF:
 * wall-time:     0 d,  0 h,  0 min,  0.121 sec
 *  cpu-time:     0 d,  0 h,  0 min,  0.120 sec
 * ratio c/w:     0.998 speedup
 ANC optimizer:
 * wall-time:     0 d,  0 h,  0 min,  0.307 sec
 *  cpu-time:     0 d,  0 h,  0 min,  0.298 sec
 * ratio c/w:     0.972 speedup

