25
 energy: -43.832970416970 gnorm: 0.108513814007 xtb: 6.6.1 (8d0f1dd)
C            3.27898794716832        1.16886589853896        0.05461972923850
N            2.30361709332607        0.09217461966216        0.02621891803155
C            2.58792264266007       -1.22065075112333        0.02341475919602
N            1.42756791502590       -1.93204951903811        0.00015486076641
C            0.38594570052352       -1.04949586203385       -0.00949770215192
C            0.92594833534550        0.22612817491642        0.01112122572826
C            0.08453853580113        1.40190646075580       -0.00239159435001
O            0.48257526338778        2.55585709119221        0.00003413962808
N           -1.26120654577083        1.05833785882079       -0.03033413385953
C           -2.23115868745343        2.14975913621298       -0.04925670887866
C           -1.82511766047046       -0.20146631126180       -0.04703824976704
O           -3.00946239484725       -0.38175842001043       -0.07005526880871
N           -0.93267653780373       -1.30143378015847       -0.03651383049022
C           -1.47532852548014       -2.64562671095959       -0.05807518949515
H            3.76247436925299        1.19817287228809        1.01038185612110
H            4.11107487105631        1.03875641868523       -0.62325615923440
H            2.74234920628193        2.10766192722245       -0.09076300657714
H            3.56390870394212       -1.64472049990611        0.03860388156961
H           -1.68500530986551        3.08591010881341       -0.02428489082357
H           -2.83830833909352        2.09003815676807       -0.95265960277160
H           -2.89002649937377        2.07283517567006        0.81548956357283
H           -1.17726218442905       -3.19332134216826        0.83754861073076
H           -1.14805510621539       -3.17777250486205       -0.95099201848406
H           -2.56095059386304       -2.55844490012759       -0.07420417789631
H            1.37220014718067       -2.94025721550641       -0.01358470619828
25
 energy: -43.837569009659 gnorm: 0.040763571893 xtb: 6.6.1 (8d0f1dd)
C            3.27575306143763        1.17418753902201        0.07283018009804
N            2.31455290146847        0.10580537734500        0.02538956819589
C            2.60300472102828       -1.23287969821845        0.02131948089294
N            1.42206738357251       -1.93336457639973       -0.00174160537137
C            0.39615918825397       -1.04627460070867       -0.01129606890778
C            0.92981541193831        0.23366407038015        0.00663705224806
C            0.09636005294735        1.39665637074379       -0.00595755145563
O            0.48495442318277        2.56798098794924       -0.00122281334130
N           -1.26682301344313        1.05016216808546       -0.03107732017235
C           -2.23052273368474        2.14324586848013       -0.04883590347000
C           -1.82697367113619       -0.20058420092640       -0.04731781679743
O           -3.02331008569970       -0.38566641139990       -0.06994501426515
N           -0.93549830206939       -1.29738228303132       -0.03680546974588
C           -1.47300962272468       -2.63986767145934       -0.05738056140688
H            3.75603751943384        1.20816283403180        1.05064541767882
H            4.07150952606010        1.02997458892277       -0.65960458363634
H            2.73946489039180        2.10552569121432       -0.09841174617604
H            3.57622106079232       -1.66311325476883        0.03874518282230
H           -1.67104941047674        3.07466913759729       -0.02423380462329
H           -2.83725121614473        2.08848486542874       -0.95288162336984
H           -2.88878682153432        2.07141164753532        0.81696426166488
H           -1.17237506667058       -3.18967340891786        0.83708417195216
H           -1.14332587174668       -3.17424840167646       -0.95033084488665
H           -2.55855138017794       -2.55025176754984       -0.07391984363934
H            1.35612940128765       -2.93721878928861       -0.01397243949131
25
 energy: -43.838371912174 gnorm: 0.017333441689 xtb: 6.6.1 (8d0f1dd)
C            3.28339105765549        1.17112897872157        0.06560766794042
N            2.31497935229786        0.11598405896583        0.01145680452407
C            2.60439314640137       -1.23269669407805        0.01901875978948
N            1.41867741282327       -1.93232147339952        0.00109892972838
C            0.39802178363283       -1.04859588876850       -0.00916540162487
C            0.92459336579310        0.23676540026711        0.00504581332483
C            0.09962314609330        1.39141684893283       -0.00160044782321
O            0.47976613101144        2.56922034577405        0.00200527220642
N           -1.27498403538207        1.04882487212423       -0.02822278291188
C           -2.23591851326486        2.14526043772308       -0.04906063388193
C           -1.82492830652914       -0.19920570636261       -0.04577756613847
O           -3.02432292274568       -0.38736874596391       -0.07096051361744
N           -0.94038089742600       -1.29900510431027       -0.03445380524695
C           -1.47629927939106       -2.64247097669864       -0.05697563149067
H            3.76124286015649        1.19596731612731        1.04545287410968
H            4.10079945875724        1.03255607890752       -0.64601430246997
H            2.76144125980946        2.11047539670316       -0.10048343467834
H            3.57620090522636       -1.65469410402733        0.03815711654587
H           -1.68571522371596        3.08402894739076       -0.02393384437612
H           -2.84154128302179        2.09015278262185       -0.95349395327173
H           -2.89636416161750        2.07356061650049        0.81452159281097
H           -1.17847669015189       -3.19658229346573        0.83642840419372
H           -1.14807866015994       -3.17966136942967       -0.95016029429607
H           -2.56226201088598       -2.55787399429533       -0.07472076968225
H            1.36069445091983       -2.93545964756962       -0.00908954886739
25
 energy: -43.838473774265 gnorm: 0.014127958839 xtb: 6.6.1 (8d0f1dd)
C            3.26777762877954        1.17161577802142        0.06366308022106
N            2.30947249699808        0.11283873715128        0.01588493161576
C            2.60107823097897       -1.23726879787862        0.02597730987990
N            1.41642843767907       -1.93656719221720        0.00157065230119
C            0.39802253263681       -1.05523919101952       -0.00701371543243
C            0.91947700027615        0.23181306391483        0.01083107425697
C            0.10667502853273        1.38579528394417       -0.00357740778484
O            0.48352842258128        2.56318075795058       -0.00197117526832
N           -1.27369840248112        1.04857073695350       -0.03082627135749
C           -2.22732667283291        2.14813347280540       -0.04906768336721
C           -1.81911850761941       -0.19725708949334       -0.04757320535196
O           -3.01827937966876       -0.38522167825353       -0.07167932557692
N           -0.94161598003809       -1.30016974338100       -0.03584862919764
C           -1.47533794858495       -2.64212689337530       -0.05765740868173
H            3.75784776699895        1.20637899330519        1.03396561916529
H            4.08867990628330        1.04513051814565       -0.64566082751040
H            2.73209611554778        2.10543499282465       -0.09290463411139
H            3.57293142886312       -1.65261445727774        0.04197484580670
H           -1.67089112063209        3.08338423711538       -0.02489892302567
H           -2.83465065353421        2.09421030407074       -0.95229694203855
H           -2.88344596357462        2.07681848205368        0.81765505852437
H           -1.17490576712536       -3.19259521814491        0.83726481156684
H           -1.14574140986938       -3.17800740345024       -0.95141764508592
H           -2.56105890258168       -2.55642144023966       -0.07459043297938
H            1.36660805867301       -2.94041017113479       -0.01712285177171
25
 energy: -43.838674057034 gnorm: 0.006399694552 xtb: 6.6.1 (8d0f1dd)
C            3.27444301069852        1.16693653165676        0.06779368737101
N            2.31130719747156        0.11154760219492        0.01941811867310
C            2.59974903625731       -1.23617186898221        0.02479611212736
N            1.41603878720636       -1.93239302816846        0.00025187124393
C            0.39798092034711       -1.05045813033135       -0.00937634706939
C            0.92115766922102        0.23611061363850        0.01021291511517
C            0.10518876087668        1.39141002914122       -0.00491222479775
O            0.47864251759388        2.56793278979264       -0.00092637366949
N           -1.27504800710512        1.05108286379536       -0.03128568502766
C           -2.23459562198594        2.14393348422222       -0.04931245752692
C           -1.81975832133875       -0.19599071582058       -0.04753024605610
O           -3.01768909977602       -0.38629475112055       -0.06945889660798
N           -0.93976001771597       -1.29604675217958       -0.03709650419627
C           -1.47272454969448       -2.63808406690759       -0.05726867801862
H            3.76359263882860        1.20252984860028        1.03880724130694
H            4.08864524595800        1.02750837793609       -0.64625386228468
H            2.74677803828624        2.10480373298591       -0.09581849287602
H            3.57196873145790       -1.65477011217877        0.03680893218620
H           -1.67965181580799        3.07880740218492       -0.02408657043443
H           -2.84052443250351        2.08667318214741       -0.95348475547968
H           -2.89253657203776        2.06894889789562        0.81611960145060
H           -1.17147894568029       -3.18776367460195        0.83765439689030
H           -1.14348386782793       -3.17317572442456       -0.95106227877750
H           -2.55838481585768       -2.55092113854362       -0.07334935982267
H            1.36469585941445       -2.93674931054201       -0.01595983892292
25
 energy: -43.838702161258 gnorm: 0.005722772839 xtb: 6.6.1 (8d0f1dd)
C            3.27624498198597        1.17039250090208        0.06727677826307
N            2.31374390316860        0.11156773326735        0.01480049386938
C            2.60164415970628       -1.23504572264122        0.02173407787083
N            1.41808527743058       -1.93168461225462        0.00059781848942
C            0.39771070054430       -1.05145466315712       -0.01085471996655
C            0.92259386901876        0.23539950426097        0.00650015260957
C            0.10522950056081        1.39106030027915       -0.00366759896983
O            0.47823583735713        2.56717354223340        0.00144384785443
N           -1.27540275193158        1.04987427839643       -0.02946664985695
C           -2.23215679572398        2.14591436826371       -0.04864630383698
C           -1.82209487798713       -0.19823811695234       -0.04626196185574
O           -3.02029681269295       -0.38808799223447       -0.06985246992454
N           -0.94053187714453       -1.29868251461140       -0.03625796946292
C           -1.47578003164604       -2.64207821117518       -0.05738191193144
H            3.75784507387062        1.20371718825907        1.04331862495281
H            4.09107063556241        1.03519748659123       -0.64729280206766
H            2.75012598591779        2.10894014911479       -0.09926542559504
H            3.57517550243158       -1.65444364254558        0.03672546939060
H           -1.67494321483526        3.07941275661709       -0.02378401696585
H           -2.83796561406768        2.09244854297118       -0.95309665036936
H           -2.89187281883893        2.07620426160830        0.81587686463917
H           -1.17851396277154       -3.19594338275536        0.83624723710738
H           -1.14781394960557       -3.17910017708924       -0.95028254321730
H           -2.56180222659631       -2.55674277253969       -0.07516818784767
H            1.36602185257285       -2.93639472241792       -0.00856184838228
25
 energy: -43.838749525856 gnorm: 0.002370911768 xtb: 6.6.1 (8d0f1dd)
C            3.27530146973752        1.16931702924000        0.06665445646185
N            2.31342519405466        0.11087359437924        0.01603833155421
C            2.60073400204509       -1.23652247712961        0.02393052501162
N            1.41680223310030       -1.93254485087759       -0.00046965536604
C            0.39756093486458       -1.05187134277580       -0.00926499475864
C            0.92202745654685        0.23514537167545        0.00868548095990
C            0.10712394461256        1.39069455334507       -0.00352684630711
O            0.48018048620425        2.56695577480853       -0.00048172348413
N           -1.27517909534808        1.05046413678916       -0.03017363566450
C           -2.23250741532705        2.14577516187902       -0.04930252444246
C           -1.82144185951162       -0.19694689075117       -0.04668964976055
O           -3.01988671813854       -0.38635627188745       -0.07127653914954
N           -0.94088641835098       -1.29777676703763       -0.03568294985973
C           -1.47458324548403       -2.64088286169544       -0.05689265990798
H            3.76063288434059        1.20162412576138        1.04034115309027
H            4.09056752174427        1.03698025572612       -0.64823696339703
H            2.74605658610835        2.10676330344951       -0.09529913384544
H            3.57390541735439       -1.65527555891073        0.03959799290956
H           -1.67929064101591        3.08191997924207       -0.02482408650064
H           -2.83933539471490        2.09013957464480       -0.95296007367984
H           -2.89071569553629        2.07325276190711        0.81603121218885
H           -1.17466155442997       -3.19238394863446        0.83736150810879
H           -1.14534808506644       -3.17680910966234       -0.95020220850340
H           -2.56059975590884       -2.55586844585739       -0.07384791017087
H            1.36467009440542       -2.93726101523719       -0.01482880069064
25
 energy: -43.838748566814 gnorm: 0.002277652252 xtb: 6.6.1 (8d0f1dd)
C            3.27427576313539        1.16907426281745        0.06626389547065
N            2.31252204318120        0.11128258754807        0.01696758693694
C            2.60017036890173       -1.23595124638014        0.02473526158605
N            1.41690879582018       -1.93238698371346        0.00142957390753
C            0.39763163264060       -1.05213515955848       -0.00874262433386
C            0.92105150075932        0.23538045485093        0.00928724492910
C            0.10699884385751        1.39045441591112       -0.00394503630860
O            0.47848512300636        2.56711367772948       -0.00048804278735
N           -1.27573935660277        1.04966989378221       -0.03041812049402
C           -2.23211871374677        2.14503116081261       -0.04871692543318
C           -1.82109493670680       -0.19743956525661       -0.04716681123491
O           -3.01933952995370       -0.38742111352393       -0.07016006065383
N           -0.94061035413989       -1.29781751231537       -0.03623472851443
C           -1.47439862885875       -2.64026712597055       -0.05798039181694
H            3.75975276550913        1.20437269475593        1.03939826089964
H            4.09070866056282        1.03239444519504       -0.64601051453174
H            2.74545184408588        2.10629962924301       -0.09889542509462
H            3.57349968122218       -1.65351027960632        0.03760123635226
H           -1.67627715986304        3.07965838993395       -0.02324480074315
H           -2.83825144964227        2.09045952933231       -0.95298018260277
H           -2.89048678751002        2.07238603548700        0.81659661832799
H           -1.17461299951048       -3.19130606254190        0.83658240445340
H           -1.14542834896237       -3.17563685833810       -0.95177344647090
H           -2.56017209448454       -2.55310511861812       -0.07491550898125
H            1.36562568358531       -2.93719406918551       -0.01250915806547
25
 energy: -43.838757035412 gnorm: 0.001021160942 xtb: 6.6.1 (8d0f1dd)
C            3.27482444091830        1.16930714328892        0.06741124148322
N            2.31300132543843        0.11109987844573        0.01638225532282
C            2.60035504681567       -1.23593362036343        0.02320676857242
N            1.41714568442318       -1.93220013600501       -0.00018596303645
C            0.39760435116522       -1.05199012527749       -0.00980986467554
C            0.92140175692628        0.23549411078382        0.00844558494366
C            0.10716513317444        1.39084238478386       -0.00396651470471
O            0.47875372215931        2.56733298605119       -0.00002808779334
N           -1.27568542656000        1.04998950100163       -0.03039034977868
C           -2.23234511484528        2.14534514406651       -0.04934585747861
C           -1.82124895180161       -0.19731392716350       -0.04692221151289
O           -3.01945488574310       -0.38714219415242       -0.06989826758726
N           -0.94060188764173       -1.29788302582522       -0.03625476936573
C           -1.47456020158160       -2.64077577687815       -0.05694632943195
H            3.76045076676301        1.20244892328302        1.04071040637187
H            4.09009794089121        1.03441691212373       -0.64661529751566
H            2.74635526719542        2.10702637430828       -0.09548085688934
H            3.57373411073881       -1.65405489617052        0.03677643532691
H           -1.67679845459139        3.08010373104613       -0.02476082590196
H           -2.83869938334165        2.09033718913134       -0.95344155692923
H           -2.89104777590849        2.07382805639934        0.81584760675794
H           -1.17498573726460       -3.19208473176391        0.83751207223713
H           -1.14593187321172       -3.17704930101234       -0.95022481983566
H           -2.56043774911845       -2.55471855659333       -0.07372393840758
H            1.36546024128650       -2.93701996111756       -0.01361655537488
25
 energy: -43.838739892031 gnorm: 0.002574384098 xtb: 6.6.1 (8d0f1dd)
C            3.27580163292751        1.16942511410823        0.06544964349402
N            2.31402269894435        0.11039642722423        0.01602908174384
C            2.60065540605931       -1.23660056084164        0.02550480145535
N            1.41718487922079       -1.93233363983575        0.00090521666406
C            0.39757447430915       -1.05188648166239       -0.00930764635484
C            0.92218635796332        0.23538176077897        0.00837401286374
C            0.10796539463755        1.39117932409182       -0.00356372260034
O            0.48020392624718        2.56734453735321        0.00007219729857
N           -1.27531594098696        1.05063577378378       -0.02993862349324
C           -2.23285273680990        2.14566321681280       -0.04828201375465
C           -1.82144360054543       -0.19676688977544       -0.04690331938398
O           -3.01970708794429       -0.38619917125687       -0.07186793192405
N           -0.94067431079297       -1.29767860557861       -0.03604255746437
C           -1.47471808548607       -2.64095931764361       -0.05801779349259
H            3.76047260798943        1.20327863757107        1.03947254009721
H            4.09054047321465        1.03596579953839       -0.64971439994548
H            2.74693706094588        2.10665717831056       -0.09868746324079
H            3.57395706433463       -1.65580287189886        0.04247273134739
H           -1.67987125059075        3.08188532946527       -0.02333713663561
H           -2.83992031776404        2.09056914090385       -0.95187784429738
H           -2.89129407438037        2.07285011977734        0.81695628009728
H           -1.17572255011792       -3.19362117400895        0.83580283164589
H           -1.14514253699400       -3.17647025175526       -0.95133263996778
H           -2.56075626704571       -2.55636706393741       -0.07565639385154
H            1.36446912895084       -2.93714024913411       -0.01182954550421
25
 energy: -43.828238925266 gnorm: 0.097212928597 xtb: 6.6.1 (8d0f1dd)
C            3.32308874270963        1.16662491475884        0.02819775098819
N            2.30870189884239        0.10781799629726        0.01169406587811
C            2.58535967600282       -1.21683168600001        0.01178888591788
N            1.41771789675972       -1.92912418578497       -0.00063321401481
C            0.38220850679358       -1.03983546388675       -0.01102179486921
C            0.91870379594245        0.23918743225556        0.00428556048758
C            0.07438333473131        1.39935669802650       -0.00133993593246
O            0.46693636241167        2.56713208591843        0.00377200474897
N           -1.27170571617428        1.05417561948441       -0.02982545352410
C           -2.24331256834010        2.14448616408463       -0.04851591019422
C           -1.83283818653168       -0.20281790165381       -0.04712315210583
O           -3.01895656575797       -0.38522178318402       -0.07002630036999
N           -0.93910057809739       -1.30063811027461       -0.03616621840671
C           -1.48052893222435       -2.64457679960943       -0.05558296936217
H            3.81797875324067        1.17635497004567        0.96300717637877
H            4.21437757413775        1.04123887567200       -0.57321450206326
H            2.78641619911633        2.11011716409815       -0.09696731483324
H            3.55491960557048       -1.64448835661563        0.03411067312110
H           -1.69920805757765        3.07949596778876       -0.02310794876841
H           -2.85230020241246        2.08571546169747       -0.95209840736568
H           -2.90359732635358        2.06815739172424        0.81633522783067
H           -1.18390676825606       -3.19064858051484        0.84263216550241
H           -1.15037163730716       -3.18023907286956       -0.94495223788466
H           -2.56638514121048       -2.56034695699931       -0.07393468090102
H            1.36330506121131       -2.93710676597904       -0.01325244745686
25
 energy: -43.833544465941 gnorm: 0.040832770523 xtb: 6.6.1 (8d0f1dd)
C            3.31022059878140        1.16855662486911        0.06106350989534
N            2.32141861716652        0.11585228245171        0.01176570955152
C            2.60112573959906       -1.22826796686986        0.00780687759582
N            1.41730388337772       -1.92716504752153       -0.00432589209088
C            0.39572049896651       -1.03673636720105       -0.01406033522189
C            0.92920430692099        0.24517710702626       -0.00231253500107
C            0.08994933405386        1.39804677052951       -0.00663116872531
O            0.47100893671540        2.57444132460666        0.00248781511699
N           -1.27421704787857        1.04983687848156       -0.03079901794735
C           -2.24142134929948        2.13999948466013       -0.04792877930598
C           -1.83096617472484       -0.20044926005718       -0.04713188005065
O           -3.02707360299307       -0.38841658638424       -0.06960159882043
N           -0.93746109865214       -1.29437039799038       -0.03634203220035
C           -1.47468450722649       -2.63732946495845       -0.05444600379746
H            3.79330824219953        1.18869078971997        1.03560748576152
H            4.13779388857814        1.01622834416878       -0.64374099814466
H            2.78517216535676        2.10624448492003       -0.11094999786295
H            3.57063403905343       -1.66259484861701        0.03500459214247
H           -1.68528790580927        3.07252320899012       -0.02316423863178
H           -2.84924447689088        2.08362549286654       -0.95170075273007
H           -2.90042546059941        2.06618074923401        0.81763439219065
H           -1.17745690062322       -3.18603972095022        0.84231031623717
H           -1.14415810990534       -3.17560267985215       -0.94466363598093
H           -2.56058063896943       -2.54937156527801       -0.07344063080388
H            1.35200275002977       -2.93107455836440       -0.01438017837475
25
 energy: -43.834886838402 gnorm: 0.020169082732 xtb: 6.6.1 (8d0f1dd)
C            3.32269463387387        1.16563284562936        0.04913066812492
N            2.32461921107594        0.12349244361576       -0.00692104143764
C            2.60010386957987       -1.22726320579115        0.00410337265491
N            1.41338724150966       -1.92440523836319       -0.00063673154802
C            0.39513370137160       -1.03768702031411       -0.01167625250635
C            0.92726278769868        0.24787117480225       -0.00471992767385
C            0.09018599281559        1.39601525266544       -0.00244611178883
O            0.46211284388169        2.57526697643054        0.00448301096258
N           -1.28268900633771        1.04776610405710       -0.02783737344285
C           -2.24825713189598        2.13963508824377       -0.04803511688062
C           -1.83293894373525       -0.20104507920928       -0.04558290686542
O           -3.03093746904081       -0.39143619794837       -0.07067753057385
N           -0.94299789243952       -1.29568773272493       -0.03354442925397
C           -1.47940573695416       -2.64019601657270       -0.05375350914974
H            3.80380656677669        1.17638946634229        1.02442357544155
H            4.17779011020320        1.02954749027076       -0.61895827271477
H            2.81272170167590        2.11258011279254       -0.11005452778527
H            3.56845064575885       -1.65769482348010        0.03390333471014
H           -1.69675095812201        3.07636307687231       -0.02264608699364
H           -2.85468513212040        2.08404551234260       -0.95239504160471
H           -2.90888973919450        2.06704542225652        0.81577277660523
H           -1.18464826305489       -3.19222922501756        0.84194053400319
H           -1.14977680283336       -3.18039120890850       -0.94420959011864
H           -2.56604341208206       -2.55727758782054       -0.07423761715595
H            1.35163690881606       -2.92835255169091       -0.00736418220735
25
 energy: -43.834933722960 gnorm: 0.013662116928 xtb: 6.6.1 (8d0f1dd)
C            3.30599596859921        1.16619225647375        0.04205632232663
N            2.31915059131591        0.12009729831311       -0.00171496596770
C            2.59632675197179       -1.23208598841006        0.01458364468589
N            1.41122817857202       -1.92986764853051        0.00116835637810
C            0.39422882545696       -1.04560195064003       -0.00710416123495
C            0.92218262947496        0.24185268725783        0.00532024389001
C            0.09743701850382        1.39133078845339       -0.00140161381858
O            0.46711489909491        2.56964832895771        0.00392818628682
N           -1.28144126801719        1.04727665802346       -0.02957369100823
C           -2.23914736940836        2.14361973554740       -0.04857681137403
C           -1.82824192350416       -0.19952260570268       -0.04753233302304
O           -3.02643167473996       -0.38839537747536       -0.07275920268241
N           -0.94525831034775       -1.29775840244055       -0.03462619379417
C           -1.47870548534351       -2.64149787895499       -0.05522126163710
H            3.80475517934050        1.18830618386749        1.00332411222999
H            4.17054593363788        1.04459170434420       -0.61457286139708
H            2.77927158956111        2.10682065036054       -0.10320904897673
H            3.56542637035892       -1.65491746376660        0.03995873927065
H           -1.68375303986877        3.07849325493678       -0.02389452941316
H           -2.84672507031458        2.09015389662488       -0.95199366014575
H           -2.89616403337319        2.07259854346676        0.81770095750872
H           -1.18082042973101       -3.19003770395281        0.84165058876043
H           -1.14683935065955       -3.18014236751600       -0.94618850115405
H           -2.56519157142039       -2.55829157998361       -0.07510947886304
H            1.35694131806736       -2.93487794077419       -0.01815181404616
25
 energy: -43.835253285475 gnorm: 0.006939122636 xtb: 6.6.1 (8d0f1dd)
C            3.31165148704471        1.16097411404669        0.04968061197625
N            2.32017623897103        0.12175598396027        0.00036196686543
C            2.59632347165593       -1.23006677062053        0.01129441516728
N            1.41160066857573       -1.92571893841794       -0.00127092341182
C            0.39543495053129       -1.04132291516058       -0.01123676307269
C            0.92248178705694        0.24682969731122        0.00196672503712
C            0.09727327373434        1.39602463025731       -0.00607740456190
O            0.46355805275272        2.57497834802938        0.00131979735431
N           -1.28321342697177        1.04948308556333       -0.03129395272579
C           -2.24669765695482        2.13975161964598       -0.04844862220834
C           -1.82729062537518       -0.19788198057811       -0.04765533694809
O           -3.02505361543389       -0.38944979261243       -0.06895540510706
N           -0.94330256393797       -1.29393939106332       -0.03649882127197
C           -1.47620870615516       -2.63742273114913       -0.05388577750663
H            3.80742793346178        1.18083189619188        1.01384667789622
H            4.16991016827180        1.02150509720574       -0.61428908451986
H            2.79525881331587        2.10682634256826       -0.10479943747635
H            3.56585743044179       -1.65349803686128        0.03242169258343
H           -1.69583760089401        3.07656553304207       -0.02320435105873
H           -2.85422902256589        2.08242691951040       -0.95181462831679