25
 energy: 0.000000000000 xtb: 6.6.1 (8d0f1dd)
C            3.23720132972391        1.16630909158653        0.08434468864950
N            2.29877796055224        0.07527476373246        0.03981602671198
C            2.58028186251803       -1.21425391179017        0.03006175752192
N            1.43813944744728       -1.93419254010258        0.00098261751768
C            0.39035684826767       -1.05887462812143       -0.00790371763344
C            0.93510047688824        0.21347817468824        0.01709077332874
C            0.09450143016486        1.40504290868848       -0.00410946993748
O            0.49712746915594        2.54126690785742       -0.00342325656480
N           -1.25076628431515        1.06271869620815       -0.03085477937476
C           -2.21907191394203        2.15522079838987       -0.05001256521996
C           -1.81739470187490       -0.20012724136556       -0.04692818139228
O           -2.99983858926755       -0.37846413507442       -0.07008877579474
N           -0.92618577614240       -1.30210203518959       -0.03682761236648
C           -1.46982251276835       -2.64643077634382       -0.06029819901142
H            3.71247229913541        1.21471443890471        1.06488839270555
H            4.00791460421487        1.03430799217987       -0.67357688121503
H            2.69909982127087        2.09770098766290       -0.09130154035862
H            3.56654087521359       -1.63682977417947        0.04233139674524
H           -1.67107945562430        3.09322822573871       -0.02552706696334
H           -2.82428927394145        2.09428605349656       -0.95318074103337
H           -2.87644002486466        2.07745706351925        0.81450059976605
H           -1.17061985538665       -3.19584861009707        0.83242224714061
H           -1.14560246782873       -3.17511580834413       -0.95688266944647
H           -2.55549768731684       -2.55659960601237       -0.07459039105944
H            1.38130842369251       -2.94313824728853       -0.01389874052104
25
 energy: -3.026720626895 xtb: 6.6.1 (8d0f1dd)
C            3.24686928585370        1.16727743495694        0.07949496972330
N            2.31071305370505        0.08623385702176        0.03401129094201
C            2.60259580012888       -1.24130030835184        0.03032098402011
N            1.43113622633298       -1.94914749538578        0.00354312702417
C            0.39994419458958       -1.06385567867814       -0.00749559482494
C            0.93313549898998        0.21500291958567        0.01306636430804
C            0.10829433718690        1.39316047877297       -0.00565914963224
O            0.51144469020837        2.55592441596162       -0.00970531376923
N           -1.25633281646341        1.06167492058744       -0.02919054176287
C           -2.21551142534212        2.17375614592347       -0.03978906490695
C           -1.81748847617711       -0.19851699270058       -0.04800616339684
O           -3.01358313320703       -0.38578832774815       -0.06629081604862
N           -0.93052287756903       -1.30559721878529       -0.03575814345799
C           -1.46280774230329       -2.65269548507128       -0.05628468435604
H            3.72078715967784        1.21843155438154        1.06316595757718
H            4.01764214369289        1.02686194769487       -0.67960979863715
H            2.70117350845136        2.09088399597349       -0.10401247515246
H            3.58111969082211       -1.66653184892693        0.04347098823089
H           -1.77960529495102        3.18927987198716        0.01883339494007
H           -2.77719860753620        2.15068856358360       -0.95231849366844
H           -2.92843509437932        2.03889247018249        0.76890315441014
H           -1.15966508754988       -3.20305389918619        0.83708272471670
H           -1.12901613805944       -3.18722031433318       -0.94847990838128
H           -2.54857991573315       -2.57204019622482       -0.07433715119525
H            1.36610532460377       -2.95329202247680       -0.00792174450771
25
 energy: 4.302082558786 xtb: 6.6.1 (8d0f1dd)
C            3.26173262011697        1.15754888936096        0.06658776053726
N            2.32404500819549        0.08901362303576        0.02096074193728
C            2.62405873690706       -1.27625939659596        0.03075098194172
N            1.42002835906766       -1.96445183138997        0.00894737968932
C            0.41138869879334       -1.06997945039558       -0.00553920881694
C            0.93167610087386        0.21458276082276        0.00579981479865
C            0.12912305819005        1.37664460748015       -0.00869128673758
O            0.52558936861256        2.55756410959243       -0.02508965015856
N           -1.26434992987985        1.07447536187303       -0.02050765508360
C           -2.22022493107510        2.20576629282178       -0.02286611811678
C           -1.81291036099048       -0.18738482455922       -0.04216610059200
O           -3.01639285796163       -0.39294946929446       -0.05574556845377
N           -0.93494412238993       -1.30318180471839       -0.03149343097091
C           -1.44724861079476       -2.65851388940392       -0.04798823619444
H            3.73361325524259        1.22151665270336        1.05330915859605
H            4.03691895055087        1.00934094194246       -0.68930214606819
H            2.71158903113986        2.07523290825190       -0.13039591139141
H            3.59376757549887       -1.70507502414763        0.04455537048713
H           -1.95744884009619        3.32873794851559        0.13455646220850
H           -2.67986969229069        2.26347467632527       -0.98526817558069
H           -3.03700838290434        1.95199493526063        0.68048867882073
H           -1.13891776336158       -3.20899156353811        0.84709093146279
H           -1.09665819188262       -3.20287959296294       -0.93167485094557
H           -2.53386470597498       -2.60147551928982       -0.07342631437692
H            1.34852193138544       -2.96572255294614        0.00414128520247
25
 energy: 17.775293623288 xtb: 6.6.1 (8d0f1dd)
C            3.27482874302562        1.14252541847284        0.04869015660360
N            2.33300122036093        0.08276355332456        0.00491086034726
C            2.63637177757992       -1.30668703056023        0.02868878898573
N            1.41238216285156       -1.97823789724751        0.01362366679365
C            0.41950622812822       -1.07809180240900       -0.00188292776646
C            0.93077727964435        0.21045667653606       -0.00065219028730
C            0.14209149222559        1.36609235664937       -0.00824221009027
O            0.53063851370527        2.55479118051849       -0.04086141689980
N           -1.27745610263650        1.09448678364660        0.00581172423008
C           -2.23725517545558        2.24276367027349       -0.00366629022229
C           -1.81127829332163       -0.17569787869312       -0.02266832772491
O           -3.01560593064680       -0.40370451861478       -0.03635727252929
N           -0.93728294742143       -1.29903485917430       -0.02334774984053
C           -1.42728207160061       -2.66468170637824       -0.03861493651480
H            3.74307692624093        1.22172441763762        1.03792916682067
H            4.05673804845567        0.98639587347355       -0.70039347124790
H            2.72664410960778        2.05851306300268       -0.16372663416179
H            3.60174995675711       -1.73840771921492        0.04139234561545
H           -2.13604361968510        3.44173040609874        0.28249680003656
H           -2.54299070913743        2.41031625911239       -1.03943033108187
H           -3.16554394405058        1.86406888695708        0.55521393040265
H           -1.11325717213323       -3.21206737770831        0.85909465809619
H           -1.05662933312149       -3.21404965238691       -0.91416712513898
H           -2.51476029711336       -2.63760074756037       -0.07301275542754
H            1.33979344271337       -2.97933856701183        0.01620545319649
25
 energy: 30.618536145610 xtb: 6.6.1 (8d0f1dd)
C            3.28262886599608        1.12583664302983        0.03422693383244
N            2.33567848043273        0.06981563805535       -0.00921494154841
C            2.63890240316686       -1.32743282723928        0.02489089204497
N            1.41011584546614       -1.98886872999159        0.01518638878838
C            0.42320841768290       -1.08838879272563        0.00198825932302
C            0.92926172466614        0.20218510327751       -0.00545226948226
C            0.14398294898178        1.35932372107603       -0.00740533741459
O            0.52374127668246        2.54454320688640       -0.05528459767831
N           -1.29593100938576        1.11344259787698        0.04898089203677
C           -2.26094152079912        2.27936497518132        0.01016370190352
C           -1.81443558597649       -0.16973695826755        0.01117746306769
O           -3.01264570642171       -0.42227556202752       -0.00862866021607
N           -0.93754631446091       -1.29690015703474       -0.01382281048500
C           -1.40616603867313       -2.67315602407949       -0.03436144971970
H            3.74488145001308        1.21900352555102        1.02581745674372
H            4.07310960730570        0.96359706790721       -0.70508511950257
H            2.74145415191141        2.04369580430411       -0.19280501187987
H            3.60492738054106       -1.75972796379181        0.03519553327425
H           -2.30363380360830        3.52097012289951        0.38694441299804
H           -2.40629385167660        2.55204440806559       -1.05830800236074
H           -3.24813569888017        1.82715620252672        0.41723495481057
H           -1.08830312364318       -3.21702241760847        0.86560537148778
H           -1.01479763380180       -3.21970985391017       -0.90439014326509
H           -2.49370846177686       -2.67662270041944       -0.07910535973858
H            1.34286050123022       -2.99210824079801        0.02348535517464
25
 energy: 37.629066882549 xtb: 6.6.1 (8d0f1dd)
C            3.28392521094351        1.10856794690663        0.02526181731568
N            2.33194208511166        0.04799319839830       -0.01950221426450
C            2.62788442188412       -1.33237085444994        0.02089474455629
N            1.41542035801296       -1.99313067667427        0.01485642632593
C            0.42073494519338       -1.09959031701163        0.00429285582029
C            0.92968598155585        0.18982895713724       -0.00897059262108
C            0.13659572406498        1.35975450070423       -0.00947913586598
O            0.50777095925993        2.52563936061853       -0.06973063235033
N           -1.31437613925655        1.13077869354018        0.10227920444405
C           -2.29001299574575        2.31145433361461        0.01741313883355
C           -1.82183536834000       -0.16914869603229        0.04677858864681
O           -3.00497727295876       -0.44432772980881        0.01890026687599
N           -0.93462970850435       -1.29582184256997       -0.00713374586932
C           -1.38942300544237       -2.68118062778121       -0.03428406826094
H            3.73843235164077        1.21331585914805        1.01827258413840
H            4.08310848760921        0.94424045101370       -0.70274763871919
H            2.75376247841986        2.03180554542577       -0.21298376345651
H            3.60097432502637       -1.76346028119496        0.02768014076827
H           -2.46348021695479        3.55822153698312        0.43901865542949
H           -2.27452936091922        2.66593866970228       -1.01340884515083
H           -3.25599135105126        1.83039832338403        0.26512677326630
H           -1.07197728966351       -3.22028200144555        0.86834495973364
H           -0.98167780120330       -3.21888269789680       -0.90111251051265
H           -2.47512707268835       -2.70930739780843       -0.08939078883872
H            1.36001455897817       -3.00140546515894        0.02665769194996
25
 energy: 43.339628693389 xtb: 6.6.1 (8d0f1dd)
C            3.27833658712541        1.10077420799034        0.01222888878876
N            2.32589406871057        0.03551297776811       -0.03028706287748
C            2.61376707846941       -1.31809719063674        0.01066297242817
N            1.42364840595886       -1.99149743062820        0.01401785550545
C            0.41302281230467       -1.10599612492167        0.01043550340290
C            0.92884456568841        0.18238469987262       -0.00227567985226
C            0.12720784083455        1.36131512978723        0.01047632219745
O            0.49713090539519        2.51707804063402       -0.08554184974316
N           -1.31973754050125        1.12894266297866        0.16412089664468
C           -2.29656449633331        2.32946197255424        0.02553462233733
C           -1.83304710993593       -0.17690525320008        0.07361789424693
O           -3.00722804355949       -0.45946147363441        0.04867442479185
N           -0.93344938501279       -1.29970906922020        0.00369670722294
C           -1.38671218997794       -2.68802538399470       -0.02767494712826
H            3.72588082585823        1.20497607107756        1.00633170811099
H            4.07851565394003        0.92939961522352       -0.71099551587784
H            2.75413850796736        2.02509015676239       -0.23100556680673
H            3.59265302424509       -1.74516193363929        0.00792094570639
H           -2.58008189472032        3.56271947717657        0.51483941332985
H           -2.06817669372733        2.76835190981450       -0.96463306288825
H           -3.29178652218458        1.79200867030476        0.06152295344145
H           -1.06964291766070       -3.22434767582782        0.87534589645293
H           -0.97189883866029       -3.21352067915036       -0.89569641193577
H           -2.46902075621035       -2.72428533565351       -0.08818288517395
H            1.38052041695909       -3.00197925269373        0.02389988987018
25
 energy: 42.948425955629 xtb: 6.6.1 (8d0f1dd)
C            3.26766129868398        1.10247045129999        0.00960144518755
N            2.31680659946234        0.02924470681376       -0.03254407402635
C            2.59262409646577       -1.28229022934775        0.00493428115201
N            1.43345646172496       -1.98188698508558        0.01414634301616
C            0.39885537209098       -1.10365545304245        0.01635160609365
C            0.92782594140539        0.18192080935049        0.00981384238749
C            0.10675789292616        1.36727783072798        0.02793376508644
O            0.48618705173708        2.51527856286030       -0.11110355493836
N           -1.31574189423126        1.10934538888053        0.20682946712106
C           -2.29430522812207        2.32353046303119        0.02080307813351
C           -1.84734034934068       -0.19244277059637        0.08606012073847
O           -3.01569319801168       -0.46436111012544        0.06121934203083
N           -0.93231851014437       -1.30652652368150        0.01045719560179
C           -1.39521469078414       -2.69308411060086       -0.02749950782428
H            3.70884643502706        1.19688020337253        1.00486158147543
H            4.06566949041243        0.92562576407069       -0.71192931552709
H            2.74551113306000        2.02568463950131       -0.23158364500029
H            3.57686995896684       -1.70973052500761       -0.00587845799106
H           -2.63410103634281        3.49640549834440        0.50950323759287
H           -1.92006777305574        2.80002926107132       -0.82794406063070
H           -3.22145901934364        1.79882144140037       -0.10662269626711
H           -1.07932331353696       -3.22910499462253        0.87315393854283
H           -0.98128679723762       -3.20616627801177       -0.89970055921268
H           -2.47504440957744       -2.72133591601085       -0.08919622825657
H            1.39703879273802       -2.99290133584834        0.01536676770893
25
 energy: 43.086459454845 xtb: 6.6.1 (8d0f1dd)
C            3.25934697666133        1.11681048596441        0.00283222037469
N            2.31010224331028        0.05118357659028       -0.04000379492895
C            2.60317652998300       -1.28551144966588       -0.00071191046599
N            1.42761055015504       -1.98869665938572        0.01476510744890
C            0.40091466674653       -1.10450681450117        0.02640588659803
C            0.91237202353172        0.18775127923035        0.01849210749331
C            0.08885501544531        1.34944099789469        0.03762698313806
O            0.47077030694827        2.51058271020349       -0.12075335795145
N           -1.32662123845993        1.08833890954506        0.23926841255268
C           -2.27795161129922        2.32555627971597        0.02058495319745
C           -1.85123298820572       -0.20344779562107        0.11390696726241
O           -3.02999919462463       -0.47397422711260        0.07753463387042
N           -0.93994496212314       -1.31872388011173        0.02701445591686
C           -1.39557787423834       -2.70524180868720       -0.02464812393763
H            3.70297281368893        1.20872535984706        0.99969525271874
H            4.05756809411248        0.93376011574183       -0.71961764597077
H            2.73176156503394        2.03570028081261       -0.24100728214181
H            3.58216033722472       -1.71250908234957       -0.02091335639295
H           -2.70889782301881        3.48033969986900        0.54650473017065
H           -1.73877628264781        2.88748818858706       -0.74761037692946
H           -3.21482294500283        1.80202371047822       -0.27362826411290
H           -1.07697899149884       -3.25183045878071        0.87044037788069
H           -0.98178243633988       -3.21836756673729       -0.90082181360052
H           -2.47922068283264       -2.73045257158102       -0.08440939732918
H            1.38641021242282       -2.99541049120225        0.00608714733329
25
 energy: 42.075762166930 xtb: 6.6.1 (8d0f1dd)
C            3.25213244279842        1.12728028005111        0.00384256766395
N            2.30360632880892        0.06417700255471       -0.03842499395557
C            2.60945002980551       -1.28606416621272       -0.00206329624954
N            1.42469439265851       -1.98945322363968        0.01361202455038
C            0.40296750983915       -1.10483500782547        0.02626967285173
C            0.90367600999464        0.18904994188363        0.01912241568870
C            0.07717334828529        1.34116276960737        0.03595386255773
O            0.46194208161560        2.50616395548759       -0.09708843065600
N           -1.33215356228794        1.07664272824467        0.23174249104797
C           -2.26745960061298        2.31768885966833        0.01055607908305
C           -1.84860830791722       -0.21066939228852        0.10523124934976
O           -3.03293648907236       -0.47462083663558        0.07008020782361
N           -0.94234247743387       -1.32680639287630        0.02942354643973
C           -1.40040770708705       -2.70894627856403       -0.02078837837895
H            3.70281493541769        1.21888632658554        0.99853442943952
H            4.04736370423632        0.94717192083998       -0.72329932772464
H            2.72234119701404        2.04591000319262       -0.23667706704080
H            3.58604233777951       -1.71037967896568       -0.02534534235637
H           -2.72405417538779        3.45250969115855        0.53604326892773
H           -1.68008985068956        2.89434789823000       -0.68202896066270
H           -3.16955155452144        1.82256561020859       -0.32604167504039
H           -1.08207118893638       -3.26029572238827        0.87220560896663
H           -0.99761357509144       -3.22589608327324       -0.90016594845030
H           -2.48514200689379       -2.72192582605643       -0.07439445341562
H            1.38044048265085       -2.99463559024296        0.00073436173494
25
 energy: 43.590123204226 xtb: 6.6.1 (8d0f1dd)
C            3.24774179128635        1.13113850204630        0.00147801061397
N            2.29888373049014        0.06839130213315       -0.03857668004549
C            2.61146760886400       -1.28529044750820       -0.00555614153450
N            1.42445700931572       -1.98926083719826        0.01035590853900
C            0.40349290153370       -1.10681307646402        0.02636086449932
C            0.89959284240008        0.18676626416047        0.02076991177574
C            0.06997925166608        1.33748641165951        0.04353969255843
O            0.45903912757128        2.50379546086764       -0.07676222211279
N           -1.33705804175761        1.07094227967994        0.23897435562737
C           -2.25895025646025        2.31748362380075        0.00252235029077
C           -1.84750455570562       -0.21640342879115        0.10726507447234
O           -3.03326202710283       -0.47663641579548        0.06605261316457
N           -0.94264778142912       -1.33209303074560        0.03316275736444
C           -1.40380132692013       -2.71119590251418       -0.01680038445436
H            3.70440571040429        1.22244878975631        0.99356589556576
H            4.03957679865984        0.95442201516331       -0.73037054498673
H            2.71792194691687        2.05118683768650       -0.23439549354076
H            3.58829394649904       -1.70631597712329       -0.03181490475796
H           -2.76291889964139        3.43831445777142        0.53632563408219
H           -1.60497676536984        2.91083034316243       -0.60311380669067
H           -3.15956980627803        1.82636440220330       -0.42358447763699
H           -1.08390089719266       -3.26444992963903        0.87442737883304
H           -1.00946682548399       -3.22998221063377       -0.89890464765111
H           -2.48936199112438       -2.71755828895524       -0.06384776530214
H            1.38078081383103       -2.99454235597901       -0.00403946647891
25
 energy: 42.676555933099 xtb: 6.6.1 (8d0f1dd)
C            3.24540654937921        1.13179516190864        0.00091612746609
N            2.29613645517340        0.06819824945951       -0.03696545453161
C            2.61022845136630       -1.28287007525041       -0.00599471064198
N            1.42551792879817       -1.98748450872933        0.00847416286549
C            0.40220746092103       -1.10848359134713        0.02482822355939
C            0.89812377105536        0.18455084425379        0.02016951215602
C            0.06539646005109        1.33706179046231        0.04779542210788
O            0.45671759333048        2.50416743278789       -0.06739849491167
N           -1.34422493745943        1.06748661187612        0.23476058121137
C           -2.26342777725587        2.31193143897951       -0.00364525218380
C           -1.85038661160084       -0.22245265544166        0.10423463744677
O           -3.03514515045374       -0.48282410597421        0.05953708693727
N           -0.94247791271373       -1.33484196402163        0.03240959652967
C           -1.40459719718652       -2.71309777163763       -0.01520852457186
H            3.70477018970263        1.22201371408123        0.99151321753539
H            4.03521961843926        0.95720751282159       -0.73377837849881
H            2.71607286011528        2.05323810562240       -0.23128760969550
H            3.58883658469017       -1.70062228276173       -0.03148261756910
H           -2.76630781736703        3.42205968757879        0.53100890993519
H           -1.58431895173454        2.92981797205454       -0.58549624213899
H           -3.14031429120688        1.84064227402828       -0.43296677277039
H           -1.08275222751939       -3.26417797939584        0.87623037364498
H           -1.01286706436473       -3.23233330214213       -0.89803073617426
H           -2.49043450656449       -2.71835759248032       -0.05910342899485
H            1.38483482737738       -2.99359617798877       -0.00348571651818
25
 energy: 43.057734767466 xtb: 6.6.1 (8d0f1dd)
C            3.24694175440774        1.12909844864407        0.00077992742676
N            2.29696649359352        0.06545420194560       -0.03559304849715
C            2.60884051444027       -1.28314199418151       -0.00579869782481
N            1.42575990521098       -1.98673462402114        0.00736681766467
C            0.40154853955289       -1.10851523719383        0.02377714426563
C            0.89987626812608        0.18402425319497        0.01904328568969
C            0.06878054506437        1.33900840567674        0.04929239706827
O            0.46100046359487        2.50541465192102       -0.06420862630009
N           -1.34517945902036        1.07121037077802        0.23136359987323
C           -2.26527230326879        2.31261064485905       -0.00677234568689
C           -1.85101345415444       -0.22105712060502        0.10314664633421
O           -3.03462233257326       -0.48264129164218        0.05886702365429
N           -0.94210111485441       -1.33270335547550        0.03112035933601
C           -1.40369238358741       -2.71190430212824       -0.01548132901698
H            3.70641774587753        1.21880482980118        0.99112179147351
H            4.03610114611865        0.95433697440981       -0.73457414771081
H            2.71797064794365        2.05111250701526       -0.23070900106585
H            3.58846414071120       -1.69989068652767       -0.02973397272821
H           -2.76700478964512        3.42727016565255        0.52990430838309
H           -1.59895163987088        2.92164913784115       -0.58677304830225
H           -3.14426025372905        1.84127353763052       -0.42601217137901
H           -1.08110845699182       -3.26175037584505        0.87630024569519
H           -1.01083521237223       -3.23073768387389       -0.89794522150893
H           -2.48928619301881       -2.71972435614611       -0.05975003106239
H            1.38687373341739       -2.99343831298598       -0.00169799358665
25
 energy: 43.641098889755 xtb: 6.6.1 (8d0f1dd)
C            3.24726564520827        1.12838612757570        0.00009701090365
N            2.29698952141680        0.06499927051544       -0.03476404376778
C            2.60822487075674       -1.28337501401547       -0.00581243260738
N            1.42557158493742       -1.98680201670882        0.00679913235408
C            0.40098541550082       -1.10879676760309        0.02342971021241
C            0.89975465494794        0.18420199447274        0.01815383354129
C            0.06974747639311        1.33853103983970        0.04936249321186
O            0.46163465118819        2.50513002680259       -0.06300484957555
N           -1.34738230799460        1.07157237771923        0.22988436084191
C           -2.26511494589901        2.31284610147084       -0.00845389789405
C           -1.85226723639319       -0.22143523725034        0.10337797703219
O           -3.03559898654146       -0.48400028375758        0.05983020733236
N           -0.94255506398531       -1.33232044457888        0.03079504964850
C           -1.40284244676220       -2.71244338488171       -0.01543400141370
H            3.70706274473008        1.21801780733072        0.99033799328025
H            4.03609072076060        0.95285235686926       -0.73555350936927
H            2.71803197669876        2.05030607269601       -0.23150431423915
H            3.58831856229777       -1.69939749349672       -0.02862743927768
H           -2.77325483472230        3.42978533592733        0.53181965399045
H           -1.59384194251562        2.92739074929113       -0.57832751283033
H           -3.14583680234147        1.84197055554319       -0.43378827017603
H           -1.07954781373284       -3.26181130438894        0.87641610809102
H           -1.00880924440858       -3.23101859504705       -0.89766143998854
H           -2.48837925742545       -2.72197335191026       -0.06020402763700
H            1.38796736285810       -2.99358713367128       -0.00013387946898
25
 energy: 44.471893486058 xtb: 6.6.1 (8d0f1dd)
C            3.24795172593946        1.12764169872972       -0.00054098030806
N            2.29753671932733        0.06429417386805       -0.03295104775263
C            2.60750736882947       -1.28391569072364       -0.00617312637239
N            1.42538947880934       -1.98704452015452        0.00570698331630
C            0.40048039603647       -1.10926405817989        0.02289085781161
C            0.89976751444232        0.18461657296563        0.01727504751092
C            0.07177668622155        1.33802357690542        0.04983736114768
O            0.46182903820584        2.50531434731025       -0.06126256698455
N           -1.34995714277127        1.07163719863302        0.22703940132064
C           -2.26491985334301        2.31125717186129       -0.01089760567632
C           -1.85352469983995       -0.22198059944438        0.10349534786329
O           -3.03649050964716       -0.48597686425011        0.06136848428463
N           -0.94298720220877       -1.33189936844104        0.02979586339531
C           -1.40216030406680       -2.71291515351926       -0.01572702755397
H            3.70848371144748        1.21761666179079        0.98936401831110
H            4.03618129949458        0.95145461938623       -0.73662649582561
H            2.71827148405148        2.04926134948509       -0.23218419627635
H            3.58816578963178       -1.69917779558927       -0.02698291529043
H           -2.77941963486312        3.43454513231557        0.53214735635796
H           -1.58960970107535        2.93163871971516       -0.57199849303308
H           -3.14864965236414        1.84433743011695       -0.43626099779434
H           -1.07842936358472       -3.26152306704957        0.87643398201397
H           -1.00699127672349       -3.23125553636535       -0.89756251571692
H           -2.48739840457223       -2.72377802571428       -0.06103651841106
H            1.38941083759547       -2.99387918490809        0.00188369585685
25