25
 energy: -42.132163680610 gnorm: 0.002302316797 xtb: 6.6.1 (8d0f1dd)
C            3.20129908666171        1.16810056656233        0.01837474193054
N            2.20663449516054        0.13315413909104        0.00099524443405
C            2.42129404763606       -1.20260220637569       -0.00391401593987
N            1.30949514514847       -1.90364028175336       -0.00408324050578
C            0.30911085035367       -0.99603902428996        0.00196734378033
C            0.85445259539044        0.29774417778980        0.00615829334393
C            0.02493788920422        1.47808520801069       -0.00217828179387
O            0.42074306275072        2.62164895656256       -0.01405525411646
N           -1.33033780355485        1.14904200888179        0.00175289819164
C           -2.28573072967271        2.24213807033520       -0.00221335636815
C           -1.89217761303022       -0.12280728737761        0.00369035091661
O           -3.08497519135854       -0.27917391268860        0.00546280023871
N           -1.01838657213524       -1.21611537518553        0.00227730603217
C           -1.55802072673248       -2.55396513820050       -0.00077868452993
H            3.70955700718144        1.18637504173768        0.98472153587176
H            3.94219242926582        0.98774648724185       -0.76064773672295
H            2.71961651423105        2.13148790007866       -0.14581041089586
H            3.39828023889600       -1.64536817340058       -0.00837306729688
H           -1.73354867693344        3.18016886782849        0.00504973667810
H           -2.91858739258088        2.18231993914128       -0.88947118589759
H           -2.93254308696699        2.17540655487941        0.87426335435915
H           -1.20676916080116       -3.09662721183291        0.87744937524055
H           -1.22326882300517       -3.08651070357310       -0.89173980283520
H           -2.64482615268791       -2.48647187553366        0.00910807336925
H            2.47199008167943       -4.52585818632931       -0.03683439958427
