25
 energy: 0.000000000000 xtb: 6.6.1 (8d0f1dd)
C            3.23720163006194        1.16630919979326        0.08434469647475
N            2.29877817382611        0.07527477071623        0.03981603040599
C            2.58028210190900       -1.21425402444508        0.03006176031096
N            1.43813958087363       -1.93419271955128        0.00098261760884
C            0.39035688448383       -1.05887472636071       -0.00790371836672
C            0.93510056364412        0.21347819449412        0.01709077491437
C            0.09450143893243        1.40504303904423       -0.00410947031874
O            0.49712751527797        2.54126714362870       -0.00342325688240
N           -1.25076640035757        1.06271879480407       -0.03085478223738
C           -2.21907211982101        2.15522099834493       -0.05001256985998
C           -1.81739487048744       -0.20012725993278       -0.04692818574614
O           -2.99983886758376       -0.37846417018721       -0.07008878229737
N           -0.92618586207120       -1.30210215599479       -0.03682761578324
C           -1.46982264913417       -2.64643102187190       -0.06029820460571
H            3.71247264356769        1.21471455160235        1.06488849150277
H            4.00791497605742        1.03430808813993       -0.67357694370751
H            2.69910007168542        2.09770118228144       -0.09130154882931
H            3.56654120610678       -1.63682992603973        0.04233140067262
H           -1.67107961066214        3.09322851271934       -0.02552706933167
H           -2.82428953597071        2.09428624779827       -0.95318082946668
H           -2.87644029173232        2.07745725625962        0.81450067533302
H           -1.17061996399332       -3.19584890659852        0.83242232437030
H           -1.14560257411436       -3.17511610292205       -0.95688275822323
H           -2.55549792440841       -2.55659984320617       -0.07459039797972
H            1.38130855184625       -2.94313852034425       -0.01389874181052
25
 energy: -5.374767718488 xtb: 6.6.1 (8d0f1dd)
C            3.24508096081114        1.18074549878741        0.08674985098399
N            2.31007162959990        0.09760025466507        0.03787838295500
C            2.60296743138557       -1.23012292749475        0.03024937578850
N            1.43159007255866       -1.93933835112223        0.00103602876923
C            0.39862886863710       -1.05729608798040       -0.00819178711038
C            0.93192670221205        0.22245357199801        0.01537168907578
C            0.10326314628635        1.39568220284566       -0.00519677772203
O            0.49923776098973        2.56182830068274       -0.00453720270754
N           -1.25829840000194        1.04931639190528       -0.03112613985223
C           -2.21914238450006        2.14483016938085       -0.04987312731872
C           -1.82105452083515       -0.20223959429300       -0.04737087593489
O           -3.01763340739678       -0.38458748768410       -0.07053916530853
N           -0.93279973554257       -1.30337005159375       -0.03709408578428
C           -1.47955252747599       -2.64389243649576       -0.06042412798550
H            3.72433348964217        1.22701252629566        1.06834116056163
H            4.01294810567937        1.04738292831858       -0.67676047707969
H            2.69773349165771        2.10521581138762       -0.08794750024332
H            3.58188365766656       -1.65491942181289        0.04301986785296
H           -1.65832251873526        3.07652747928782       -0.02532331677306
H           -2.82438984559719        2.09084877952047       -0.95432165773975
H           -2.87662094443346        2.07411045664912        0.81599260859006
H           -1.18337020392417       -3.19894147648330        0.83162446669445
H           -1.15822027837790       -3.17841533870047       -0.95642001683727
H           -2.56438658041293       -2.54838479219920       -0.07480705173943
H            1.36634069804332       -2.94301780369240       -0.01329622498772
25
 energy: -6.233437269457 xtb: 6.6.1 (8d0f1dd)
C            3.25886485356176        1.20314045653208        0.09079942439547
N            2.32834131612047        0.11787758681430        0.03423214843803
C            2.62833909180895       -1.24318029471350        0.03079538345248
N            1.42832862696669       -1.93701559882424        0.00199138317431
C            0.40991230336063       -1.05557087224618       -0.00918517502092
C            0.93492710572699        0.23129788995887        0.01175092054056
C            0.11486742315945        1.37898239591219       -0.00883341368426
O            0.48617400488603        2.56742534812660       -0.00905843514587
N           -1.26555278900277        1.02711323179686       -0.03245342853778
C           -2.21578714969064        2.12446505513613       -0.04964769666498
C           -1.82071298024422       -0.21149052472315       -0.04846791289457
O           -3.02417218245596       -0.40037165687319       -0.07115079036574
N           -0.93642921268069       -1.30693166057165       -0.03781712695758
C           -1.50428737393003       -2.63789944157912       -0.06076498207428
H            3.75321003116181        1.25751303707410        1.06818915632803
H            4.02424783340039        1.09012160502757       -0.68185239493620
H            2.69868655451916        2.12268696127124       -0.07346599794454
H            3.60061935025584       -1.67726060605095        0.04521860810762
H           -1.62738411823734        3.03994643583671       -0.02489614341551
H           -2.82177499827304        2.08055591849640       -0.95506883373823
H           -2.87303630073717        2.06367194139310        0.81811044082449
H           -1.22658313676182       -3.20588927688767        0.83063321883128
H           -1.20085780369113       -3.18615139937151       -0.95630274593398
H           -2.58790872048129       -2.51621596122560       -0.07535069635664
H            1.35018293919409       -2.93779196813735       -0.01037101427391
25
 energy: 0.870961247207 xtb: 6.6.1 (8d0f1dd)
C            3.28561803221128        1.25712668631932        0.09937644853302
N            2.37112986583485        0.15170546442052        0.02710794080682
C            2.68057682002829       -1.26064987571316        0.03215414733475
N            1.43925893776812       -1.93114031027264        0.00558779372851
C            0.43754892215574       -1.05970574452160       -0.01168845134889
C            0.95193243073219        0.24066765950043        0.00357387522196
C            0.13764903243375        1.34571067615140       -0.01973083847370
O            0.45320844968110        2.56808980955278       -0.02368774505718
N           -1.27191615264667        0.97755135571064       -0.03725619778402
C           -2.20212637497068        2.07607235412914       -0.04946087916950
C           -1.81204809766306       -0.24124930953211       -0.05175791436790
O           -3.02373906823843       -0.44342744757054       -0.07286876976342
N           -0.93250025156160       -1.32390481010324       -0.03992596406844
C           -1.57458775295982       -2.62499144778884       -0.06166663723339
H            3.82204194235662        1.32971391438086        1.06097574140281
H            4.04337159486234        1.21254991267647       -0.69754434756093
H            2.69438234768522        2.16790213782441       -0.02616651127209
H            3.64187363515240       -1.71531653029966        0.05188867479377
H           -1.55484556691825        2.95516223616265       -0.02442761780037
H           -2.81041121082601        2.05031938422170       -0.95530900107135
H           -2.85677574314464        2.03213401264013        0.82265064162570
H           -1.35960969099228       -3.22606732124965        0.83036772781069
H           -1.33180175511228       -3.20915046784593       -0.95802495631527
H           -2.65352878612320       -2.41184801168303       -0.07678428191892
H            1.33751310819121       -2.92822572493798       -0.00034898190539
25
 energy: 11.925697732830 xtb: 6.6.1 (8d0f1dd)
C            3.30005197609621        1.30771338004129        0.10634704011873
N            2.40763593846637        0.17544285539673        0.02288851593078
C            2.72718086974199       -1.26728015006572        0.03260275655155
N            1.46648551493837       -1.93201133246366        0.00981035575372
C            0.46423623570137       -1.07299015010492       -0.01386679434847
C            0.97271237033421        0.23763187805588       -0.00291070599381
C            0.15575218283830        1.32201349171806       -0.03163930381534
O            0.43773695181046        2.56208996023595       -0.04014179005228
N           -1.26702423961525        0.93881830693524       -0.04365127516650
C           -2.18508683056418        2.03660587973003       -0.04980524242362
C           -1.79842035102702       -0.27024570626862       -0.05562776021404
O           -3.01607954358537       -0.47623337843885       -0.07485488999648
N           -0.92192146395145       -1.34887909583088       -0.04223884667377
C           -1.64678546644089       -2.61787238953681       -0.06235231753005
H            3.87779906649075        1.38727758257943        1.04962765167939
H            4.04402833335378        1.33489872950584       -0.71687173211377
H            2.67675055693066        2.20881783702613        0.02865992329301
H            3.68264919149462       -1.73309835039871        0.05904452208702
H           -1.50004344478686        2.89004799769814       -0.02511240095950
H           -2.79559639731841        2.02056229397493       -0.95457118995569
H           -2.83453426772667        1.99993278602709        0.82681796953753
H           -1.50171907717426       -3.24772041488017        0.83146383442805
H           -1.47140106782142       -3.23466010232315       -0.95999936558747
H           -2.71660743754455       -2.30501040789638       -0.07813319881193
H            1.35441506729543       -2.92682289854481        0.01154814041023
25
 energy: 23.590713846929 xtb: 6.6.1 (8d0f1dd)
C            3.30369863228648        1.35689142894635        0.11254900827460
N            2.43823771205411        0.19420260187686        0.02030804590175
C            2.77064796354096       -1.26622936501083        0.03228325889383
N            1.50370662843403       -1.93690706287852        0.01439914102639
C            0.48876845400287       -1.09357148046404       -0.01597524931897
C            0.99370031270577        0.22593324717746       -0.00874634648376
C            0.17441261118409        1.30196065640876       -0.04500452368656
O            0.44045163708342        2.54870266959973       -0.05800045347228
N           -1.25227624358971        0.90825414735945       -0.05179487164669
C           -2.16400791307588        2.00483480910320       -0.05042035606299
C           -1.78071677683382       -0.29512852687618       -0.06018806318652
O           -3.00444797635033       -0.48888195775527       -0.07719224849915
N           -0.91152050561713       -1.38099106706174       -0.04481523660057
C           -1.72094394830331       -2.61823120518351       -0.06283011463812
H            3.92341168153553        1.43390564551204        1.03458683923138
H            4.02585523786306        1.45673214864625       -0.73870282759898
H            2.64760759551097        2.24593462683432        0.09049445327097
H            3.72475071345856       -1.73466988018898        0.06715717625451
H           -1.45946682954086        2.84238621139691       -0.02670447806022
H           -2.77759081517044        1.99259503986377       -0.95266905160191
H           -2.80657159100247        1.96812923096385        0.83092719623597
H           -1.64838459140268       -3.26987635058393        0.83234842146546
H           -1.61550311432743       -3.26171092342536       -0.96066826896203
H           -2.77550359469932       -2.21420171434422       -0.07947148119770
H            1.39389938818970       -2.93103432774429        0.02516392660886
25
 energy: 35.326722697933 xtb: 6.6.1 (8d0f1dd)
C            3.29842744396451        1.40536665277612        0.11839724953259
N            2.46385275341121        0.21026021384504        0.01865038561853
C            2.81207492733500       -1.25812966003407        0.03149906055353
N            1.54786669168476       -1.94309783056092        0.01905792735838
C            0.51124853267822       -1.12002909737373       -0.01813603804361
C            1.01399241994644        0.20807299288875       -0.01456598358973
C            0.19665206720983        1.28286445835304       -0.05972626696994
O            0.45865560792222        2.52968328703881       -0.07683399973223
N           -1.22751541679397        0.88353705116715       -0.06156147731780
C           -2.13860859643580        1.97755571741592       -0.05098931857240
C           -1.75840072083055       -0.31505124075655       -0.06541854420650
O           -2.98917080349245       -0.47964878044802       -0.07992286231429
N           -0.90409525004513       -1.41843606701909       -0.04762260612710
C           -1.79944665054194       -2.62499923786250       -0.06324891212377
H            3.96060857388182        1.47375627699914        1.01621273546252
H            3.99119510001964        1.57631759687959       -0.76082109740940
H            2.61073880828351        2.27941810292913        0.15659092271547
H            3.76913477968112       -1.72105644493116        0.07660431548010
H           -1.42984798917487        2.80864272611983       -0.02859046451537
H           -2.75663470677878        1.96392641490263       -0.94941195872183
H           -2.77325962004216        1.93384706787311        0.83525753931864
H           -1.79972894425407       -3.29176611622133        0.83225332870581
H           -1.76479943360041       -3.28911243183491       -0.95997824458958
H           -2.83378530888269       -2.14466468003026       -0.08077785428793
H            1.45306040279068       -2.93822836994366        0.04011605992321
25
 energy: 47.217364577514 xtb: 6.6.1 (8d0f1dd)
C            3.28628746466732        1.45192235458503        0.12388589346423
N            2.48495861617589        0.22471770230361        0.01767573557379
C            2.85160584912335       -1.24295589044225        0.03062117692815
N            1.59724233547244       -1.94868320691628        0.02343935919375
C            0.53241297020503       -1.15052302990854       -0.02029184251191
C            1.03341307182579        0.18631386557757       -0.02045937747519
C            0.22235312847362        1.26525590081853       -0.07498312477937
O            0.48825340399061        2.50830669859499       -0.09560934159452
N           -1.19406739749886        0.86390248258983       -0.07243776584560
C           -2.10985011515210        1.95332042374294       -0.05114584368784
C           -1.73137409118519       -0.33091997946363       -0.07107218435818
O           -2.96926200836515       -0.45473813579147       -0.08295864920394
N           -0.89981856064517       -1.45910685407143       -0.05054210206915
C           -1.88351165735461       -2.63634194125864       -0.06383068564478
H            3.98854597533519        1.50897147100536        0.99554068763934
H            3.94415839339388        1.68689849145122       -0.78000845503370
H            2.57151605273410        2.30831510660458        0.22092090494904
H            3.81572104953731       -1.69202633174894        0.08731592029509
H           -1.40992436555003        2.78718777875010       -0.03004716453154
H           -2.73356224089792        1.93321188351566       -0.94466363975508
H           -2.73591634300613        1.89556287211665        0.83999728541180
H           -1.95431867583610       -3.31275737076578        0.83041022277848
H           -1.91836002935304       -3.31548434428689       -0.95813935929438
H           -2.89442347538671       -2.09509426183053       -0.08204595746995
H            1.53013531723260       -2.94622708299958        0.05546220316874
25
 energy: 59.783308871063 xtb: 6.6.1 (8d0f1dd)
C            3.27032289990065        1.49457173291081        0.12877802993688
N            2.50188224030248        0.23877214708211        0.01733158046913
C            2.88886692874309       -1.22074428995147        0.03013930866502
N            1.64985857931681       -1.95176975380793        0.02731385700711
C            0.55297686817197       -1.18227733919004       -0.02225428970329
C            1.05154624530922        0.16373657436382       -0.02619455372834
C            0.24943538890016        1.25021326855204       -0.08957895459085
O            0.52342517441181        2.48798547140902       -0.11299982626654
N           -1.15536332727718        0.84848835129959       -0.08361153674595
C           -2.07926348781254        1.93209667388077       -0.05056391005933
C           -1.70087530727267       -0.34466054459746       -0.07675757160766
O           -2.94443461675488       -0.42409237913127       -0.08610109141485
N           -0.89800432378296       -1.50087583416042       -0.05344251522518
C           -1.97275645856110       -2.65123841738430       -0.06482922349599
H            4.00644515553244        1.54056976331433        0.97428708607096
H            3.89090543904108        1.78027452464609       -0.79356678024781
H            2.53620827336064        2.33189152534757        0.27658765463181
H            3.86347680261424       -1.64800561023693        0.09892535235224
H           -1.39757754333464        2.77651775809556       -0.03045345775492
H           -2.70944292032843        1.90199676412355       -0.93851156634817
H           -2.69642144114667        1.85513078320450        0.84526877097504
H           -2.10910150780961       -3.33325455188386        0.82614280881693
H           -2.07326749540139       -3.34041988856573       -0.95537856937117
H           -2.95836766587096       -2.06352275476256       -0.08343601815170
H            1.62174076768454       -2.95235537238567        0.06993931193396
25
 energy: 65.543563649808 xtb: 6.6.1 (8d0f1dd)
C            3.23724381652608        1.53465365846264        0.12878852477402
N            2.51068867364285        0.22436950194617        0.02042043542073
C            2.89638947921911       -1.15920788473072        0.02625767304387
N            1.73791552380036       -1.95172681381165        0.03128884320210
C            0.55892441744006       -1.22831330433872       -0.02448390629124
C            1.08984422678823        0.11235156752344       -0.03264890749395
C            0.25494351127404        1.26239739040922       -0.10830957998263
O            0.57862887416349        2.44083626682117       -0.13312546155366
N           -1.07904233645333        0.85486689551666       -0.09946061306811
C           -2.03858848503294        1.92576714727946       -0.05027387146954
C           -1.66093689721743       -0.36458120531165       -0.08249923872302
O           -2.90263309896422       -0.33227213512391       -0.08903559491120
N           -0.89598516841707       -1.57892827154603       -0.05636924828269
C           -2.07725545156327       -2.69942781651192       -0.06579385434647
H            4.00887824618761        1.55385135724057        0.92630609729436
H            3.78882696534396        1.88378691425164       -0.79333852268633
H            2.50361793597837        2.33766444604763        0.35202218784499
H            3.89587006468034       -1.56802729271493        0.11409190854725
H           -1.40835205770610        2.79633760588358       -0.03279828948612
H           -2.67731872155876        1.87157920030484       -0.92883734134535
H           -2.64515785687706        1.81256318807036        0.84898852023992
H           -2.28882479797670       -3.34040678077728        0.81255408718408
H           -2.25353810785901       -3.35405390839375       -0.94171588434377
H           -2.99549279868797       -2.07917094578959       -0.08523044500431
H            1.77356871120541       -2.96588017853506        0.09023637758429
25
 energy: 89.793003680582 xtb: 6.6.1 (8d0f1dd)
C            3.22285331638452        1.58377576015656        0.13591489249472
N            2.52730921010930        0.24802273861386        0.01726503355383
C            2.93171424042343       -1.12347812636126        0.02736327984087
N            1.79388031527557       -1.94205541814786        0.03754211719874
C            0.58238953913978       -1.25539229975972       -0.02598318584003
C            1.10443369324320        0.09777502401940       -0.04375174393706
C            0.28044377680250        1.23748662152000       -0.12299136093158
O            0.59522833931479        2.42357384886947       -0.15771723903187
N           -1.04319642235717        0.82411200066500       -0.11061823650453
C           -1.99299165262826        1.90762065446200       -0.05062133924923
C           -1.62708949860661       -0.39579092038803       -0.08934641107535
O           -2.86660360683158       -0.32828983746779       -0.09227760556069
N           -0.89307159459930       -1.63363226175533       -0.06010191270115
C           -2.17846638233343       -2.73040321704537       -0.06699642380161
H            4.04608803873601        1.58343695051517        0.89163689695144
H            3.71065299567334        2.00061342753146       -0.81210125526414
H            2.47335268780000        2.36143303996894        0.43581102232018
H            3.93591778772497       -1.51516440340706        0.12844966344193
H           -1.35908883181836        2.78006400664880       -0.03509198562370
H           -2.64091357529524        1.86179812993986       -0.92251551934383
H           -2.59084359262967        1.79535404785408        0.85358004501956
H           -2.47613387232299       -3.37697066579375        0.80644430810805
H           -2.43757227746813       -3.39897509690035       -0.93478547021249
H           -3.05819990601793       -2.06034747414464       -0.09005199949246
H            1.87212194021733       -2.95553792742124        0.10797832578768
25
 energy: 114.815408990713 xtb: 6.6.1 (8d0f1dd)
C            3.23522499458917        1.62700797586705        0.13883782562958
N            2.55326160880265        0.26816704387386        0.00830304303338
C            2.94465137921401       -1.05822870141816        0.03567814646151
N            1.85796231114581       -1.90284169221276        0.04643231789743
C            0.61172490836216       -1.25426808876728       -0.02602522050180
C            1.13169348065951        0.10575577696208       -0.06457011576152
C            0.29130464954647        1.21763712908994       -0.12806786983640
O            0.57820040874654        2.41319003089329       -0.18172526922818
N           -1.01507179900139        0.78325509198273       -0.11167168879224
C           -1.95338631288937        1.88977640927223       -0.05103729903434
C           -1.59219264822143       -0.45577286833495       -0.09277550638894
O           -2.80314346348177       -0.37869257934397       -0.09124484397377
N           -0.87253468437652       -1.69770432258242       -0.06506860209283
C           -2.29324399980144       -2.78758282335026       -0.06903456677503
H            4.09649974012645        1.61524015553585        0.83228898102329
H            3.62924450220634        2.10608667286063       -0.79572938220063
H            2.50358144236120        2.35961629254947        0.51591790502630
H            3.94253917417666       -1.46738960354920        0.13746650993095
H           -1.30415439279619        2.75712327773723       -0.03843349278732
H           -2.60634449765431        1.86589538077221       -0.91803549262808
H           -2.54729891351909        1.79868877560479        0.85320737333409
H           -2.69035339629745       -3.41862310977945        0.78720266887372
H           -2.64734161079336       -3.45156343073705       -0.91622250142943
H           -3.09261766483866       -2.03729236037551       -0.09847911406967
H            1.95400945167003       -2.90845183037812        0.11982009043720
25
 energy: 133.589782485550 xtb: 6.6.1 (8d0f1dd)
C            3.25293699024738        1.67160984355694        0.14033407673274
N            2.58501067896329        0.29565221811488        0.00492892711709
C            2.98427650547321       -1.01746560970863        0.04605470845023
N            1.91613855851319       -1.87945339932731        0.05335801358645
C            0.64945657698968       -1.25340293591683       -0.03060595180882
C            1.16391911747807        0.11308512324936       -0.07160791046113
C            0.31080323452050        1.22165804186801       -0.13522264607586
O            0.59172836516887        2.41099416576316       -0.19156351791864
N           -0.98520937413456        0.76819115489677       -0.11106752995999
C           -1.93462137737761        1.86679260930061       -0.05298398406609
C           -1.55401809632820       -0.48575669283775       -0.09384571483177
O           -2.77311141002871       -0.37213047175642       -0.08962298863386
N           -0.84103292316839       -1.74058444315977       -0.07256548110237
C           -2.42303585754275       -2.84400481687903       -0.07008490836145
H            4.15063903055883        1.64400726630466        0.79749167180123
H            3.59339717531763        2.19666421221114       -0.80303502479350
H            2.51231659279331        2.38141280497861        0.58203043282188
H            3.98256518009055       -1.42806923144453        0.14078826151700
H           -1.28878628796094        2.72998708089589       -0.04323127928625
H           -2.58408913580866        1.84813675018024       -0.92097692620103
H           -2.52652192910490        1.78288429873460        0.85309206296457
H           -2.88386723867284       -3.47401064961691        0.77637465987177
H           -2.83614756634541       -3.51551615701575       -0.90543922939577
H           -3.16621832415219       -2.04809696361875       -0.10487307714083
H            2.01568618244666       -2.88355559660097        0.12930725132163
25
 energy: 144.678641215153 xtb: 6.6.1 (8d0f1dd)
C            3.27948782851112        1.71356180994724        0.13868463907790
N            2.61840587377316        0.31566477332318        0.00185550526950
C            3.01619978107972       -0.97273942579965        0.05617380283332
N            1.97496340350340       -1.85057658872877        0.05702507070523
C            0.68838460784740       -1.23542078854890       -0.03370607974888
C            1.20395192404325        0.12675688319536       -0.07766673379542
C            0.32024934760687        1.23349519334741       -0.13402353781076
O            0.59760326342737        2.41297522403073       -0.19317205744030
N           -0.95446235386853        0.75825182533424       -0.10595345397523
C           -1.92361953076657        1.84775301538244       -0.05502550175202
C           -1.51143265035046       -0.52222516631323       -0.09199328216346
O           -2.72343025969678       -0.39172028332960       -0.08793593051155
N           -0.78632224613171       -1.77360970750553       -0.07615729011071
C           -2.55740867502404       -2.90211218402390       -0.07150548381586
H            4.19476031690194        1.67745963340955        0.76746387140301
H            3.58042275900049        2.27126891139500       -0.79505692920527
H            2.54060925579536        2.39837896088755        0.61946062213527
H            4.01309649051112       -1.40050177835629        0.13933056423597
H           -1.28834263016313        2.71265314107827       -0.04649744803765
H           -2.57046232575229        1.82678192223239       -0.92428785748812
H           -2.51946704919594        1.76615705795231        0.84801485383818
H           -3.07736985399001       -3.53234689496307        0.76441802849127
H           -3.02598463827973       -3.58011180575116       -0.89632441831246
H           -3.23313223797472       -2.05490522897052       -0.11023058414239
H            2.05551426712872       -2.85585989705279        0.13414352646769
25
 energy: 151.170312631334 xtb: 6.6.1 (8d0f1dd)
C            3.31254967146512        1.75403544841688        0.13466546713440
N            2.65150419054164        0.33813505602723        0.00091563620792
C            3.05329640629404       -0.93652873038725        0.06553965971301
N            2.03054399110718       -1.82491599875437        0.05795275532562
C            0.72608597169616       -1.21307753590784       -0.03451843761483
C            1.24193456757093        0.14674527076127       -0.07928824143709
C            0.33313527017531        1.25209572033952       -0.12847774433890
O            0.60728722892901        2.42504994496840       -0.18602952362775
N           -0.92618864837100        0.75549255555817       -0.09859448769802
C           -1.92099666717337        1.82847127607257       -0.05744780756548
C           -1.46584571875040       -0.55036136329656       -0.08906862099815
O           -2.67586969134270       -0.41340346399195       -0.08694197092732
N           -0.71785231318411       -1.79374372901237       -0.07481182491471
C           -2.69343737558062       -2.95730605347983       -0.07354547779724
H            4.23436362380524        1.71299252382109        0.75182557395220
H            3.59788958324719        2.32988501397663       -0.79056711336288
H            2.56960555414667        2.42298700074827        0.63447398256819
H            4.04945146545363       -1.37888442902622        0.13633295601004
H           -1.30379990432542        2.69904517597214       -0.04893618931316
H           -2.56286230947864        1.79682804160789       -0.92983734664464
H           -2.52323909386584        1.74228424273038        0.84108208067888
H           -3.26710883515653       -3.59641088476286        0.75585534269046
H           -3.21334981912846       -3.64669185065187       -0.89457012888706
H           -3.30609189868668       -2.07039530619712       -0.11400762924509
H            2.08120941854768       -2.83329932335992        0.13503298623887
25