25
 energy: 0.000000000000 xtb: 6.6.1 (8d0f1dd)
C            3.23720163006194        1.16630919979326        0.08434469647475
N            2.29877817382611        0.07527477071623        0.03981603040599
C            2.58028210190900       -1.21425402444508        0.03006176031096
N            1.43813958087363       -1.93419271955128        0.00098261760884
C            0.39035688448383       -1.05887472636071       -0.00790371836672
C            0.93510056364412        0.21347819449412        0.01709077491437
C            0.09450143893243        1.40504303904423       -0.00410947031874
O            0.49712751527797        2.54126714362870       -0.00342325688240
N           -1.25076640035757        1.06271879480407       -0.03085478223738
C           -2.21907211982101        2.15522099834493       -0.05001256985998
C           -1.81739487048744       -0.20012725993278       -0.04692818574614
O           -2.99983886758376       -0.37846417018721       -0.07008878229737
N           -0.92618586207120       -1.30210215599479       -0.03682761578324
C           -1.46982264913417       -2.64643102187190       -0.06029820460571
H            3.71247264356769        1.21471455160235        1.06488849150277
H            4.00791497605742        1.03430808813993       -0.67357694370751
H            2.69910007168542        2.09770118228144       -0.09130154882931
H            3.56654120610678       -1.63682992603973        0.04233140067262
H           -1.67107961066214        3.09322851271934       -0.02552706933167
H           -2.82428953597071        2.09428624779827       -0.95318082946668
H           -2.87644029173232        2.07745725625962        0.81450067533302
H           -1.17061996399332       -3.19584890659852        0.83242232437030
H           -1.14560257411436       -3.17511610292205       -0.95688275822323
H           -2.55549792440841       -2.55659984320617       -0.07459039797972
H            1.38130855184625       -2.94313852034425       -0.01389874181052
25
 energy: -5.396928227484 xtb: 6.6.1 (8d0f1dd)
C            3.24407909314597        1.17787859821814        0.08675485624060
N            2.30830471086275        0.09580695078868        0.03773269466592
C            2.59995160241774       -1.23229265594181        0.03007406733032
N            1.42792326712681       -1.94008208614583        0.00083402192637
C            0.39664405151710       -1.05621259854016       -0.00826645900885
C            0.93043064464574        0.22261944191410        0.01525460930995
C            0.10187343700416        1.39604462380662       -0.00526064153620
O            0.49842367972556        2.56194357224243       -0.00463998256544
N           -1.26009186719021        1.05053339760464       -0.03111437366811
C           -2.22036574575767        2.14661236706790       -0.04985257503554
C           -1.82331306462015       -0.20079622447004       -0.04731830685432
O           -3.01994703363027       -0.38317290188560       -0.07042617364937
N           -0.93401472322867       -1.30113441450164       -0.03705891002410
C           -1.47281376267908       -2.64300918936511       -0.06023045051257
H            3.72241809334142        1.22379008840615        1.06876908953664
H            4.01211948728637        1.04323465442623       -0.67630787636028
H            2.69726915414464        2.10251667776878       -0.08868529611900
H            3.57822653466795       -1.65846739733358        0.04272943148359
H           -1.65885443692324        3.07791082373931       -0.02535264452269
H           -2.82574669314614        2.09312020023008       -0.95425925945467
H           -2.87792942339954        2.07647607941661        0.81601725465592
H           -1.17024922437693       -3.19469065086966        0.83186803206701
H           -1.14519275477480       -3.17416522155882       -0.95604227716730
H           -2.55805874176061       -2.55164280410816       -0.07460367148710
H            1.36112838353733       -2.94379272873725       -0.01358126310350
25
 energy: -6.565277106554 xtb: 6.6.1 (8d0f1dd)
C            3.25294918364380        1.18717799250464        0.08981348308768
N            2.31748733685114        0.10835372687292        0.03396287339231
C            2.61171830238398       -1.24715391076926        0.03016399594347
N            1.41519859227151       -1.93845671885551        0.00113868031194
C            0.40062603665453       -1.05112935097954       -0.00919422792274
C            0.92821768734647        0.23142939875752        0.01202819925292
C            0.10820811174651        1.38370803521666       -0.00813494926202
O            0.48496743872807        2.56640007389104       -0.00835711008395
N           -1.27078292427937        1.03726663805824       -0.03202539371320
C           -2.22071293448685        2.13699888456172       -0.04960289019943
C           -1.82700786940499       -0.20344311628648       -0.04792991788489
O           -3.02834610908470       -0.39218797922869       -0.07053322877259
N           -0.94016559964373       -1.29788770898340       -0.03746770230220
C           -1.47529095372357       -2.63771714810306       -0.06001886713213
H            3.74032780660899        1.23766312104982        1.06975260072724
H            4.01988480722536        1.06405872396974       -0.67860936118390
H            2.69910942228199        2.10915697516827       -0.07959635229949
H            3.58261810858010       -1.68278046222214        0.04365645627663
H           -1.63750865113994        3.05571374879712       -0.02512153953352
H           -2.82725999581089        2.09245912550899       -0.95442332383905
H           -2.87854433860809        2.07595959564913        0.81748433898172
H           -1.17191693849780       -3.19185113937616        0.83152355838840
H           -1.14669996471794       -3.17197020801949       -0.95489855881276
H           -2.56046902992727       -2.54291909473983       -0.07455436865334
H            1.33560714293887       -2.93982060027025       -0.01202249861981
25
 energy: -6.479142968432 xtb: 6.6.1 (8d0f1dd)
C            3.25957259083114        1.19294594961587        0.09261033639092
N            2.32475543148650        0.11086377871445        0.03015364991449
C            2.61422301410193       -1.25573591368202        0.02987287204989
N            1.40801866124303       -1.93549914041234        0.00196027406679
C            0.40197639388584       -1.04756955948520       -0.01052940839559
C            0.93042654652575        0.23597682771318        0.00834298305093
C            0.10975595892756        1.37846877105741       -0.01293323896796
O            0.46710315631217        2.56690620085166       -0.01509419202038
N           -1.27800547914315        1.02870909663755       -0.03405370341156
C           -2.21978641252451        2.13103538123814       -0.04948819946943
C           -1.82965100889248       -0.20862777334527       -0.04890007642975
O           -3.03065770187130       -0.40398374644236       -0.07045578896469
N           -0.94111612689555       -1.29637588058016       -0.03808555155316
C           -1.47631577752525       -2.63462288780915       -0.05951530587246
H            3.75848945211951        1.24528310204273        1.06786867121606
H            4.02475193144420        1.09044996355420       -0.68196536242885
H            2.70108102222430        2.11563424528493       -0.06318446050140
H            3.57984306703569       -1.70312714578754        0.04485763702698
H           -1.61735359462491        3.03755241304615       -0.02534397691534
H           -2.82815978393155        2.09357963894669       -0.95351527710270
H           -2.87657610103236        2.07683469540233        0.81899232025612
H           -1.17543462970518       -3.18906697918032        0.83268024516166
H           -1.14989295960071       -3.17061252049660       -0.95417215606397
H           -2.56141831452861       -2.53365668633058       -0.07426496934979
H            1.31658533207415       -2.93633322838173       -0.00880342553952
25
 energy: -5.024445822486 xtb: 6.6.1 (8d0f1dd)
C            3.27309524571514        1.20664551953718        0.10171902599142
N            2.34322772765915        0.11214840727684        0.01917925006157
C            2.61644250131305       -1.27272942439448        0.02747694559344
N            1.39545149764192       -1.92866986680132        0.00478140487003
C            0.40442665232623       -1.03926726905587       -0.01522517238989
C            0.93970333274335        0.24484285057279       -0.00370628302911
C            0.11118758369861        1.37040911558344       -0.03115954016086
O            0.42247393124773        2.56830878301353       -0.04106459179882
N           -1.29232485694465        1.00894842949697       -0.04270094246106
C           -2.21503900775807        2.11878016983889       -0.04963130451256
C           -1.83596915331972       -0.22411173169244       -0.05277439207793
O           -3.03459049592238       -0.43559849940702       -0.06983006541000
N           -0.93940538619361       -1.29516258573170       -0.04048844612227
C           -1.47809565535880       -2.62971276021667       -0.05714974173442
H            3.80915133294633        1.24811156336996        1.06085213569614
H            4.02626669678185        1.17091775319900       -0.69726448558472
H            2.69890369521451        2.13190173363501       -0.00003224857970
H            3.56808659835206       -1.75254519448392        0.04879836655399
H           -1.56805710372868        2.99613720389928       -0.02769504854570
H           -2.83065896184856        2.09975051204153       -0.94944454452749
H           -2.86593645026399        2.08134950244942        0.82437604373178
H           -1.18691314399184       -3.18301082954429        0.83839913837621
H           -1.16018413893865       -3.17088215732940       -0.95122208122020
H           -2.56264988868538       -2.50934657990574       -0.07268129609759
H            1.27362211525056       -2.92818604317896        0.00352176952506
25
 energy: 4.294103583500 xtb: 6.6.1 (8d0f1dd)
C            3.29786093158238        1.23687500795057        0.12647259903619
N            2.38373047182490        0.11192711788946       -0.00788760135373
C            2.61969152167060       -1.30629974645513        0.01922092765287
N            1.37310752741531       -1.91489576167149        0.01178204540589
C            0.40957351045549       -1.02171461130829       -0.02805650031287
C            0.96263605510669        0.26207864221485       -0.03554431945733
C            0.11542536890431        1.35581196582327       -0.08185863823641
O            0.33172888770159        2.57004125469475       -0.11376168324578
N           -1.31929695090061        0.96768900087274       -0.06805407776136
C           -2.20204202084031        2.09519721447416       -0.05064296836900
C           -1.84870293541917       -0.25841489483404       -0.06383232453970
O           -3.04147620084370       -0.50351331807922       -0.06774436392883
N           -0.93254527808254       -1.29507666552879       -0.04746757344426
C           -1.48132402936674       -2.62219240932455       -0.04989636124190
H            3.93117506520852        1.22794817584408        1.04176433646122
H            4.00856418099120        1.36984405852619       -0.74132435483420
H            2.68187554161974        2.16671171849176        0.17633151189534
H            3.53915662758903       -1.85882374327895        0.05914193957470
H           -1.46585342846117        2.91194813718820       -0.03624247058021
H           -2.83798034463001        2.11706904598397       -0.93750480915774
H           -2.83406671759253        2.09286405521872        0.83924080918072
H           -1.21438592385668       -3.17078472200132        0.85499401798859
H           -1.18460458221802       -3.17776317038556       -0.94138315954416
H           -2.56425006012413       -2.45678235552164       -0.06754261690987
H            1.18421745020194       -2.91071539461173        0.03682953186908
25
 energy: 12.451193300690 xtb: 6.6.1 (8d0f1dd)
C            3.30755302941765        1.25426215212024        0.14718286953579
N            2.40696645087178        0.10821006513335       -0.02668538837917
C            2.61904697901971       -1.32237332209287        0.01283690275256
N            1.36543455381373       -1.90779187552474        0.01706773547404
C            0.41191682521501       -1.01190589825273       -0.03970871612841
C            0.97889228842486        0.26972265762131       -0.06217364853950
C            0.12224203021371        1.35176455351161       -0.12646324546810
O            0.29407477524602        2.56608250509203       -0.17790226514816
N           -1.33075708413745        0.94952818113927       -0.09101078448336
C           -2.19537269554723        2.08549470761193       -0.04951440906942
C           -1.85456866349770       -0.27616605231952       -0.07362205509190
O           -3.04262978114213       -0.53904989067460       -0.06503134032801
N           -0.92531792768062       -1.29662784165158       -0.05484018471290
C           -1.48136563544636       -2.62101454379554       -0.04406560825644
H            4.01179173336456        1.19495113302597        1.02369269547195
H            3.97580894630200        1.50117930267971       -0.76446122830650
H            2.66951349276834        2.18168384863098        0.31120016107863
H            3.51709082815307       -1.91803399533327        0.06706784368978
H           -1.42599475644377        2.87321140339170       -0.04208661794890
H           -2.84779609920077        2.13027656801831       -0.92374080312157
H           -2.80756746863021        2.09626371440713        0.85414724460035
H           -1.23116925134277       -3.16377359144006        0.86836977488443
H           -1.19990078524683       -3.18829261127769       -0.93234406950918
H           -2.56276941841245       -2.42906404443275       -0.06302538106202
H            1.13709230185390       -2.89950852341613        0.06214441421325
25
 energy: 16.886455533325 xtb: 6.6.1 (8d0f1dd)
C            3.30063735571196        1.26658663570594        0.17355058127434
N            2.42485179766917        0.09087709045568       -0.04977850015617
C            2.60718198355095       -1.31904307847651        0.00642564508047
N            1.38062698240594       -1.90419928783722        0.02621073198799
C            0.41013091658079       -1.00467668774431       -0.05652715474799
C            1.00334286529146        0.26764874546521       -0.09973785977033
C            0.13525360708565        1.36628557665994       -0.18877368774211
O            0.30113428734626        2.54934380549977       -0.26785614296084
N           -1.32599962275557        0.95166900835882       -0.12443103961262
C           -2.18982163797392        2.09154582922827       -0.04603098901167
C           -1.85670533732315       -0.28734775320132       -0.08707619141903
O           -3.03527650704870       -0.55854759187488       -0.06052979655949
N           -0.90678928374634       -1.30494007096890       -0.06660807953930
C           -1.47544799678902       -2.63185120302539       -0.03667291975598
H            4.09236384380656        1.11389775804754        0.98574649562562
H            3.88899967322900        1.64007963210194       -0.77817787110328
H            2.65125925664350        2.17513996571675        0.48729416109179
H            3.48054313086043       -1.95395926859704        0.07891491103768
H           -1.44515871819251        2.87146684410201       -0.05001793748839
H           -2.86062323134505        2.15061814924441       -0.90067380302532
H           -2.76863935826721        2.09632102486455        0.87565919057264
H           -1.24815922051680       -3.16289977915818        0.88656993220514
H           -1.21522927738392       -3.21264868528090       -0.92005943983483
H           -2.55408584924545       -2.41530513315690       -0.05721046130456
H            1.11782500834194       -2.88703292395722        0.09682412130352
25
 energy: 15.012114732386 xtb: 6.6.1 (8d0f1dd)
C            3.28002953208886        1.26658241815141        0.19993176943956
N            2.42525574086802        0.08052375524369       -0.06801844091720
C            2.59679124241734       -1.29025328205911        0.00549597915097
N            1.40429122850493       -1.90372060817686        0.03358194863968
C            0.40543273479734       -1.00214113172421       -0.07302893095647
C            1.01610223445679        0.26029158010616       -0.13785442746370
C            0.14268947852277        1.38320726550181       -0.24451388660574
O            0.33050840807350        2.55312875770422       -0.37617648344224
N           -1.30398675339592        0.95732423370280       -0.15322642732389
C           -2.17974245999783        2.10258064178262       -0.03489705309725
C           -1.85448851341194       -0.28793106935184       -0.09924393169677
O           -3.03014675086382       -0.54670572797257       -0.05242628451455
N           -0.89416259647594       -1.31828960921856       -0.08059558745794
C           -1.47052019108150       -2.64963600087258       -0.03360748643733
H            4.11366597086215        1.03359572570395        0.94542576904796
H            3.78576529799527        1.70164017552111       -0.74802825107180
H            2.64714076369845        2.13166308092098        0.61135836569831
H            3.45635189881831       -1.93288944390574        0.08922784481553
H           -1.47665130391813        2.90132786335138       -0.05241154674711
H           -2.87488119127868        2.17220375764071       -0.86789107014346
H           -2.72347893536406        2.09104609612770        0.90771995406990
H           -1.25334209391093       -3.16808349896271        0.89757477298908
H           -1.22056556395769       -3.24144665947600       -0.91034965404788
H           -2.54554247024104       -2.42983468595463       -0.05512123197936
H            1.13569896072966       -2.87515503161168        0.12410818619894
25
 energy: 13.677832427960 xtb: 6.6.1 (8d0f1dd)
C            3.25853208451227        1.26679339931682        0.23873198565749
N            2.42461760980520        0.08346129638502       -0.09640888430773
C            2.59623205480395       -1.25659434271374        0.01065347602453
N            1.41981815739959       -1.90322017299977        0.04156509528548
C            0.40257970552449       -0.99732792675416       -0.09595062655084
C            1.02137354152280        0.25625737248647       -0.19475338869422
C            0.14712804360268        1.39052784292739       -0.32163135148988
O            0.36460767833181        2.56530203905030       -0.54799217980515
N           -1.27694609742952        0.95578280506209       -0.18850839920718
C           -2.16431687386898        2.10612941888278       -0.01499617045051
C           -1.84955442302794       -0.28462602107963       -0.11583677281724
O           -3.02856862340158       -0.52589020668853       -0.03958509586757
N           -0.88937849024607       -1.33315272364636       -0.10218650837280
C           -1.47012079205218       -2.66585802680356       -0.03193981045027
H            4.13682341173456        0.94296376959927        0.88608544989767
H            3.64952477583689        1.78829767039105       -0.69598829874387
H            2.64587812070430        2.05804066610181        0.78482718938717
H            3.44326942243983       -1.90301801974869        0.10505816498314
H           -1.48670792577314        2.93159848550639       -0.05456813204170
H           -2.89880828509500        2.19215784514407       -0.81565942231020
H           -2.66002497453359        2.07495237861100        0.95783772385490
H           -1.25602038795691       -3.16925010132701        0.90834254352524
H           -1.22406790481439       -3.27611799024840       -0.89687238264743
H           -2.54085248879525       -2.44719429292526       -0.05482884076751
H            1.14719732871204       -2.86098656235726        0.16163853205572
25
 energy: 7.197941670037 xtb: 6.6.1 (8d0f1dd)
C            3.23283857919904        1.25667376380283        0.27274612609087
N            2.40468888158621        0.11258244860348       -0.12678816210031
C            2.61097833335237       -1.21773901846072        0.03814207394972
N            1.42274945136593       -1.90846232899955        0.04153917530547
C            0.40515104607038       -0.99755507170544       -0.12084786757357
C            0.99989275026263        0.25251155833313       -0.26119463097992
C            0.13322480721420        1.38042553361176       -0.39862352217893
O            0.42591487166000        2.56524792031326       -0.69767098582964
N           -1.24306309907058        0.96111133291377       -0.21347926049252
C           -2.14725394935579        2.10596514908899        0.01203281614847
C           -1.83335872290712       -0.26179083741774       -0.13321763007629
O           -3.02609436836356       -0.47364517418317       -0.02667691065859
N           -0.90047644528467       -1.34420005335678       -0.12996012786694
C           -1.47574024966954       -2.67278334435782       -0.03427376370799
H            4.10673876437526        0.89120195859106        0.80016879297490
H            3.50338801173841        1.82619313109313       -0.59607187972977
H            2.66867159089204        1.92952977658008        0.91093349288050
H            3.46538492996304       -1.83500250888157        0.12125908861481
H           -1.49575936223009        2.98163130416334       -0.05246667560456
H           -2.92141254249892        2.19395704632339       -0.75214748912576
H           -2.59856005498894        2.04400026425902        1.00782328667633
H           -1.24282499884359       -3.16469661072938        0.91102730867672
H           -1.21562200143180       -3.30463507660473       -0.88309544086695
H           -2.54380491359701       -2.47541984565880       -0.05655504846104
H            1.17656335849794       -2.85607271514945        0.19443113008224
25
 energy: 11.362427455242 xtb: 6.6.1 (8d0f1dd)
C            3.21724720938182        1.25468848050677        0.31219513742914
N            2.40111534313259        0.13278142166218       -0.16757945792638
C            2.62400100897283       -1.21202931893386        0.06062898628416
N            1.41172009081275       -1.90694826272208        0.04255002450458
C            0.41294274503647       -0.99636266031073       -0.14809371592819
C            0.98846628942897        0.25357346114193       -0.33055799225819
C            0.13115329242649        1.36240192897064       -0.50043116630816
O            0.44289737713733        2.55521267546021       -0.82314940482665
N           -1.23048132074182        0.95798125340002       -0.25176418322609
C           -2.13042772511687        2.10040540339695        0.02460080429223
C           -1.81904206467965       -0.25009732623977       -0.15244004993133
O           -3.01809927636547       -0.45289254615296       -0.01769859924170
N           -0.90714269170957       -1.34727562469152       -0.15740390139493
C           -1.47928788198255       -2.67020874883796       -0.02765911360648
H            4.17722799414322        0.80360888812292        0.69891767326290
H            3.34759028811942        1.99218880874486       -0.56278966772112
H            2.66834335781906        1.83289995659144        1.15331864464849
H            3.47547301908046       -1.82888115425395        0.13659585174918
H           -1.48209270851625        2.99416638528937       -0.06415637099865
H           -2.94611404522536        2.19540151681511       -0.70068473119433
H           -2.53534129657900        2.02557804151065        1.04462996035168
H           -1.24794071550278       -3.14645876795554        0.93128958624443
H           -1.20868257620564       -3.33344710200128       -0.85473053191272
H           -2.54660622375085       -2.47850420674834       -0.05983620721239
H            1.16529517882014       -2.84875390059295        0.24128232106770
25
 energy: 7.441863999534 xtb: 6.6.1 (8d0f1dd)
C            3.17708539171106        1.23090449095330        0.32968871737938
N            2.36434386164041        0.15165973597068       -0.19692642579011
C            2.63123648515105       -1.21780652295289        0.10132711265904
N            1.39387516506962       -1.90391515037393        0.02674783653534
C            0.42535322964343       -1.01862349566957       -0.17813360306564
C            0.95310627737726        0.24344743969657       -0.38760611334413
C            0.11610415829095        1.33617948102524       -0.61475262436124
O            0.45063608632635        2.51975327909191       -0.81598642087244
N           -1.22928509556900        0.98532023072462       -0.28206668239425
C           -2.11115015443574        2.11059328702460        0.03429913282589
C           -1.79246684283825       -0.22265434146268       -0.16220541585017
O           -2.99147762598824       -0.41262557464062       -0.01465130312444
N           -0.92079417417353       -1.33327129264310       -0.19081675357649
C           -1.48088704220170       -2.65117204772194       -0.02408702398005
H            4.16991754320154        0.78858569371276        0.60840975537446
H            3.25048596307143        2.05334693151993       -0.48549205258699
H            2.67943545995117        1.72255664367711        1.24905146854321
H            3.52444493243971       -1.78438527322310        0.13921502847431
H           -1.47736495780820        3.01574112566772       -0.06083838188838
H           -2.96224140690104        2.17616526918165       -0.64965892908516
H           -2.47789990572320        2.00934148370235        1.06528629699994
H           -1.23154390607227       -3.11396796133729        0.94259872228806
H           -1.18600361617407       -3.34079193074484       -0.82796732037019
H           -2.55787131967881       -2.49320404321948       -0.06248238974746
H            1.19517616162580       -2.86214885578684        0.28408126510472
25
 energy: 6.052463888465 xtb: 6.6.1 (8d0f1dd)
C            3.12334219501122        1.22328214238291        0.37631999034050
N            2.34594118664306        0.13968721123247       -0.22806444536371
C            2.61220272155265       -1.19177216622439        0.11874988481573
N            1.41357776943079       -1.90201684507646        0.03732750735850
C            0.41999481919621       -1.03169598012024       -0.22458722960848
C            0.95502398151296        0.22507971814011       -0.45721963216423
C            0.11123089568264        1.34604752219763       -0.73220307189510
O            0.46293023304523        2.49967818650195       -1.00260011099236
N           -1.21320082792689        1.00894062437466       -0.33487627458943
C           -2.08275572884605        2.12861547822289        0.06669443963635
C           -1.78565396784632       -0.21911068897872       -0.18360383342828
O           -2.97578278389212       -0.39176232475652        0.00449483519712
N           -0.91301606628314       -1.33482861341079       -0.23843845662730
C           -1.47703263446347       -2.65479071229208       -0.02687593679802
H            4.13877856294013        0.75961937082318        0.54224365844599
H            3.12810164437679        2.09455100727322       -0.34286810212642
H            2.69357699819039        1.62314685699285        1.36800348213731
H            3.52688473288837       -1.73605202819702        0.13344510808958
H           -1.47769244876771        3.03517050918491       -0.04083715721838
H           -2.99187553726075        2.19458282863244       -0.55928667174361
H           -2.37714240984679        1.98510729644446        1.13185220772776
H           -1.21527274862247       -3.08672759748348        0.94936811536598
H           -1.18743136756749       -3.36065716748962       -0.81481340667528
H           -2.55769210696132       -2.50971406797119       -0.05643799131710
H            1.23517755574975       -2.85535195823100        0.34124698758009
25
 energy: 3.153954594071 xtb: 6.6.1 (8d0f1dd)
C            3.06801717597740        1.19782603168643        0.39531778836287
N            2.32152343753907        0.11516572684870       -0.23031194978821
C            2.57705852241428       -1.19802510008951        0.15519034480203
N            1.41781298873602       -1.90277264099611        0.05773390582473
C            0.41225920709189       -1.06535029298306       -0.26202315473590
C            0.95306144744110        0.19283504207682       -0.46266195896471
C            0.10479105383363        1.33601127591213       -0.74282440316363
O            0.43673020904769        2.45035992585370       -1.08868667792388
N           -1.22597442449386        1.04522758275669       -0.34490626580131
C           -2.04857619557027        2.14593812493081        0.08612039526740
C           -1.78318652614109       -0.21527517994406       -0.19355810286820
O           -2.95572170656703       -0.37378851402977        0.02036184438477
N           -0.91568999850565       -1.31058149088344       -0.28799260079777
C           -1.47248197616827       -2.63068738005935       -0.03664142829236
H            4.07208863532064        0.84669682466666        0.48119348499473
H            3.07231963911106        2.07557200732674       -0.20752857634869
H            2.70199666641410        1.50035372583189        1.35213201538935
H            3.55408136074773       -1.67966907656058        0.07399625094007
H           -1.47029615735999        3.02696052123744       -0.01184156997825
H           -2.96410485717062        2.18268104610858       -0.49295939111278
H           -2.31739982497816        1.97656252193919        1.12581292894718
H           -1.18699846492203       -3.02372253524353        0.94514443825774
H           -1.17137054688508       -3.33341675373795       -0.80778871158867
H           -2.56335590658747       -2.51699697726930       -0.05775134554415
H            1.29563090961052       -2.85287581320695        0.36150663588489
25