25
 energy: 0.000000000000 xtb: 6.6.1 (8d0f1dd)
C            3.23720163006194        1.16630919979326        0.08434469647475
N            2.29877817382611        0.07527477071623        0.03981603040599
C            2.58028210190900       -1.21425402444508        0.03006176031096
N            1.43813958087363       -1.93419271955128        0.00098261760884
C            0.39035688448383       -1.05887472636071       -0.00790371836672
C            0.93510056364412        0.21347819449412        0.01709077491437
C            0.09450143893243        1.40504303904423       -0.00410947031874
O            0.49712751527797        2.54126714362870       -0.00342325688240
N           -1.25076640035757        1.06271879480407       -0.03085478223738
C           -2.21907211982101        2.15522099834493       -0.05001256985998
C           -1.81739487048744       -0.20012725993278       -0.04692818574614
O           -2.99983886758376       -0.37846417018721       -0.07008878229737
N           -0.92618586207120       -1.30210215599479       -0.03682761578324
C           -1.46982264913417       -2.64643102187190       -0.06029820460571
H            3.71247264356769        1.21471455160235        1.06488849150277
H            4.00791497605742        1.03430808813993       -0.67357694370751
H            2.69910007168542        2.09770118228144       -0.09130154882931
H            3.56654120610678       -1.63682992603973        0.04233140067262
H           -1.67107961066214        3.09322851271934       -0.02552706933167
H           -2.82428953597071        2.09428624779827       -0.95318082946668
H           -2.87644029173232        2.07745725625962        0.81450067533302
H           -1.17061996399332       -3.19584890659852        0.83242232437030
H           -1.14560257411436       -3.17511610292205       -0.95688275822323
H           -2.55549792440841       -2.55659984320617       -0.07459039797972
H            1.38130855184625       -2.94313852034425       -0.01389874181052
25
 energy: -5.385835493705 xtb: 6.6.1 (8d0f1dd)
C            3.24469567422165        1.17964100863255        0.08675266012997
N            2.30939153497356        0.09690813209710        0.03782239578116
C            2.60180470041738       -1.23096339377587        0.03018152394389
N            1.43017223528026       -1.93962649635648        0.00095791489622
C            0.39786222390502       -1.05687697030464       -0.00822089136211
C            0.93135014595193        0.22251764337840        0.01532616599921
C            0.10272587775901        1.39582166108285       -0.00522193015161
O            0.49892124689303        2.56187280645360       -0.00457908618724
N           -1.25899170341255        1.04978391762053       -0.03112187738369
C           -2.21961486088407        2.14551542203814       -0.04986514435028
C           -1.82192870504182       -0.20168362621180       -0.04735086889328
O           -3.01852939543006       -0.38404311300913       -0.07049458822279
N           -0.93326921593418       -1.30250583267797       -0.03708071287982
C           -1.47695072759529       -2.64354925115526       -0.06034944709044
H            3.72359780408492        1.22577269344228        1.06850654172307
H            4.01262937396173        1.04578702464367       -0.67658638004650
H            2.69755352601699        2.10417553418595       -0.08823007076168
H            3.58047298102339       -1.65629574634696        0.04290793143536
H           -1.65852289628040        3.07705547507808       -0.02533456934231
H           -2.82491389906016        2.09172458914489       -0.95429773189769
H           -2.87712611879878        2.07502257898464        0.81600259118170
H           -1.17830383887919       -3.19729793881961        0.83171833815714
H           -1.15318985795200       -3.17677220014774       -0.95627403076771
H           -2.56194341509793       -2.54963750021628       -0.07472867528580
H            1.36432197781375       -2.94331781558890       -0.01340616247748
25
 energy: -6.477167469736 xtb: 6.6.1 (8d0f1dd)
C            3.25522129031515        1.19454774029820        0.09005058565642
N            2.32214581253963        0.11256746927510        0.03422861787415
C            2.61941079707574       -1.24391431665047        0.03053858694613
N            1.42284262019960       -1.93758966057966        0.00160484447824
C            0.40525952373270       -1.05390739220270       -0.00909594518929
C            0.93149516418090        0.23077032041536        0.01210002364221
C            0.11145124275512        1.38165527563680       -0.00825050122253
O            0.48622943213471        2.56602526468693       -0.00843166159246
N           -1.26746136868179        1.03297578134955       -0.03216313114633
C           -2.21804581531883        2.13144842182940       -0.04964597832258
C           -1.82293712165432       -0.20732923148650       -0.04814538245238
O           -3.02483387967721       -0.39585025733254       -0.07085112494588
N           -0.93773680725568       -1.30288495075694       -0.03760043185216
C           -1.49016691791779       -2.63826055599338       -0.06042326281039
H            3.74558269816957        1.24658309407863        1.06877805318971
H            4.02151789376004        1.07586296279655       -0.68008899417102
H            2.69889153076436        2.11562496858766       -0.07703517518621
H            3.59147247303550       -1.67749487445671        0.04441748043322
H           -1.63402427156410        3.04962152436457       -0.02502604997856
H           -2.82427300012801        2.08654915077761       -0.95468931920506
H           -2.87561784340628        2.06983661008468        0.81762562592609
H           -1.20033618485175       -3.19951724963844        0.83109435758443
H           -1.17485428534153       -3.17964986792846       -0.95573375753331
H           -2.57451960542578       -2.52979498859858       -0.07497844868545
H            1.34550129049626       -2.93884663638465       -0.01124511528970
25
 energy: -5.651151535207 xtb: 6.6.1 (8d0f1dd)
C            3.26569867227482        1.21382174031277        0.09403081138510
N            2.33857359080790        0.12233599768313        0.02995277200937
C            2.63551704036623       -1.25222132418135        0.03080401903848
N            1.42450829177019       -1.93418493875855        0.00340659225367
C            0.41460476330360       -1.05458937425703       -0.01056374363578
C            0.93861458145784        0.23445623513326        0.00759702095817
C            0.11882615211768        1.36880729228961       -0.01453498310919
O            0.46590814078731        2.56424023589544       -0.01719061137904
N           -1.27219510233659        1.01358349906344       -0.03497943187331
C           -2.21259360015681        2.11366553017431       -0.04959228598872
C           -1.82034173711559       -0.22009389016751       -0.04977542758384
O           -3.02341285167534       -0.41629905965732       -0.07139547220564
N           -0.93539972816316       -1.30821409832287       -0.03859369555673
C           -1.51328036580917       -2.63251876792233       -0.06040299302150
H            3.77610675966916        1.27177385471486        1.06460625778542
H            4.02834374354803        1.13009320285723       -0.68740578744737
H            2.69727679617431        2.13309364503783       -0.05152781807642
H            3.60206796718210       -1.69755274131486        0.04729739472334
H           -1.60103102125433        3.01449011759634       -0.02511492650440
H           -2.82064822711789        2.07754867781163       -0.95406554712926
H           -2.86854198126072        2.06018411395131        0.81976353540625
H           -1.24606905596661       -3.20427892236588        0.83201134126282
H           -1.21962710084600       -3.18616900209466       -0.95612495702973
H           -2.59596548193478       -2.48842157976918       -0.07527442399952
H            1.33527442211405       -2.93452184153758       -0.00589374413490
25
 energy: 7.539963952519 xtb: 6.6.1 (8d0f1dd)
C            3.29767051266621        1.27980621726470        0.10813562736216
N            2.39315782139300        0.15253042898885        0.01399787568302
C            2.68528164259427       -1.27983008311556        0.03182922833104
N            1.42973127553058       -1.92140202442926        0.01043396705939
C            0.44342994291118       -1.05730806510952       -0.01601494953292
C            0.96268610183811        0.24604288519717       -0.00920061750390
C            0.14168296325051        1.32708838599029       -0.03827348588965
O            0.38930560554679        2.55655253777721       -0.05029813445512
N           -1.29033164622807        0.94804196634396       -0.04588103691080
C           -2.18941000378958        2.05969465345774       -0.04951830620579
C           -1.81364553569770       -0.26593515278662       -0.05595797882823
O           -3.01927911975267       -0.48745538816878       -0.07345912578310
N           -0.92716643743199       -1.32961904691435       -0.04229530671484
C           -1.58731968679826       -2.61933774462976       -0.06000565629996
H            3.88221297390238        1.35179854280785        1.04762176552279
H            4.04365251153359        1.32498543269381       -0.71653961990816
H            2.68636576483313        2.19388765999153        0.04643881077227
H            3.63187534603787       -1.76898352874611        0.05814062528935
H           -1.47640022258460        2.89604939513251       -0.02626147468037
H           -2.80505645759467        2.05969420381842       -0.95099881816230
H           -2.83892819201506        2.04028853884408        0.82765390160589
H           -1.39565478991168       -3.22421396020984        0.83559003203013
H           -1.36471690643614       -3.21341495633634       -0.95590607859662
H           -2.66435700231029       -2.36073058796645       -0.07682412499001
H            1.29742820644923       -2.91920170772347        0.01462677695302
25
 energy: 20.586158290706 xtb: 6.6.1 (8d0f1dd)
C            3.31331109990639        1.32199439192417        0.11675159162680
N            2.42698091969022        0.17001383446321        0.00803771834013
C            2.72494045222756       -1.29003001623131        0.03069270981935
N            1.45043451211456       -1.92309451575662        0.01485980604028
C            0.46676092283873       -1.06716720356362       -0.01954125444897
C            0.98279542033624        0.24361270776705       -0.01795088748584
C            0.16069937341256        1.30522357208135       -0.05467767561194
O            0.37958379541831        2.54716143475307       -0.07274150031446
N           -1.28681239532950        0.91554136266468       -0.05460647128924
C           -2.17980415588032        2.02109384494162       -0.04949600443966
C           -1.80184575083475       -0.28852054014285       -0.06059323634162
O           -3.01147790054079       -0.51575263168185       -0.07462389746651
N           -0.91807926973836       -1.34587535607676       -0.04516933995681
C           -1.64736354818108       -2.60652036224411       -0.05980049227681
H            3.94064374503542        1.39786403036905        1.03589470082274
H            4.04257266242015        1.44118685219923       -0.73275375410922
H            2.67367258087758        2.22733262327982        0.10824435649724
H            3.66451265714580       -1.79244470967361        0.06416540053166
H           -1.44101860179568        2.83634272090919       -0.02691144369439
H           -2.79825096518431        2.02604366459338       -0.94870696745686
H           -2.82140369229202        2.00214727136397        0.83322186028297
H           -1.51590806077298       -3.23344616243627        0.83905624431722
H           -1.48378946363801       -3.22764086067767       -0.95784174819810
H           -2.71557314685232       -2.25771245541720       -0.07669621513166
H            1.30663347755279       -2.91832489523584        0.02822039609098
25
 energy: 41.357184281502 xtb: 6.6.1 (8d0f1dd)
C            3.32961846450869        1.37485891583565        0.12718530641487
N            2.46667968635456        0.18826460713677       -0.00016223344857
C            2.76858615460013       -1.30181860866349        0.02793166389302
N            1.47719159701658       -1.92947560567325        0.02193495149240
C            0.49114687135249       -1.07829584393826       -0.02464824620433
C            1.00838544629630        0.23790546537664       -0.02990454771020
C            0.17504716963112        1.28464925590199       -0.07712079979758
O            0.37050378664616        2.53365481124970       -0.10351546287153
N           -1.28736105144426        0.87747373043358       -0.06654994933332
C           -2.16551382153499        1.98199708547909       -0.04995010884988
C           -1.79564012233067       -0.32109182437781       -0.06688863381716
O           -3.00879737830324       -0.56336714317147       -0.07606067931218
N           -0.90597375904832       -1.36899315773466       -0.04911699984457
C           -1.71289033171230       -2.59715217319915       -0.05915399895825
H            4.01727688411060        1.44620207988588        1.01559131370413
H            4.02954654110273        1.59806773587543       -0.75698869335052
H            2.65345989789762        2.26804978482987        0.20031829234451
H            3.69618231242079       -1.82523158574230        0.07207610303264
H           -1.38910569628758        2.76009952219202       -0.02967007564184
H           -2.78394034839936        2.00283174550746       -0.94687403327396
H           -2.79259817577140        1.97495021333806        0.84168902582200
H           -1.65579889000983       -3.24843006428489        0.84550570448987
H           -1.61967122678609       -3.25078140406694       -0.95956708591098
H           -2.76884837735713       -2.13677636065244       -0.07770096844195
H            1.31472903498352       -2.91856257936541        0.04867405172065
25
 energy: 44.640309015789 xtb: 6.6.1 (8d0f1dd)
C            3.32413699081820        1.39446651226315        0.12637740444095
N            2.46907220445513        0.17253318374912       -0.00988110669384
C            2.74173208851121       -1.29652840723851        0.02214991996936
N            1.48729939347586       -1.95069962792723        0.03270707331675
C            0.46725159825054       -1.06440035899217       -0.03103718388394
C            1.02441373918756        0.22668835514365       -0.04242548107229
C            0.12017032563068        1.31877014879164       -0.09221998919982
O            0.37083890659635        2.52090304253170       -0.12415393242035
N           -1.31944288919299        0.87208560783537       -0.07249897597614
C           -2.14635665230838        2.01610390650016       -0.05169191821799
C           -1.84992252503814       -0.36110715763750       -0.07061918209701
O           -3.05314634305260       -0.66217284314336       -0.07659910448465
N           -0.89514448038499       -1.38755662435709       -0.05180779055117
C           -1.67583815068396       -2.63148977050400       -0.05740915809780
H            4.06397569583275        1.42011141785064        0.97582465572027
H            3.97438448300315        1.71649693574015       -0.77923687582885
H            2.63632054914188        2.27584069939209        0.30112262857384
H            3.64049446985119       -1.86702205663531        0.07912343457472
H           -1.31619249813437        2.70508143791637       -0.04035080209446
H           -2.74010688004563        2.10450773117600       -0.95180293597826
H           -2.74140195990878        2.08697807147242        0.85232807167775
H           -1.63504319352638       -3.27533428758643        0.86004812779238
H           -1.58318250000508       -3.28897133756149       -0.95970582991942
H           -2.72805123426571       -2.13977571263621       -0.08478745076111
H            1.27595352972857       -2.91648026397107        0.07358029735833
25
 energy: 49.460085305788 xtb: 6.6.1 (8d0f1dd)
C            3.31759809955777        1.43024203147829        0.13654200188863
N            2.48357021983995        0.18422020292728       -0.01666039534541
C            2.75842198630556       -1.28581329118955        0.02051197019732
N            1.50199147640904       -1.94066500876407        0.03369979282532
C            0.47662232646720       -1.07688377955886       -0.03498704423147
C            1.03460836572271        0.21797458012276       -0.05649546372927
C            0.15019112726204        1.28210599410481       -0.11122733424754
O            0.37846831534935        2.49588036007826       -0.15312044781261
N           -1.29545824479838        0.84286378522395       -0.08172782057229
C           -2.12203170285062        1.99540936767246       -0.05014020305955
C           -1.83071894057504       -0.36467696334320       -0.07568702134182
O           -3.03730496780820       -0.62012497272086       -0.07877861957710
N           -0.89526604716933       -1.40631309184153       -0.05435198128159
C           -1.72019314227405       -2.64131256074385       -0.05726576145050
H            4.10348393906559        1.43996137497408        0.95565776808019
H            3.93400570129967        1.81356315932088       -0.79212244290009
H            2.61466769201642        2.29826215498970        0.37048013801115
H            3.65524650229027       -1.86644657050754        0.08945712348219
H           -1.29365519759086        2.68629871839742       -0.04157419085746
H           -2.72929593417345        2.08924342075733       -0.94263291195330
H           -2.71239216893003        2.06446920739611        0.85710149011939
H           -1.71722241818610       -3.28913266821042        0.85938358889500
H           -1.66378064672008       -3.30978731926988       -0.95599543580022
H           -2.76473696038996       -2.13846164540904       -0.08578598220844
H            1.28539528781659       -2.91184788371242        0.09275307901674
25
 energy: 38.839393849447 xtb: 6.6.1 (8d0f1dd)
C            3.27072959906139        1.46031889417324        0.15058665958853
N            2.46618213168309        0.18793791015253       -0.02514249646022
C            2.74162136966805       -1.22044991399571        0.01996448757222
N            1.52677337467782       -1.90975528722869        0.02816966664199
C            0.47450144736129       -1.10483684004484       -0.04004219996560
C            1.03099175563114        0.19542054625853       -0.08583325628714
C            0.19642083260514        1.21979525530367       -0.14076079012922
O            0.42427509575560        2.44810643714280       -0.20123334630845
N           -1.22956180380938        0.81825707361167       -0.09368893264758
C           -2.07764673651508        1.99428164088610       -0.04206477931027
C           -1.78537625116271       -0.35196754841922       -0.08163650553368
O           -2.99065618224481       -0.49903207081729       -0.08025324600168
N           -0.89564086022192       -1.44135521791713       -0.05709806027578
C           -1.76091861651967       -2.68007991459068       -0.05934234427715
H            4.09840259806391        1.42308581178522        0.90423089107999
H            3.80607015587819        1.86629140859778       -0.77095965501687
H            2.59617709611311        2.28487885797672        0.44681687451817
H            3.64623312994486       -1.80150982310883        0.10763131488212
H           -1.29770130999565        2.73385415929506       -0.04179070541538
H           -2.71271020791824        2.09059079599839       -0.91905486673096
H           -2.66139433997667        2.04875675491355        0.86918520481831
H           -1.77578428071464       -3.30271607099918        0.84658409805398
H           -1.72059728582196       -3.33395881123221       -0.94290120334911
H           -2.78860887579114       -2.23610477395818       -0.09092292243888
H            1.33043283218427       -2.90078067161115        0.12659000913989
25
 energy: 49.235405559864 xtb: 6.6.1 (8d0f1dd)
C            3.23838750254919        1.50313498522759        0.16570238243931
N            2.47432085854502        0.19315241088537       -0.03637506551929
C            2.75730864512132       -1.18159613499774        0.02315892174589
N            1.56767048945575       -1.90392729007989        0.03814471271902
C            0.48591902129263       -1.13785780188742       -0.04710324844583
C            1.04444213233408        0.16918406817661       -0.11538043951450
C            0.22171573839482        1.19172249018267       -0.18960598008617
O            0.45953324336819        2.42427211455458       -0.26941504463281
N           -1.18633837060807        0.79798713572932       -0.11605288976784
C           -2.03396490495647        1.98346393312576       -0.03776211601936
C           -1.75544146219085       -0.36436331602642       -0.09161849009925
O           -2.96320589248545       -0.46091708294966       -0.07930276761117
N           -0.88931393288187       -1.48399895816584       -0.06406694711550
C           -1.82167451602148       -2.70612479776341       -0.06147256931323
H            4.15060949917222        1.40549271159075        0.83976625355872
H            3.66237698655814        2.01794794083318       -0.79673903417414
H            2.53733441769806        2.28264455020705        0.61359368417630
H            3.66105360074625       -1.76259998863447        0.13051268688354
H           -1.25034632702483        2.72862474765958       -0.04833217541099
H           -2.68635618660870        2.08824038565408       -0.90031931172929
H           -2.59298619136856        2.03127721195517        0.88900761977115
H           -1.89478532051523       -3.32622012940032        0.84538957645737
H           -1.82973408432417       -3.37497444947055       -0.93510338081521
H           -2.83078912330622       -2.22690943577235       -0.10094490922239
H            1.38647884499218       -2.89862669846148        0.17135242787290
25
 energy: 44.886641925047 xtb: 6.6.1 (8d0f1dd)
C            3.19093545848213        1.50739355733758        0.17383285320956
N            2.46415472438222        0.17973113997025       -0.04559957901002
C            2.76311913577525       -1.12382274720519        0.04207272541795
N            1.62315970948272       -1.90831210617912        0.05509740662058
C            0.49491665186266       -1.18567298631800       -0.05414436259700
C            1.05247859804525        0.13038770705615       -0.14506371689317
C            0.21513796226658        1.21263535402967       -0.24588785060139
O            0.51127248869059        2.43421414608690       -0.33618981456186
N           -1.13290527175327        0.82591959349643       -0.13821018197660
C           -2.00126100030598        1.99384594401551       -0.02889769761583
C           -1.71952256397347       -0.36844856228332       -0.09800366264363
O           -2.92935565117641       -0.42234273975157       -0.06857805418345
N           -0.88264494912548       -1.52907564862639       -0.07396509102924
C           -1.86693445870802       -2.73260335143853       -0.06797906591362
H            4.13642377352603        1.36221438195402        0.75681913912013
H            3.48027743464266        2.07694317538090       -0.77989538590528
H            2.49843354705152        2.21709049201008        0.74172138162980
H            3.68141493419045       -1.66970136341449        0.15059513753114
H           -1.23253979886959        2.78107138304111       -0.05037763068263
H           -2.67008710334229        2.08012529773362       -0.87527169409026
H           -2.53323650126145        2.00052814344980        0.91599435109123
H           -1.97866186649669       -3.34012742225596        0.83841268254399
H           -1.90558492738538       -3.40621562846474       -0.92996290347927
H           -2.85098758164659       -2.21998389497678       -0.11632994137372
H            1.50421192358246       -2.90676526247579        0.20684485153979
25
 energy: 50.480869894714 xtb: 6.6.1 (8d0f1dd)
C            3.14695440910258        1.52716400377572        0.19044484832545
N            2.46071442896787        0.19322580146895       -0.06290480357622
C            2.80180317429267       -1.10476203190555        0.07558498412141
N            1.68042929646216       -1.92049032233982        0.07873944688776
C            0.51987249016051       -1.22897364742098       -0.07128876566248
C            1.05090384452910        0.11036438881416       -0.18609086490327
C            0.23596066691657        1.21816173810149       -0.30784264560834
O            0.55922151109937        2.42621243605048       -0.41128772565485
N           -1.09034216294151        0.83894156316418       -0.16176814537914
C           -1.96856999331560        1.97781406429016       -0.01322381908660
C           -1.67532841371153       -0.37527579125112       -0.10871173293458
O           -2.89436595550998       -0.39763565387339       -0.05358202088591
N           -0.87892384733768       -1.56857430719044       -0.09170743701048
C           -1.94543408999688       -2.73341329613969       -0.07783383942726
H            4.13279024810042        1.36887492667201        0.69187601443234
H            3.33378586609994        2.14590883173825       -0.75087971816633
H            2.48119292669912        2.18107458554169        0.83167936765930
H            3.74563859592446       -1.59722727311075        0.17791406677170
H           -1.22340119320876        2.80042108172876       -0.03878614423533
H           -2.66550684145232        2.03908841449498       -0.84002904800753
H           -2.47664652750487        1.92750857901795        0.94889022843028
H           -2.11415858524693       -3.34367333526087        0.82913162045386
H           -2.03855785354332       -3.42685451378008       -0.93156364345312
H           -2.90335352545688       -2.14879271254523       -0.13231217956765
H            1.63753619880734       -2.92005892786861        0.24258585262424
25
 energy: 49.793585713893 xtb: 6.6.1 (8d0f1dd)
C            3.09283172251647        1.50943188822948        0.20149451807866
N            2.43957303460487        0.20391158154756       -0.09353516335025
C            2.83063830507896       -1.10930012799314        0.13381402991351
N            1.72424827973865       -1.93861749303324        0.11375912702353
C            0.53966277883809       -1.26116701693014       -0.09610307914852
C            1.03580294089879        0.09524903242773       -0.23491518060601
C            0.24384018839020        1.24732959391555       -0.37268916173476
O            0.59984401163326        2.41625455845111       -0.50164229956995
N           -1.07359029409753        0.87238613753826       -0.18166781449097
C           -1.94060830500924        1.98408358844387        0.00979768920203
C           -1.64448826135315       -0.37854883185598       -0.11520506909598
O           -2.86796570390996       -0.39612318244574       -0.03046692317108
N           -0.88636190016207       -1.59303908118040       -0.11420999233891
C           -2.00165792215439       -2.72282430656875       -0.09324084117927
H            4.09321267443693        1.36021680409771        0.61786063285046
H            3.18076164629380        2.14774502674243       -0.69637220327742
H            2.48842629621777        2.11132416508224        0.89977026341108
H            3.81905052059472       -1.51331210409707        0.20728078677909
H           -1.23401425114424        2.83839024771819       -0.01524028542844
H           -2.67088321513274        2.02727146555171       -0.79427594396581
H           -2.42904994672996        1.87978733138082        0.98248566756335
H           -2.18655103031092       -3.31759860400909        0.80903838591256
H           -2.11318325921189       -3.41554605939080       -0.93333625125143
H           -2.92025486594030       -2.12487063731872       -0.15248998150347
H            1.79293122384975       -2.93340537413138        0.27712298552525
25
 energy: 59.873033477090 xtb: 6.6.1 (8d0f1dd)
C            3.04377823383523        1.50833270847748        0.22028564111944
N            2.43417275839477        0.20407920179790       -0.10810607498278
C            2.85357132624300       -1.08994386612265        0.17702563370028
N            1.76529394613338       -1.94124861666108        0.14254890442494
C            0.56358132519037       -1.28962183151864       -0.11195081055257
C            1.04187802557688        0.06453288134024       -0.27734104623313
C            0.27874491494310        1.21919691727728       -0.44577813363195
O            0.65024341589183        2.38118172255350       -0.63479898970339
N           -1.03829902676746        0.86109632350902       -0.21178471809503
C           -1.91309744122324        1.97245047687400        0.03329078242585
C           -1.60929470920263       -0.37800644437204       -0.12286816237442
O           -2.83315798151091       -0.35370455129881       -0.01073108514427
N           -0.88214476564612       -1.61201920419111       -0.13261915157548
C           -2.05765703206727       -2.71814909129953       -0.10957807856379
H            4.11256603633821        1.34104419471959        0.53872109870428
H            3.01139467673756        2.21903167061795       -0.68614388554117
H            2.46182085553227        2.05657159851470        1.04247465965275
H            3.87356771467755       -1.42930984571495        0.24190214029362
H           -1.26119180220480        2.85216872248123        0.00308989565389
H           -2.67908390725358        2.01902770570879       -0.74339960666730
H           -2.37355671221657        1.83497513380965        1.01685428631922
H           -2.28797048086801       -3.29873945648631        0.79978741439696
H           -2.20328989118146       -3.42051188596187       -0.93965716776797
H           -2.95014679343503       -2.07887611366650       -0.18185105307156
H            1.91049198201875       -2.93452974821557        0.32766140336082
25