72
 energy: 0.000000000000 xtb: 6.6.1 (8d0f1dd)
N           -1.47310921155849        2.74401293103706        2.22063921685122
C           -1.55658879776851        2.16490285539332        1.13274273951491
C           -2.74549199786261        2.05621232186130        0.23826248438941
C           -3.31377553111525        0.64333411542669        0.32332512650568
C           -4.30230156009016        0.24487110156316       -0.58026161703006
C           -4.85238763031941       -1.02286490450319       -0.53363588718165
O           -5.81419972815119       -1.48606034185536       -1.36157882725342
C           -6.39655633239252       -0.60827000183299       -2.29568474302620
C           -4.39972501531283       -1.94646102182611        0.44396929121966
O           -4.98748311285188       -3.16145997157803        0.41085992006324
C           -4.66362127904578       -4.10093827755394        1.40909127743729
C           -3.42072513477031       -1.54561384810496        1.33436546260297
C           -2.88302799614223       -0.26315800396994        1.27400150770375
C           -2.19303798107274        2.30467000305896       -1.18742977106749
C           -1.26651538239283        1.17243369445008       -1.65249429687285
C            0.01082524939134        1.09745454476277       -0.89354803499847
N            0.61779393476578       -0.02034948052406       -0.57705522512502
C            2.00145210352228       -0.02376006389122       -0.15611399603240
C            2.92554934655222       -0.53865282675074       -1.27700088804721
C            4.35756843073516       -0.43050757231754       -0.83075544324989
C            5.07346135469827        0.73206409086248       -1.03980965825901
C            6.38627986649936        0.84224441421807       -0.60344822702769
C            7.00047264773336       -0.20824756335880        0.05722314418200
O            8.26703657141718       -0.21011313101264        0.52410943644933
C            9.06912227848686        0.92943601033931        0.31863058007678
C            6.27039964270142       -1.40439753960823        0.28033466008274
O            6.94829939911432       -2.38012925705718        0.92751999079483
C            6.31537317745639       -3.61583200086742        1.15217711710877
C            4.96302794628964       -1.49347471867959       -0.16064430359178
C           -0.05511211367372       -1.29906247805359       -0.62085686319744
C           -3.86758037025447        3.07992600430699        0.58498060215443
C           -4.49286159663096        2.77383493050346        1.94313289484366
C           -3.39165179876499        4.52917666589254        0.54797523472093
H           -4.66030026466202        0.94509067363451       -1.31640568823548
H           -6.85037928558380        0.25803162192116       -1.80468845313260
H           -7.17287442604349       -1.18600110843259       -2.79318157561361
H           -5.66836817451085       -0.26952966318766       -3.04040255244073
H           -4.88416720672258       -3.71589460520039        2.40913542187496
H           -5.29223570620378       -4.96637458756866        1.20969236903657
H           -3.61139813139015       -4.39919835331056        1.35529357841967
H           -3.07077796610445       -2.21868765711333        2.10002662693138
H           -2.14562754426994        0.02067850696302        2.01001344383370
H           -3.02188875377605        2.38238012313952       -1.88813545054866
H           -1.65198530896729        3.25146700677685       -1.20556284570283
H           -1.81103374245520        0.23006524641044       -1.62116301628650
H           -0.99335688527853        1.37490212198123       -2.69443256973690
H           -0.67628064361333        1.65183887049447        0.61785727145403
H            0.63525841192517        1.98466369793744       -0.92314021190751
H            2.11132552493482       -0.65949692842762        0.72532613231274
H            2.30680473056284        0.98978251704176        0.11078972794250
H            2.76694198818247        0.06750735147374       -2.17075252200790
H            2.67954581369920       -1.57455627803457       -1.51167743520200
H            4.62169998552446        1.56295612048703       -1.56123579000624
H            6.92357674630170        1.75715815945204       -0.79119596719031
H            8.65159112996149        1.81001823324363        0.81701555159939
H            9.20136171144928        1.14042857828877       -0.74698991949293
H           10.03428838009630        0.69003240176163        0.76064937965836
H            7.05567174969094       -4.23621171795340        1.65347565939075
H            5.43848001056755       -3.50813558175093        1.79970565785717
H            6.02060041905269       -4.09420497120334        0.21253282636366
H            4.40102758497114       -2.40127266373392       -0.00490198249042
H           -0.22071299714579       -1.61775583601871       -1.65116008982042
H           -1.01972258008625       -1.24102717432227       -0.10935206830928
H            0.55899954147532       -2.04486085926761       -0.12333730421426
H           -4.63991875734388        2.95501092798550       -0.18098088071825
H           -3.76095216473977        2.90314704960906        2.73380821053058
H           -4.87457614030224        1.75695641518947        1.97884603101694
H           -5.31925552549014        3.45579210326349        2.12325564252114
H           -2.60025590131176        4.69225046143352        1.27368918226171
H           -3.03987406413880        4.81897652321898       -0.43870975059559
H           -4.22191740670577        5.18069648090034        0.80616693961239
H           -0.59832433787845        2.77744694953323        2.72958984441332
72
 energy: 1.006837688718 xtb: 6.6.1 (8d0f1dd)
N           -1.51491363587475        2.91233058481815        2.23460086806429
C           -1.56245333961909        2.20710652944801        1.17988813258741
C           -2.74697200311854        2.09778547544096        0.25730294730066
C           -3.32102061226165        0.68115665764688        0.35669062568035
C           -4.30326917548208        0.24216612913134       -0.53337045614877
C           -4.82520682282082       -1.04725776060119       -0.48740091256962
O           -5.79959576495224       -1.49584840101602       -1.33336202242539
C           -6.36786592955924       -0.60475509443692       -2.26191686511446
C           -4.34826741032206       -2.00740069032292        0.45863812159686
O           -4.80884856057515       -3.34021800740223        0.33086232575603
C           -4.60397315721458       -4.32070139216520        1.33883793320950
C           -3.42237651216086       -1.52270526895847        1.37861216767473
C           -2.91166345267440       -0.22050867175817        1.32204859037023
C           -2.19015281028962        2.33065156821389       -1.17616835545485
C           -1.26565901746936        1.21275285193490       -1.68817010665015
C            0.00384631286287        1.16041923317551       -0.90680293480770
N            0.62690880652947       -0.04836909959845       -0.55075778761604
C            1.99225785878876       -0.04441002039794       -0.15547357406128
C            2.92743988587111       -0.55147223442187       -1.27437798807714
C            4.35108340880810       -0.44745098624166       -0.84239704258507
C            5.06630126143906        0.71937140290439       -1.03765477100469
C            6.37584419199103        0.83004589154238       -0.59533702811466
C            6.98756208961673       -0.22416991815478        0.05850538603734
O            8.27238512331842       -0.23117918674526        0.52618418685357
C            9.06100120466006        0.91080766234656        0.31895309620730
C            6.26066242284265       -1.41509572675301        0.27743993827408
O            6.94659805768118       -2.40281704363858        0.92523177354908
C            6.30596865806821       -3.63279811336821        1.14216054678381
C            4.95726848608205       -1.50736120713269       -0.16763061519980
C           -0.07480095949211       -1.29479150147336       -0.61386104257007
C           -3.87344403930757        3.12312658755490        0.56511370225177
C           -4.50149397526897        2.84753909167805        1.93021881779498
C           -3.40062858557908        4.57644980028498        0.51139476920987
H           -4.65036183716026        0.93399871384806       -1.28859887050578
H           -6.81477842940763        0.27137097024607       -1.77822764989049
H           -7.15167991310938       -1.17430594645355       -2.76007376695747
H           -5.63929924893776       -0.27044776278164       -3.00905557229950
H           -4.82661909408222       -3.73250394251508        2.25220883845379
H           -5.30517566338779       -5.16297365530787        1.19014326554582
H           -3.59434873129932       -4.78638282898436        1.36323273804024
H           -3.05006197292983       -2.17414591112591        2.15341784831608
H           -2.16614111486384        0.08225298428355        2.04387002378389
H           -3.02367238915044        2.43716711036801       -1.87475130308255
H           -1.62947758103702        3.26834166876583       -1.19012293054632
H           -1.80294050956044        0.26632273006375       -1.62613160327808
H           -1.05985236205730        1.41008801368216       -2.75312499427503
H           -0.69321124408239        1.68384091447303        0.72135099976817
H            0.66995287442416        2.00338195811647       -1.00109785883111
H            2.11354402479602       -0.67192244522327        0.73550346879265
H            2.28402590760860        0.97540390732992        0.11009209115719
H            2.75002806651234        0.05837429402384       -2.16173513116790
H            2.66469103463692       -1.58462768191725       -1.50582130386613
H            4.60747674311402        1.55321227607031       -1.54795185139767
H            6.91304284981438        1.74775171775781       -0.77698031491551
H            8.64176806058978        1.79054176492512        0.81967908757333
H            9.18799539197169        1.12808589750892       -0.74745107491559
H           10.02984351125463        0.67502104481099        0.75650957914273
H            7.04481656769241       -4.25992879370258        1.63928631727054
H            5.42879902461096       -3.52640136024063        1.78992365153203
H            6.00509874613319       -4.10630850166147        0.20095201931877
H            4.38922352584817       -2.41134965020932       -0.00835680745264
H           -0.25235892901327       -1.61604466226012       -1.64860198443960
H           -1.04089603204950       -1.21859883696763       -0.10604945593850
H            0.52234343919542       -2.05278017304334       -0.11184591667890
H           -4.64846062492647        2.99521575006295       -0.20075672434347
H           -3.75670888960824        2.98701559753591        2.70745699916624
H           -4.87625386056258        1.82783428915482        1.98197531725588
H           -5.32990776270310        3.53179275540653        2.10383700216483
H           -2.60908028679654        4.74083378207548        1.23623700689984
H           -3.03725253539173        4.84706509292056       -0.47730044785809
H           -4.23235921851354        5.23624764553714        0.75421625694716
H           -0.62237434922568        2.88445296883817        2.72862695282996
72
 energy: 13.754643704388 xtb: 6.6.1 (8d0f1dd)
N           -1.53997139506358        3.00301991587794        2.23329203414473
C           -1.56517634206827        2.25061324012226        1.19903498202169
C           -2.74985930210773        2.12377054033293        0.26734921318672
C           -3.32363472092981        0.70117565171839        0.37834596671616
C           -4.30040186949310        0.23368016507039       -0.50393619947627
C           -4.80114127857177       -1.07059215739560       -0.45947845236214
O           -5.78546604716561       -1.50204128024696       -1.31188247637662
C           -6.34628192304995       -0.60295402356260       -2.23660485226712
C           -4.30214072752059       -2.05175177856574        0.46388592715751
O           -4.66616815955418       -3.45716051619574        0.26686459780734
C           -4.56198565182527       -4.45999369380137        1.29510381216661
C           -3.41392887353051       -1.51453801215339        1.40374953464928
C           -2.92765950107379       -0.19789982489500        1.35481237674648
C           -2.18868521972384        2.35300265038505       -1.16812381741788
C           -1.27032999505283        1.23433524197077       -1.69478874158147
C            0.00028650620703        1.18829108037563       -0.91874331439486
N            0.62111931529757       -0.05210818328320       -0.54149806239676
C            1.98137099949796       -0.04931757794776       -0.15348411685789
C            2.92119841723310       -0.55843665904663       -1.27151316902071
C            4.34270996093352       -0.45705210275351       -0.84237624085324
C            5.05899541837394        0.71056576483695       -1.03308295315502
C            6.36832027723994        0.82088978617118       -0.59028681203814
C            6.97888604740069       -0.23625658667417        0.05854041112450
O            8.27040555306742       -0.24553737282345        0.52532391561059
C            9.05392232672792        0.89722407908591        0.31886412910111
C            6.25349495703241       -1.42527861874040        0.27461232435819
O            6.94178834510486       -2.41828613540400        0.92113726524534
C            6.29821822255990       -3.64585740975068        1.13429844979597
C            4.95022150985105       -1.51774686315145       -0.17028383379600
C           -0.09392644950448       -1.28530221260566       -0.61090608909566
C           -3.87561385215031        3.15521888099915        0.55333862147447
C           -4.50688495805301        2.90079322270981        1.92164259681255
C           -3.40479853801543        4.61082727085707        0.48260164725118
H           -4.64872058484946        0.92055714319535       -1.26558727680519
H           -6.78780108463138        0.27888565596448       -1.75646851118016
H           -7.13564040010165       -1.16622582635458       -2.73425289767426
H           -5.61777486437292       -0.27296935454114       -2.98619387397807
H           -4.77780023224277       -3.77985193904903        2.15560176311306
H           -5.31290016232695       -5.27726673206233        1.16410576212038
H           -3.59153477359598       -5.04032866607027        1.36541261109278
H           -3.03344745954986       -2.14579358604020        2.19296622997104
H           -2.18823138228074        0.12092781103766        2.07795643360479
H           -3.02328134522546        2.47650483024804       -1.86478204401480
H           -1.61576348241878        3.28443220591888       -1.17786671973553
H           -1.80394227009271        0.28668280319749       -1.62486823844580
H           -1.09178879771721        1.43238170433204       -2.76735715328042
H           -0.70150978250408        1.70775574742658        0.78442296814698
H            0.69019636569986        2.00673336698762       -1.03833134869059
H            2.10986048029138       -0.67623495511576        0.74019478772864
H            2.27354709376720        0.97048399047159        0.11259010882428
H            2.73932511542988        0.05148613349032       -2.15793066548760
H            2.65242751852233       -1.59091813565203       -1.50147492635915
H            4.59717916061345        1.54581263983563       -1.53851477822999
H            6.90444395224170        1.74031037820710       -0.76749921720039
H            8.63506887578646        1.77611320206067        0.82226610604713
H            9.17865558655297        1.11872265587346       -0.74752008073395
H           10.02499978276475        0.66314424981594        0.75326561075597
H            7.03640065769844       -4.27695705487051        1.62814683906082
H            5.42187112315401       -3.54060807717184        1.78356250134418
H            5.99410380176746       -4.11630969563274        0.19221666845945
H            4.37977451812161       -2.42028090643970       -0.01110672790271
H           -0.27506437540723       -1.61055651258803       -1.64587844998947
H           -1.06054381729844       -1.20228206432667       -0.10496492353615
H            0.49337005851347       -2.05126302405736       -0.10599937164989
H           -4.64933857049437        3.02015048854928       -0.21360353361390
H           -3.75870460556272        3.05138714406635        2.69332497189651
H           -4.87963644526727        1.88090556107185        1.98653471843913
H           -5.33527282257269        3.58736066240688        2.08649033538654
H           -2.61634250842431        4.78275683395280        1.20863903952637
H           -3.03626382029548        4.86973669440626       -0.50754451824316
H           -4.23841944121704        5.27344103520700        0.71350532999253
H           -0.63648492168457        2.96516794767773        2.71322012508198
72
 energy: 29.736615171965 xtb: 6.6.1 (8d0f1dd)
N           -1.56185462493334        3.07908811959432        2.22886994465534
C           -1.56982199141010        2.30264510634612        1.21338233253713
C           -2.75408636387326        2.14923971706098        0.27643555921241
C           -3.32457698213938        0.71871865831450        0.39922378905293
C           -4.29300713586738        0.22125236729606       -0.47706127850201
C           -4.77190551602352       -1.09871204695252       -0.43444572383072
O           -5.76841547841671       -1.50776031923895       -1.28740074939931
C           -6.32300650867320       -0.60180614317690       -2.20929318127686
C           -4.25060988988162       -2.09628583287516        0.46981056114678
O           -4.51523689570474       -3.56983085964639        0.21307912150980
C           -4.52066837917651       -4.60130141159708        1.25517986204252
C           -3.39773017504965       -1.51037496190322        1.42408084935788
C           -2.93916792748654       -0.17886099486724        1.38528852034547
C           -2.18736416227906        2.37698854118116       -1.15953391738185
C           -1.27747155864361        1.25438451946067       -1.69581155626247
C           -0.00242895147821        1.20818180473164       -0.93439238963039
N            0.60957448301778       -0.04775292684099       -0.53746215975087
C            1.96914192890618       -0.05064169092598       -0.15042403232362
C            2.91085557950155       -0.56497354705072       -1.26817115490601
C            4.33262247458122       -0.46622689173256       -0.83918350333062
C            5.05009159320710        0.70169766640572       -1.02690177408410
C            6.35992604983905        0.81127008717981       -0.58511130116256
C            6.97028375262021       -0.24917881813672        0.05847562888584
O            8.26488921298260       -0.26017224210437        0.52339286421369
C            9.04605405271845        0.88290589553753        0.31874303640993
C            6.24567065166733       -1.43766249425965        0.27162183893671
O            6.93451264440636       -2.43394909904088        0.91558314387137
C            6.28960053945477       -3.66034581528581        1.12569641352861
C            4.94137032840754       -1.52916110110344       -0.17186989703068
C           -0.11550781883040       -1.27332766691736       -0.60816229954547
C           -3.87796088933686        3.18951477671481        0.54202186270734
C           -4.51239685365990        2.95750589541910        1.91273281722791
C           -3.40839751697388        4.64667791804516        0.45116201126564
H           -4.64844865907400        0.90373586238938       -1.24089273654422
H           -6.75879135210069        0.28531683703233       -1.73228824597863
H           -7.11806155546369       -1.15861351094678       -2.70560829458472
H           -5.59471371222119       -0.27702097895676       -2.96176855504193
H           -4.72424928876258       -3.85726494371637        2.06185598432268
H           -5.31414905658460       -5.39047577414572        1.12421794990890
H           -3.59812929117561       -5.27883178046715        1.36073525965201
H           -3.01514083867731       -2.11514376659019        2.23510714199436
H           -2.21399657927879        0.15825392190099        2.11725266773273
H           -3.02115535495120        2.51677520893122       -1.85445578896062
H           -1.60268327411161        3.30181352471351       -1.16416572824739
H           -1.80889587287009        0.30694387789301       -1.62260711948535
H           -1.11748307038132        1.45496164714078       -2.77202971350805
H           -0.70775534111418        1.73829820694552        0.84408328889964
H            0.70660525909742        2.00632344601011       -1.06882434847558
H            2.10132723700930       -0.67909646744134        0.74373799608136
H            2.26550999014812        0.96735206555227        0.11624534131611
H            2.72890195015767        0.04396050134471       -2.15516791303265
H            2.63884604558371       -1.59726456683207       -1.49627211861310
H            4.58623507857602        1.53833530652950       -1.52835375960131
H            6.89466939394074        1.73207105713013       -0.75808924780629
H            8.62820446872809        1.76061972521822        0.82549080085877
H            9.16885695098717        1.10849716542121       -0.74732202711483
H           10.01904385766291        0.64967781294908        0.74994777638274
H            7.02744942746486       -4.29492200336294        1.61591320003612
H            5.41459793453265       -3.55637166960453        1.77714799388982
H            5.98256942054068       -4.12759411724742        0.18281548700374
H            4.36954502321737       -2.43086443544918       -0.01390798713597
H           -0.29842614049424       -1.60224289056783       -1.64212766091089
H           -1.08224656980902       -1.18458531014485       -0.10361419855400
H            0.46262303669138       -2.04652069670526       -0.10060649840647
H           -4.64894392728260        3.04508342434844       -0.22633948871564
H           -3.76348342995279        3.12132651431487        2.68065274023857
H           -4.88392959800916        1.93830860410517        1.99218587703642
H           -5.34032357658260        3.64662286342263        2.06665389070192
H           -2.62450207707498        4.83053149842094        1.17900322288628
H           -3.03587057078492        4.89422753400012       -0.54034088709130
H           -4.24429972127502        5.31108346730960        0.66900200989989
H           -0.65038469491361        3.05423746646749        2.69566477860019
72
 energy: 44.227487840303 xtb: 6.6.1 (8d0f1dd)
N           -1.57507734853348        3.14065185640520        2.21422445351806
C           -1.57839180165479        2.35618288560334        1.22322463798906
C           -2.75894153740839        2.17099475962882        0.28385248927798
C           -3.32408701321166        0.73151392190313        0.41787815599023
C           -4.28074906661981        0.20550847255729       -0.45515919684189
C           -4.74008822580177       -1.12980860146114       -0.41529614146526
O           -5.74879557513167       -1.51157288347031       -1.26111352774448
C           -6.29971322676718       -0.60133598340513       -2.18228946117731
C           -4.19921468484977       -2.13556903752559        0.47739236400337
O           -4.36450308240817       -3.66991206248546        0.18200279397315
C           -4.48225223891948       -4.73763864048214        1.22401107059408
C           -3.37522681821851       -1.51107546696093        1.43707353338759
C           -2.94459724192423       -0.16635655369780        1.41041136877524
C           -2.18507257433007        2.40020308264079       -1.15040247912700
C           -1.28591300204162        1.27024828146020       -1.68961153537385
C           -0.00117964967486        1.21210799703615       -0.95436747997318
N            0.59021349135466       -0.03031336857708       -0.54171154214202
C            1.95581406891436       -0.04702483935751       -0.14656623302449
C            2.89563821619404       -0.57024453098853       -1.26426812902270
C            4.32139464492636       -0.47396529128469       -0.83226385697818
C            5.03983039582334        0.69347407714845       -1.01923435690297
C            6.35117177447870        0.80177263386351       -0.58007523731108
C            6.96295926116581       -0.26192722259914        0.05843955001722
O            8.25467387254916       -0.27383565395874        0.51999749844197
C            9.03794186865593        0.86901256981180        0.31860968695391
C            6.23786990225441       -1.45197576750937        0.26868075330498
O            6.92448086149824       -2.44812100382715        0.90822182935579
C            6.28066364369057       -3.67548024133815        1.11656480583033
C            4.93105097411361       -1.54072910383360       -0.17226687899747
C           -0.13839558654219       -1.25839764644261       -0.60614370658793
C           -3.88005863322836        3.22350685364241        0.53219539182422
C           -4.51728496529427        3.01354864600664        1.90378242329223
C           -3.41083143261638        4.68088869892494        0.41949934213393
H           -4.64859834911711        0.88403477097954       -1.21690077336500
H           -6.73019301453240        0.28974910652719       -1.70753104697288
H           -7.09973627013422       -1.15244792370536       -2.67622568390785
H           -5.57161467170246       -0.28219651701795       -2.93748459498048
H           -4.67183216138889       -3.95912585921212        1.97434761184038
H           -5.30590076368084       -5.49604220949090        1.07127668070416
H           -3.61675409889044       -5.47891527216632        1.34813009011337
H           -2.99659351965534       -2.08418751239657        2.27499014778139
H           -2.24129042039896        0.18929518751401        2.15830816043811
H           -3.01584040063089        2.55464387569984       -1.84371582388302
H           -1.59065520588980        3.31864700281966       -1.14921345999312
H           -1.81826681531969        0.32540898858625       -1.61939275033842
H           -1.13331917916389        1.47624412719777       -2.76471941451228
H           -0.71180479521004        1.77112802749478        0.89674783918609
H            0.71735511234967        1.99979090328164       -1.08855235644678
H            2.08559253539418       -0.67981853156578        0.74481787701615
H            2.26103118154850        0.96672408736688        0.12095283763419
H            2.71964161485769        0.03639374873960       -2.15380532489217
H            2.62480588143470       -1.60300624589207       -1.49028522230609
H            4.57543655178202        1.53156671628998       -1.51791288936911
H            6.88425490409651        1.72344816677387       -0.74927641327167
H            8.62170906527142        1.74501932126361        0.82939232436817
H            9.15924736502786        1.09813644920164       -0.74670548830290
H           10.01211094512882        0.63513852300576        0.74687285040733
H            7.01871177112824       -4.31248645397572        1.60292892263508
H            5.40758645768825       -3.57284039439743        1.77088868009403
H            5.97138093270959       -4.13942709566325        0.17303248867983
H            4.35937351853755       -2.44249039067839       -0.01672217205861
H           -0.32071386322671       -1.59047170783156       -1.63727863164253
H           -1.10443360081679       -1.16635599126189       -0.10187528759796
H            0.43281506656738       -2.03661091689136       -0.09659476219237
H           -4.64693279123048        3.06827356568530       -0.23765253916480
H           -3.77103336483178        3.19202791045562        2.67047961122071
H           -4.88869309873289        1.99624755492905        1.99859787899398
H           -5.34433355060007        3.70509388109092        2.04541083017092
H           -2.63303877918178        4.88112842161425        1.14970576837641
H           -3.03599794864377        4.91874810731866       -0.57289974271969
H           -4.24928051825273        5.34569162118805        0.62400653727750
H           -0.66562579986802        3.14880295663908        2.68105118311070
72
 energy: 58.942330377708 xtb: 6.6.1 (8d0f1dd)
N           -1.57737655684989        3.21542420927300        2.18679079899895
C           -1.59065187237070        2.38886486987009        1.23432288439996
C           -2.76270675230626        2.18624352120542        0.29188981801172
C           -3.32049564993646        0.73836170011690        0.43610150665722
C           -4.26241352524791        0.18799702074666       -0.43663159320715
C           -4.70426482499898       -1.16103997182211       -0.40291001792710
O           -5.72220163453248       -1.52037547552779       -1.23666269079646
C           -6.27485051966823       -0.60419722063305       -2.15452938230485
C           -4.14357582418242       -2.16986945337375        0.48263490180490
O           -4.21973213041116       -3.75621590013416        0.16980203110422
C           -4.44203125852682       -4.86957866588769        1.19134790510008
C           -3.34774010432577       -1.51448730381760        1.44999588409017
C           -2.94311564935796       -0.15827525191977        1.43379895953577
C           -2.18096724358139        2.41887616167629       -1.13842561511464
C           -1.29297864566034        1.28341743101446       -1.68149063659962
C            0.00439377373783        1.20239880484127       -0.97169460711556
N            0.56733781385618       -0.00623675189455       -0.54769490665476
C            1.94029369599579       -0.04128324828079       -0.14361037288620
C            2.87700176406414       -0.57357445121835       -1.25842475448719
C            4.30745086654923       -0.48032438357809       -0.82361153585804