72
 energy: 0.000000000000 xtb: 6.6.1 (8d0f1dd)
N           -1.47310921155849        2.74401293103706        2.22063921685122
C           -1.55658879776851        2.16490285539332        1.13274273951491
C           -2.74549199786261        2.05621232186130        0.23826248438941
C           -3.31377553111525        0.64333411542669        0.32332512650568
C           -4.30230156009016        0.24487110156316       -0.58026161703006
C           -4.85238763031941       -1.02286490450319       -0.53363588718165
O           -5.81419972815119       -1.48606034185536       -1.36157882725342
C           -6.39655633239252       -0.60827000183299       -2.29568474302620
C           -4.39972501531283       -1.94646102182611        0.44396929121966
O           -4.98748311285188       -3.16145997157803        0.41085992006324
C           -4.66362127904578       -4.10093827755394        1.40909127743729
C           -3.42072513477031       -1.54561384810496        1.33436546260297
C           -2.88302799614223       -0.26315800396994        1.27400150770375
C           -2.19303798107274        2.30467000305896       -1.18742977106749
C           -1.26651538239283        1.17243369445008       -1.65249429687285
C            0.01082524939134        1.09745454476277       -0.89354803499847
N            0.61779393476578       -0.02034948052406       -0.57705522512502
C            2.00145210352228       -0.02376006389122       -0.15611399603240
C            2.92554934655222       -0.53865282675074       -1.27700088804721
C            4.35756843073516       -0.43050757231754       -0.83075544324989
C            5.07346135469827        0.73206409086248       -1.03980965825901
C            6.38627986649936        0.84224441421807       -0.60344822702769
C            7.00047264773336       -0.20824756335880        0.05722314418200
O            8.26703657141718       -0.21011313101264        0.52410943644933
C            9.06912227848686        0.92943601033931        0.31863058007678
C            6.27039964270142       -1.40439753960823        0.28033466008274
O            6.94829939911432       -2.38012925705718        0.92751999079483
C            6.31537317745639       -3.61583200086742        1.15217711710877
C            4.96302794628964       -1.49347471867959       -0.16064430359178
C           -0.05511211367372       -1.29906247805359       -0.62085686319744
C           -3.86758037025447        3.07992600430699        0.58498060215443
C           -4.49286159663096        2.77383493050346        1.94313289484366
C           -3.39165179876499        4.52917666589254        0.54797523472093
H           -4.66030026466202        0.94509067363451       -1.31640568823548
H           -6.85037928558380        0.25803162192116       -1.80468845313260
H           -7.17287442604349       -1.18600110843259       -2.79318157561361
H           -5.66836817451085       -0.26952966318766       -3.04040255244073
H           -4.88416720672258       -3.71589460520039        2.40913542187496
H           -5.29223570620378       -4.96637458756866        1.20969236903657
H           -3.61139813139015       -4.39919835331056        1.35529357841967
H           -3.07077796610445       -2.21868765711333        2.10002662693138
H           -2.14562754426994        0.02067850696302        2.01001344383370
H           -3.02188875377605        2.38238012313952       -1.88813545054866
H           -1.65198530896729        3.25146700677685       -1.20556284570283
H           -1.81103374245520        0.23006524641044       -1.62116301628650
H           -0.99335688527853        1.37490212198123       -2.69443256973690
H           -0.67628064361333        1.65183887049447        0.61785727145403
H            0.63525841192517        1.98466369793744       -0.92314021190751
H            2.11132552493482       -0.65949692842762        0.72532613231274
H            2.30680473056284        0.98978251704176        0.11078972794250
H            2.76694198818247        0.06750735147374       -2.17075252200790
H            2.67954581369920       -1.57455627803457       -1.51167743520200
H            4.62169998552446        1.56295612048703       -1.56123579000624
H            6.92357674630170        1.75715815945204       -0.79119596719031
H            8.65159112996149        1.81001823324363        0.81701555159939
H            9.20136171144928        1.14042857828877       -0.74698991949293
H           10.03428838009630        0.69003240176163        0.76064937965836
H            7.05567174969094       -4.23621171795340        1.65347565939075
H            5.43848001056755       -3.50813558175093        1.79970565785717
H            6.02060041905269       -4.09420497120334        0.21253282636366
H            4.40102758497114       -2.40127266373392       -0.00490198249042
H           -0.22071299714579       -1.61775583601871       -1.65116008982042
H           -1.01972258008625       -1.24102717432227       -0.10935206830928
H            0.55899954147532       -2.04486085926761       -0.12333730421426
H           -4.63991875734388        2.95501092798550       -0.18098088071825
H           -3.76095216473977        2.90314704960906        2.73380821053058
H           -4.87457614030224        1.75695641518947        1.97884603101694
H           -5.31925552549014        3.45579210326349        2.12325564252114
H           -2.60025590131176        4.69225046143352        1.27368918226171
H           -3.03987406413880        4.81897652321898       -0.43870975059559
H           -4.22191740670577        5.18069648090034        0.80616693961239
H           -0.59832433787845        2.77744694953323        2.72958984441332
72
 energy: -5.377518765061 xtb: 6.6.1 (8d0f1dd)
N           -1.48790603050628        2.79153251657164        2.23761999178376
C           -1.55892819961870        2.16375611773465        1.15697687818746
C           -2.74316869512768        2.06113739034062        0.24630147624890
C           -3.31751583377598        0.64783469472770        0.32675359465135
C           -4.30513676813661        0.24331335180629       -0.57614989760804
C           -4.85341787890305       -1.02563945580565       -0.53191157133118
O           -5.82040442741600       -1.49304228883784       -1.36299729004129
C           -6.39876108119706       -0.61477027946321       -2.29690353538671
C           -4.40357871950800       -1.94802012536887        0.44353737069989
O           -4.99589618857267       -3.16919118092470        0.41037164983962
C           -4.66969261405131       -4.10536513492056        1.40872547297973
C           -3.42769765661344       -1.54568802641980        1.33505323792455
C           -2.89160173110927       -0.26210798319472        1.27652433003274
C           -2.19018398696257        2.30488679512552       -1.18283528595509
C           -1.26079154427180        1.18520256104439       -1.67294631636841
C            0.01168268440465        1.12213623098842       -0.89690409443097
N            0.63183868694837       -0.04064065337093       -0.56418584430752
C            2.00729594316016       -0.04006709785371       -0.15658348248165
C            2.93558721498145       -0.54209186312359       -1.28020235349380
C            4.36374091627584       -0.43470572843554       -0.84238694289791
C            5.07788492774000        0.73113231419267       -1.04344423211455
C            6.38778041107274        0.84264615137860       -0.60132829943542
C            7.00105778996993       -0.20855620092514        0.05886680643978
O            8.27553730139483       -0.21182258299513        0.52771984516941
C            9.07093434808268        0.92915367134012        0.31955629183782
C            6.27225188201495       -1.40266047140083        0.28063720911684
O            6.95298062346823       -2.38260906590400        0.93077136660946
C            6.31563639189226       -3.61537604034272        1.15219613103624
C            4.96833937296433       -1.49463518133426       -0.16557262425955
C           -0.05091608211916       -1.30658429667301       -0.62104643880356
C           -3.86962484584227        3.07955473130639        0.58117125662547
C           -4.48866973558526        2.77563157916026        1.94267725486433
C           -3.39754327193476        4.53061366319793        0.54819302773033
H           -4.65851469519950        0.94007975713954       -1.31798942909588
H           -6.85103006361482        0.25338688008938       -1.80677972821376
H           -7.17595209525286       -1.19147575298548       -2.79562248795002
H           -5.66910452405456       -0.27592424929829       -3.04018688931599
H           -4.88852161427410       -3.71930269414559        2.40939569823694
H           -5.29805448483070       -4.97217305470368        1.21140721443912
H           -3.61697793482014       -4.40280042849766        1.35566214341307
H           -3.07401899896627       -2.22228167752243        2.09720536943711
H           -2.14702133985912        0.01815830425872        2.00527120687345
H           -3.02045521648298        2.39272123920593       -1.88401732652048
H           -1.64241444015205        3.24839729326452       -1.20016353775789
H           -1.80366839828235        0.24176170578648       -1.61970667835137
H           -1.02292636914573        1.38139278458255       -2.72760592925614
H           -0.67873385315740        1.66525358763517        0.65290124843315
H            0.65099548624511        1.99329155115010       -0.95809552452811
H            2.12292331003079       -0.67322314705725        0.72740744031091
H            2.30109437873996        0.97731548422472        0.11132235577169
H            2.76509823120492        0.06943588695595       -2.16780765415340
H            2.68317147670526       -1.57606699341883       -1.51606017621498
H            4.62289268009974        1.56311313336009       -1.56017650166219
H            6.92524899134975        1.75861368626459       -0.78706804573321
H            8.65110515797641        1.80976010126350        0.81701297794536
H            9.20033097226764        1.14102035970689       -0.74686875586773
H           10.03764162815837        0.69265723230835        0.76043076609743
H            7.05402882462261       -4.23855064797942        1.65383813208644
H            5.43716815795403       -3.50669244187320        1.79761029367942
H            6.01924911995097       -4.09216157247311        0.21180181014271
H            4.40326020781039       -2.40023205111566       -0.00659034172858
H           -0.22042511848623       -1.62107338696851       -1.65551322694111
H           -1.01734225679392       -1.24098353779193       -0.11300671236295
H            0.55616288638461       -2.05782127816834       -0.12330993215373
H           -4.64409101454975        2.95763461371529       -0.18446515889578
H           -3.74792527910846        2.90587678962769        2.72535836880752
H           -4.86116604016513        1.75518849955471        1.97864634472094
H           -5.31865116543012        3.45351246843617        2.12783034318752
H           -2.60404481665851        4.68855164218329        1.27262958147951
H           -3.04332983920269        4.81883920209622       -0.43825861073332
H           -4.22910718782643        5.18238870170036        0.80697193993457
H           -0.60610877344158        2.79674473481408        2.74082075769733
72
 energy: 3.783991328749 xtb: 6.6.1 (8d0f1dd)
N           -1.67835408904271        3.24776741993104        2.20940958905153
C           -1.57442324776082        2.36141242239790        1.30952616800344
C           -2.71521674749870        2.08208713621444        0.31482637826595
C           -3.30643856466316        0.63523485201528        0.32347902849143
C           -4.30293483430424        0.20973030640405       -0.58110257599079
C           -4.89285618405054       -1.05109445007839       -0.50831376661777
O           -5.86809123859512       -1.54887886573059       -1.33606953380545
C           -6.43522394837173       -0.74470315553755       -2.33176041435055
C           -4.49763889242798       -1.97982066712474        0.47892698188525
O           -5.13322644992568       -3.19840802454996        0.45112630513465
C           -4.83023520977307       -4.16766127211225        1.41986047772328
C           -3.50639763994511       -1.58259246293900        1.35915795357759
C           -2.93899613422910       -0.30937715200296        1.28015522061650
C           -2.06237009782854        2.41206614281340       -1.05554213442194
C           -1.21862975564279        1.23912410960657       -1.60388299600767
C            0.14843387824624        1.14854640724361       -1.02618598400095
N            0.64738215947840       -0.08475231736890       -0.54002114672232
C            2.04023127997648       -0.16612704086955       -0.17651978662452
C            3.00039254470909       -0.55150267163696       -1.35585166174121
C            4.42900955679004       -0.44683445186549       -0.89116165203435
C            5.15303309564026        0.72133361930863       -1.05620871728719
C            6.45163764603467        0.83955345394272       -0.57813924824125
C            7.06022188080542       -0.22245019764013        0.06821881464931
O            8.33921018086733       -0.20903952243457        0.55620585957499
C            9.10245127451896        0.94488811730097        0.33774134317235
C            6.33564010768345       -1.41615048629048        0.25641488963753
O            6.98544811666933       -2.40748967174780        0.93616692305350
C            6.30060141780012       -3.61244289293346        1.14115956125908
C            5.03927512878740       -1.51186137146599       -0.22700778694043
C           -0.08087090914453       -1.31079917374028       -0.73519278146402
C           -3.87803688320413        3.06968287900802        0.58805556212304
C           -4.40709779462885        2.76592507943269        1.98533603571199
C           -3.51786996338615        4.56213069455488        0.49959925974348
H           -4.63697999007003        0.86927168538171       -1.36928504016724
H           -6.90718091494722        0.15048106545461       -1.90831830902902
H           -7.20419207519537       -1.35361505465784       -2.81288708337697
H           -5.69787466315084       -0.45285815239059       -3.08893801990060
H           -5.03772719793348       -3.81534266717499        2.43688989673850
H           -5.47733809027523       -5.02464910703015        1.21574615698246
H           -3.78800382995247       -4.50623669747909        1.36007967232348
H           -3.17128919799240       -2.26651997362529        2.12242059481280
H           -2.19405028781715       -0.04914006742157        2.01877458707812
H           -2.86970214882666        2.66596332812183       -1.75867944830531
H           -1.41965318756202        3.30157784501153       -0.95966772890483
H           -1.76643757215394        0.31326833446909       -1.45584459765099
H           -1.17818662471943        1.41024286912612       -2.69318284786432
H           -0.64018517320030        1.78981733996861        1.17128119733576
H            0.95195857360099        1.83178491375365       -1.30291897432002
H            2.20691661818458       -0.91903725089618        0.62284828605301
H            2.36044813782679        0.80531898852503        0.22433406423097
H            2.81453722496324        0.13379400055165       -2.18592019856073
H            2.77957364060673       -1.57219140716814       -1.69140645337396
H            4.69804522705167        1.55854955004745       -1.56356282135958
H            6.96744003596561        1.77790274960864       -0.70224996873439
H            8.67255075990430        1.81800703444014        0.84219184564867
H            9.20808267303064        1.16309068599826       -0.73187848002443
H           10.09012066447680        0.74915660791173        0.75586278922069
H            6.99529751436107       -4.27497598038310        1.65707096125574
H            5.41086101122336       -3.47031602118159        1.76685220589513
H            6.00582291721345       -4.07190409152373        0.19125753376604
H            4.46943318387298       -2.41729953286911       -0.09359872192226
H           -0.18581543424241       -1.58639645844421       -1.79538886631728
H           -1.08304138622422       -1.24568933854321       -0.29746119242380
H            0.43435601188149       -2.13663052517339       -0.22575712690993
H           -4.64470960712363        2.86876758251975       -0.17202652299068
H           -3.61268757869660        3.04128339133258        2.68118693656000
H           -4.61679051894357        1.69567513900948        2.08877776116216
H           -5.30085282530237        3.33862193660707        2.20805384102525
H           -2.74464329057480        4.79235951228741        1.22639335237039
H           -3.19038508838144        4.87244541117106       -0.48903015457094
H           -4.40265595915136        5.14223425393226        0.75626000841006
H           -0.75122204244786        3.43498214557248        2.64180102853423
72
 energy: 10.801575351463 xtb: 6.6.1 (8d0f1dd)
N           -1.70728603717003        3.38925029017384        2.17642630150467
C           -1.57599880218724        2.39806578351055        1.35103385825734
C           -2.70333796136547        2.08199155846128        0.33656916823919
C           -3.30386616817880        0.62994241722472        0.32648340216246
C           -4.30039426486265        0.20142715357594       -0.58216769740995
C           -4.90198723333448       -1.05676070888668       -0.50316252607897
O           -5.87764630216300       -1.56061435274400       -1.32770613885530
C           -6.44479842404059       -0.77940262507867       -2.34195180702413
C           -4.52091669331357       -1.98798728262476        0.48869491198563
O           -5.16913500252724       -3.20076740494349        0.46307903432417
C           -4.87578676719687       -4.18299051500459        1.42254943899407
C           -3.52541129513081       -1.59291842312170        1.36611471107618
C           -2.94952557533588       -0.32268026920922        1.28317866332875
C           -2.02081608550614        2.43619385827438       -1.01533032536866
C           -1.20221278656925        1.25160181013791       -1.58425159870841
C            0.19165817149776        1.13885801238958       -1.07121261895861
N            0.64598356369391       -0.09117816027040       -0.53336081514839
C            2.04692217461378       -0.19813748483907       -0.18235040178198
C            3.01444839329356       -0.55069010153641       -1.37436833940481
C            4.44445798990876       -0.44766635464323       -0.90172773536572
C            5.17075988212126        0.72086077405099       -1.05771972498649
C            6.46686426736722        0.83921441169425       -0.57206698058199
C            7.07554526276360       -0.22543963191500        0.07072514432942
O            8.35245402914289       -0.20717685665226        0.56290236958708
C            9.11082692584894        0.94962494405778        0.34282800988196
C            6.35077786497272       -1.42037663098281        0.24942264589348
O            6.99138361084511       -2.41372828167027        0.93417222868535
C            6.29565796501639       -3.61277568762839        1.13649321891735
C            5.05567668985140       -1.51512393903158       -0.24211941750976
C           -0.08884889329366       -1.31184621886099       -0.76696413255366
C           -3.87716306339160        3.06406504472328        0.59408088402775
C           -4.38667664775613        2.76364648410244        1.99979823677411
C           -3.55317122666636        4.56849827544115        0.48691243946693
H           -4.63010845629810        0.85128574574487       -1.38181245694765
H           -6.92352932759133        0.12262115732823       -1.93876802663966
H           -7.21036816067791       -1.40077453098250       -2.81487315195801
H           -5.70665979640174       -0.50137617885502       -3.10413064296382
H           -5.08046301891407       -3.84181480116240        2.44426136651410
H           -5.53027203186944       -5.03422114121281        1.21221439183952
H           -3.83727834065109       -4.53418858496323        1.36004857878611
H           -3.19809760303431       -2.27783949544299        2.13185506012191
H           -2.20457310016954       -0.06858359074755        2.02457042539199
H           -2.81533519265154        2.73555792022613       -1.72258805718724
H           -1.35585784594055        3.31027819588687       -0.88817073839434
H           -1.75833733034474        0.33490193538510       -1.40611146937465
H           -1.20712819994244        1.41478735788435       -2.67899561400791
H           -0.63066466089202        1.82506350108482        1.29677169684843
H            1.02537579531078        1.78011857918610       -1.38738279630819
H            2.21416766445408       -0.98160110971239        0.59118159560354
H            2.37672968103744        0.75802801576053        0.25425325572226
H            2.83011898406629        0.15311080097595       -2.19059933404878
H            2.80402966757508       -1.56660616644323       -1.73629478240552
H            4.71847922621549        1.56004535492149       -1.56411380729401
H            6.97805151629643        1.78185267342412       -0.68254565789148
H            8.67977629428722        1.82059045183690        0.85036225356678
H            9.21053358381436        1.16965477413058       -0.72721359512510
H           10.10276186398004        0.76125516940889        0.75512073125837
H            6.97967627348427       -4.28375441380844        1.65651235325413
H            5.40359950571280       -3.46152368093955        1.75752364941917
H            6.00170042684699       -4.06886574725096        0.18480213153362
H            4.48705840131720       -2.42254774662091       -0.11802639044527
H           -0.17148749396313       -1.57054098253944       -1.83492413788103
H           -1.10140964271219       -1.24773764319960       -0.35067430475224
H            0.40465376294947       -2.15230743970104       -0.25555080983105
H           -4.64164417895910        2.84003530660116       -0.16327399951101
H           -3.59058351793157        3.07893267538649        2.68079816329658
H           -4.55225374645751        1.68282306992158        2.12078463858737
H           -5.29984769249771        3.30513805650590        2.22731823735299
H           -2.78672947399870        4.82849325878483        1.21261894574194
H           -3.23485660096740        4.88285002070547       -0.50345627486956
H           -4.45479765234288        5.12654557786419        0.73995126630193
H           -0.79096795022347        3.61462460339771        2.61603922711756
72
 energy: 9.826489019025 xtb: 6.6.1 (8d0f1dd)
N           -1.65504169903937        3.46684757425723        2.08417542551884
C           -1.56079219019531        2.40482485479991        1.36285328053454
C           -2.67822906846023        2.07620428501922        0.35663465417920
C           -3.29806436061536        0.62652529856745        0.33660299969579
C           -4.29343471512181        0.20055754909495       -0.57900402169111
C           -4.90032048207081       -1.05600433622654       -0.50509530958776
O           -5.87392025184658       -1.55556928512271       -1.32128678527889
C           -6.44992556575887       -0.79340049582779       -2.34764282444125
C           -4.52256192847766       -1.99176425091125        0.49054231202788
O           -5.18173236010034       -3.18671856221357        0.47075020576446
C           -4.89886422748506       -4.18706177702032        1.42070422460634
C           -3.52845006314041       -1.59723024936979        1.36762569586298
C           -2.94851625430319       -0.32838012045837        1.28847728565438
C           -1.97156648828412        2.43381956090003       -0.97921263512629
C           -1.16960697109837        1.25717591627284       -1.58767339614589
C            0.24503613303144        1.06711376005338       -1.17099975397400
N            0.61404318723953       -0.07133393304767       -0.49410367467534
C            2.03729759321927       -0.20381425266704       -0.18034225568319
C            3.00404469975078       -0.53853891116517       -1.36744705407779
C            4.44045047320098       -0.44015637245490       -0.89882476457099
C            5.16718804808202        0.72674048374646       -1.05381157983204
C            6.46423511671518        0.83909020754562       -0.57142070370107
C            7.07817997989641       -0.22360737265039        0.07143268874182
O            8.34560987001714       -0.20196512543055        0.56378686048127
C            9.11342537214575        0.95430610312524        0.34441793912074
C            6.34894264760496       -1.42189685732495        0.24485354579155
O            6.98472936589201       -2.41408900662625        0.92282910710697
C            6.29046104226978       -3.61605945756598        1.12888932788870
C            5.05227534878487       -1.50962293640748       -0.24427095369337
C           -0.09380669258178       -1.31288109798917       -0.76946865311696
C           -3.86509655204169        3.05757817125617        0.60718826744846
C           -4.37713457556152        2.76480779440347        2.01341439343775
C           -3.57924427223763        4.56785201767110        0.48289376131862
H           -4.62686319818338        0.84359800288958       -1.38216165037267
H           -6.93536005829722        0.10851527754740       -1.95943180872415
H           -7.21027177231688       -1.43143880516916       -2.80559716947229
H           -5.71526755621468       -0.52341649177139       -3.11398073008639
H           -5.10223634923330       -3.85786967913007        2.44543088408061
H           -5.56227817389116       -5.02671576402924        1.19400765592807
H           -3.86437251497807       -4.54464050450854        1.35285686313223
H           -3.21026767294855       -2.28185699082711        2.13903143955857
H           -2.20195950982616       -0.08367561921593        2.02922291260238
H           -2.73956196713988        2.75172146636839       -1.69422117292035
H           -1.31333552275585        3.29714828086954       -0.83672239565575
H           -1.74959935730923        0.35993230132530       -1.36093850048713
H           -1.20620502808311        1.41059943201854       -2.67828190466052
H           -0.63904078885397        1.83585794967296        1.35754152558509
H            1.05236177645521        1.72091860911682       -1.44759932667103
H            2.16517902308953       -0.98882611723046        0.57051965038011
H            2.37630517099039        0.73519511646463        0.26413682350624
H            2.83571834695211        0.16605721387314       -2.18441705469660
H            2.80329731354310       -1.54705670409137       -1.73682866402344
H            4.72539638922621        1.57012150822980       -1.56264335495893
H            6.97795862429670        1.77840682167424       -0.68505842982979
H            8.68679521597928        1.82426711255565        0.85646720883457
H            9.21018821454641        1.17481951956091       -0.72471688394898
H           10.10265088802515        0.75628731215047        0.75468278944324
H            6.97438338631268       -4.28301961088459        1.65085586549557
H            5.39957958743041       -3.46151518681765        1.74950400963131
H            5.99767713807104       -4.07460199886895        0.17875851602861
H            4.49260473219759       -2.42392379834709       -0.12801795108439
H           -0.14404598226713       -1.53567955631914       -1.84543896200145
H           -1.11471378009207       -1.25814525525157       -0.37872746759163
H            0.40312660660115       -2.13877393014159       -0.26431841512476
H           -4.62753049183762        2.81822185632820       -0.14391319983244
H           -3.61911126938646        3.09777646734800        2.71223085847789
H           -4.52112797231522        1.69157470589346        2.13705826048870
H           -5.30585818767273        3.28033119111809        2.23015104029642
H           -2.82104082289957        4.86579522877231        1.20033461108696
H           -3.26591389021040        4.87510604475383       -0.51054999229902
H           -4.49480134887577        5.10589745562578        0.72654142751981
H           -0.82017016469557        3.67894879915834        2.60925141090186
72
 energy: 14.523403212793 xtb: 6.6.1 (8d0f1dd)
N           -1.67302955086937        3.52467842720385        2.09510312059423
C           -1.55912507795062        2.46090459248921        1.39870979724362
C           -2.66072969357504        2.09197203913489        0.37825151091194
C           -3.28095471088748        0.62753404674958        0.34394365421423
C           -4.28123617183238        0.19639579438929       -0.57099848477888
C           -4.89975199854018       -1.05655921439391       -0.49684228147007
O           -5.87830274843121       -1.56567908252793       -1.31314275106143
C           -6.45484347005426       -0.82808686680517       -2.35769394226212
C           -4.53851558045906       -1.99123290694892        0.50316504533185
O           -5.21739642271610       -3.18387091617103        0.48172823023412
C           -4.94858271095318       -4.19660627240003        1.42296440782148
C           -3.54556961420365       -1.60068310273537        1.37998870287600
C           -2.95155590392549       -0.33580954744063        1.29849235634662
C           -1.92659988413411        2.46278695854951       -0.94783217135430
C           -1.15074414937885        1.27554804755485       -1.58320835960241
C            0.27123914785237        1.06055623683303       -1.19594821519312
N            0.63078992076494       -0.09189373692311       -0.48726791202782
C            2.04611921319557       -0.24091658929319       -0.18416990535377
C            3.01882872403015       -0.53793635912263       -1.37691305927586
C            4.45015331924866       -0.43929567959525       -0.91090462724361