25
 energy: -42.102457028622 gnorm: 0.004132944538 xtb: 6.6.1 (8d0f1dd)
C            2.07846044645730        1.54950277139319       -0.32309730276997
N            1.69215253255897        0.16103694851697       -0.30252465218211
C            2.50670924800189       -0.81157097290485       -0.68052669828475
N            1.93665023914264       -1.99424405671450       -0.47152927142807
C            0.67338500948607       -1.82776510198137        0.11205526890722
C            0.51728196905515       -0.39273543305153        0.19712389301193
C           -0.57706676888069        0.30617444512484        0.79618232703990
O           -1.40361770235434       -0.20372227469087        1.53160843908004
N           -0.65732191679962        1.71441572749744        0.54539197422499
C           -1.13540891322138        2.17069850886966       -0.75375135099311
C           -2.54698069451375        1.90815125418504       -0.90400948328090
O           -3.61085659626321        1.57799093245891       -0.59285897249723
N            0.02095015665739       -2.89051368530974        0.37935669234541
C           -1.24034489253053       -3.09867966611268        0.96669838183908
H            1.59098781437820        2.08018901105899        0.49125663479612
H            3.15837035604104        1.62063747590107       -0.20487284644134
H            1.80520993922935        2.01822687466978       -1.26978137104736
H            3.48878436076299       -0.66000331324215       -1.08622829245568
H           -1.19781985480342        2.13520092015052        1.29967488203124
H           -0.58164484521864        1.67403588827847       -1.55861355872537
H           -0.96598420467855        3.25335186337729       -0.83856251233399
H           -1.13366151742619       -3.90941252531714        1.69200571773968
H           -1.93497134486507       -3.44291449385021        0.19521554150334
H           -1.65240758578763       -2.21297231121225        1.45856699377927
H            2.32957627967128       -2.90684024549544       -0.64760881595629
