72
 energy: 0.000000000000 xtb: 6.6.1 (8d0f1dd)
N           -1.47310934822924        2.74401318561852        2.22063942287560
C           -1.55658894218425        2.16490305624665        1.13274284460745
C           -2.74549225258129        2.05621251263064        0.23826250649470
C           -3.31377583855761        0.64333417511334        0.32332515650284
C           -4.30230195924506        0.24487112428158       -0.58026167086503
C           -4.85238808050968       -1.02286499940159       -0.53363593669082
O           -5.81420026757557       -1.48606047972767       -1.36157895357670
C           -6.39655692584623       -0.60827005826649       -2.29568495601309
C           -4.39972542350640       -1.94646120241305        0.44396933240983
O           -4.98748357557592       -3.16146026488900        0.41085995818162
C           -4.66362171172287       -4.10093865802695        1.40909140816864
C           -3.42072545213514       -1.54561399150247        1.33436558640148
C           -2.88302826362110       -0.26315802838497        1.27400162590187
C           -2.19303818453636        2.30467021687947       -1.18742988123374
C           -1.26651549989641        1.17243380322503       -1.65249445018642
C            0.01082525039567        1.09745464658138       -0.89354811789923
N            0.61779399208289       -0.02034948241203       -0.57705527866251
C            2.00145228921113       -0.02376006609561       -0.15611401051620
C            2.92554961797610       -0.53865287672537       -1.27700100652360
C            4.35756883501756       -0.43050761225877       -0.83075552032494
C            5.07346182539911        0.73206415878124       -1.03980975472950
C            6.38628045899965        0.84224449235903       -0.60344828301384
C            7.00047329721665       -0.20824758267940        0.05722314949100
O            8.26703733840855       -0.21011315050632        0.52410948507466
C            9.06912311989339        0.92943609656965        0.31863060963839
C            6.27040022445068       -1.40439766990411        0.28033468609137
O            6.94830004375713       -2.38012947787858        0.92752007684741
C            6.31537376337817       -3.61583233633369        1.15217722400438
C            4.96302840674480       -1.49347485723979       -0.16064431849589
C           -0.05511211878686       -1.29906259857679       -0.62085692079872
C           -3.86758072907722        3.07992629005348        0.58498065642721
C           -4.49286201346546        2.77383518785172        1.94313307512182
C           -3.39165211343248        4.52917708609625        0.54797528556046
H           -4.66030069703099        0.94509076131725       -1.31640581036773
H           -6.85037992114187        0.25803164586058       -1.80468862056629
H           -7.17287509152171       -1.18600121846629       -2.79318183475679
H           -5.66836870040540       -0.26952968819383       -3.04040283452035
H           -4.88416765986127       -3.71589494995018        2.40913564538747
H           -5.29223619720187       -4.96637504833431        1.20969248126828
H           -3.61139846644506       -4.39919876145526        1.35529370415983
H           -3.07077825100221       -2.21868786295666        2.10002682176568
H           -2.14562774333496        0.02067850888151        2.01001363031684
H           -3.02188903413801        2.38238034416975       -1.88813562572432
H           -1.65198546223364        3.25146730843841       -1.20556295755141
H           -1.81103391047759        0.23006526775522       -1.62116316669324
H           -0.99335697743926        1.37490224954061       -2.69443281971844
H           -0.67628070635666        1.65183902374723        0.61785732877701
H            0.63525847086258        1.98466388206871       -0.92314029755375
H            2.11132572081740       -0.65949698961381        0.72532619960637
H            2.30680494458141        0.98978260887088        0.11078973822125
H            2.76694224489122        0.06750735773687       -2.17075272340394
H            2.67954606229959       -1.57455642411728       -1.51167757545099
H            4.62170041431221        1.56295626549351       -1.56123593485311
H            6.92357738865082        1.75715832247601       -0.79119604059515
H            8.65159193263071        1.81001840117181        0.81701562739969
H            9.20136256512460        1.14042868409438       -0.74698998879646
H           10.03428931104811        0.69003246578081        0.76064945022918
H            7.05567240429544       -4.23621211097668        1.65347581279537
H            5.43848051513375       -3.50813590722545        1.79970582482858
H            6.02060097762632       -4.09420535105165        0.21253284608183
H            4.40102799328555       -2.40127288651695       -0.00490198294521
H           -0.22071301762289       -1.61775598610935       -1.65116024301020
H           -1.01972267469312       -1.24102728946113       -0.10935207845464
H            0.55899959333766       -2.04486104898380       -0.12333731565713
H           -4.63991918782192        2.95501120214274       -0.18098089750912
H           -3.76095251366987        2.90314731895452        2.73380846416528
H           -4.87457659255110        1.75695657819473        1.97884621460846
H           -5.31925601899505        3.45579242388173        2.12325583951056
H           -2.60025614255587        4.69225089676674        1.27368930043085
H           -3.03987434616939        4.81897697030947       -0.43870979129779
H           -4.22191779840287        5.18069696155015        0.80616701440619
H           -0.59832439338922        2.77744720721660        2.72959009765665
72
 energy: -4.659348644132 xtb: 6.6.1 (8d0f1dd)
N           -1.46729633035511        2.82862852952705        2.19341592456281
C           -1.56098209088254        2.17965098190970        1.12837260114589
C           -2.76218410577370        2.07371899717753        0.24906769238625
C           -3.33123692393513        0.66422883378211        0.33251096825865
C           -4.30780898506379        0.26178402878018       -0.58098788623728
C           -4.84502871136137       -1.01082823209573       -0.54854259622368
O           -5.79942326227088       -1.47991623325195       -1.39193962164415
C           -6.37342599406257       -0.59927610577704       -2.32625273299354
C           -4.39542079484950       -1.93439598246014        0.42591646125164
O           -4.97579919777690       -3.15991361573404        0.37989876351044
C           -4.64795851408233       -4.09837717672892        1.37509303891262
C           -3.43134267576409       -1.53094278716168        1.32950944551487
C           -2.90466577059959       -0.24412256313755        1.28210220430133
C           -2.18885846866932        2.29736432805899       -1.17526678987412
C           -1.27320187942396        1.15398696363443       -1.69555088926104
C            0.00792882072358        1.08965689446859       -0.93882371470297
N            0.62703241370058       -0.06110616290117       -0.57758539932819
C            2.00113954183898       -0.04361207166430       -0.16685488809349
C            2.93282211702671       -0.57259535626563       -1.27342368666675
C            4.35954598379791       -0.45431690595025       -0.83458677680627
C            5.06850164894592        0.71251510453156       -1.04729868501974
C            6.37855478845739        0.83358023954464       -0.60887714348134
C            6.99766611419526       -0.20982416222134        0.05752801325916
O            8.27212521362899       -0.20344350075521        0.52525945170377
C            9.06160339497717        0.94050595058034        0.31109188203691
C            6.27528975282774       -1.40589396923102        0.28870129217510
O            6.96298698166788       -2.37786367518828        0.94276524373447
C            6.33389628632096       -3.61299170738628        1.17299051502476
C            4.97037058015397       -1.50689783197423       -0.15214577174685
C           -0.05777197365834       -1.32404829210809       -0.59318655169797
C           -3.88657445675642        3.08465385005704        0.62110259061686
C           -4.46485178197162        2.78236013202648        2.00040982387679
C           -3.43367974678502        4.54047732514871        0.57771051038054
H           -4.65906617848450        0.96190242894019       -1.32112735272272
H           -6.83734239655699        0.26271342641088       -1.83631451311135
H           -7.14080818613491       -1.17886977310565       -2.83600740997880
H           -5.63888192917450       -0.25065459434632       -3.06012624593298
H           -4.87924629846560       -3.72119077075781        2.37616361218311
H           -5.26613328936494       -4.96933106103255        1.16617926323430
H           -3.59201163102500       -4.38517958413631        1.32920766649773
H           -3.08000524390439       -2.20822000496569        2.09184926965396
H           -2.17060112027932        0.04005062600612        2.01974767855012
H           -3.00689931235223        2.37464941098040       -1.87738629071619
H           -1.67927154848093        3.26455960466821       -1.18876475469462
H           -1.80529133296808        0.20067329650557       -1.65063758929597
H           -1.03820920896218        1.34794527607805       -2.75169134575151
H           -0.70039036029196        1.64462227296837        0.62913508511674
H            0.65243275458992        1.95260221244731       -1.02485280736156
H            2.11549971935499       -0.65256389955488        0.73322870913884
H            2.29408774457287        0.98097169011728        0.07440128197961
H            2.76557043185736        0.01727373902384       -2.17555661861750
H            2.68066166617614       -1.61147179254425       -1.48504297491957
H            4.60936223522507        1.53794740125923       -1.57044925994197
H            6.91141238791728        1.75049849089107       -0.80232167475577
H            8.63720277561384        1.82161272191118        0.80371557638219
H            9.19120557064567        1.14709107669205       -0.75628693526776
H           10.02891286910805        0.71090472580982        0.75409638597708
H            7.07765193304864       -4.22787781011586        1.67664177895907
H            5.45637624723685       -3.50595435888733        1.81990833392313
H            6.03918348683047       -4.09734065584369        0.23602712896274
H            4.41105362342952       -2.41505160677093        0.01220411107701
H           -0.21647881720039       -1.67346447598557       -1.61635527534477
H           -1.02914630896477       -1.24175457528112       -0.09785467189021
H            0.54730778539506       -2.05251618243976       -0.06345671754375
H           -4.68542916883688        2.95407932225442       -0.11605792998860
H           -3.70321619744631        2.92054402314395        2.76077832784259
H           -4.83133629242181        1.76053678622187        2.04964734884095
H           -5.29014711341311        3.45920940469045        2.20766475763890
H           -2.61930859235525        4.70710195268969        1.27534691196687
H           -3.11545636048067        4.82981650450531       -0.41908371114266
H           -4.26019506251552        5.18683105306474        0.86371692474922
H           -0.58310245826087        2.82384964332664        2.69007716988864
72
 energy: -1.402445292580 xtb: 6.6.1 (8d0f1dd)
N           -1.45868020976746        2.95049469590323        2.14613915532201
C           -1.56124234283176        2.19547051341654        1.11868492814501
C           -2.78519990838628        2.09698840348505        0.26587065618637
C           -3.35397621005696        0.69212603540324        0.34297384700625
C           -4.31494844010100        0.28545113008297       -0.58338719243827
C           -4.83368247741871       -0.99345233035778       -0.56962387058553
O           -5.77873763688816       -1.47126539569992       -1.43607334518661
C           -6.33978202023231       -0.58647648758952       -2.37004237125116
C           -4.38871335302749       -1.91619161362579        0.39973977624412
O           -4.95913076499217       -3.15837926181960        0.33531159903822
C           -4.62500415348957       -4.09427938164044        1.32566248578603
C           -3.44623145169113       -1.51062874527128        1.32266348819472
C           -2.93528269284952       -0.21827354387628        1.29296615963212
C           -2.18864616877380        2.29368862861224       -1.15805578950327
C           -1.28441097164815        1.12492437279823       -1.74718426722052
C            0.00457788717155        1.07674188857963       -1.00710527976370
N            0.64003745210704       -0.12094221205298       -0.57509805209261
C            1.99833062437089       -0.06784061689916       -0.18242926017126
C            2.94258418374122       -0.62026652143558       -1.26720411142418
C            4.36046667288057       -0.48779688431023       -0.83719882589049
C            5.06051981269393        0.68430179546741       -1.05638951899389
C            6.36751218390697        0.82080477160939       -0.61707115989976
C            6.99235412488086       -0.21224486476407        0.05712675235141
O            8.27945494855484       -0.19375329056631        0.52640405035593
C            9.04996228068056        0.95608868113893        0.30018627067959
C            6.28198163338176       -1.40730260560895        0.29962762567200
O            6.98414924169545       -2.37466587184858        0.96442488981616
C            6.36033374865228       -3.60828364009311        1.20285308671886
C            4.98023088276065       -1.52587557779054       -0.14014143174096
C           -0.06292404442919       -1.35693558041128       -0.55454837075125
C           -3.91085978053606        3.09144787839243        0.67348501485198
C           -4.42324755925575        2.79276222164942        2.08218735655617
C           -3.49244599795974        4.55733862158023        0.61927025360574
H           -4.65761206971261        0.98661946685331       -1.32780588574209
H           -6.81919195490643        0.26919020375032       -1.88215101498775
H           -7.09404928352228       -1.16865067879952       -2.89777537970953
H           -5.59660311320268       -0.22326988687044       -3.08853259924890
H           -4.87229690310751       -3.72946153743369        2.32858418454490
H           -5.22768646354811       -4.97342426270530        1.10301757478045
H           -3.56379113481551       -4.36498447953487        1.29176801041730
H           -3.09375270742095       -2.19352275617702        2.08088543236345
H           -2.20799744423904        0.06833754900947        2.03462203834342
H           -2.98616256756714        2.36645706568791       -1.86651336907738
H           -1.72009158744283        3.28793243136905       -1.16528149720469
H           -1.80016140160371        0.15558828283621       -1.69006352560380
H           -1.10462315296564        1.31212786157925       -2.82147905955075
H           -0.73356122203278        1.63201448696304        0.65074819527502
H            0.67955629392645        1.89871437151938       -1.16444753539050
H            2.12212518295705       -0.63951655713431        0.74384393218599
H            2.27593560066903        0.97127146891395        0.02330507092613
H            2.76395129301532       -0.05561353429575       -2.18275703333414
H            2.68133562531224       -1.66352184727940       -1.44573841332196
H            4.59112723853100        1.50101103494861       -1.58370377196905
H            6.89381000403621        1.74071926148583       -0.81861668540310
H            8.61645054519629        1.83835011305301        0.78454053636813
H            9.17695993615639        1.15668060483714       -0.76961476376054
H           10.02045234457753        0.74089804987541        0.74467969461267
H            7.10907659360776       -4.21521100077854        1.70997709040898
H            5.48210851799382       -3.50276826922731        1.84930755747173
H            6.06593102146886       -4.10217658349061        0.27006011496773
H            4.42471854192171       -2.43449837801124        0.03633279451494
H           -0.20948292533100       -1.75420939668660       -1.56636091750189
H           -1.04485626499280       -1.24288137573342       -0.08497584057208
H            0.52811521447783       -2.05981463635973        0.02300464134337
H           -4.74798461095875        2.95083465639901       -0.02068683227526
H           -3.62237501227554        2.94620546894564        2.79985924733030
H           -4.76970719357342        1.76502836046929        2.15211648723281
H           -5.24578445453520        3.46299306487138        2.32668673406425
H           -2.64665994241543        4.72980919038993        1.27676549710137
H           -3.22410711032082        4.84718491429200       -0.39148312768349
H           -4.31350796512121        5.19453619618110        0.94654487778619
H           -0.55705816449853        2.88653763590406        2.61979952350881
72
 energy: 13.058145878755 xtb: 6.6.1 (8d0f1dd)
N           -1.45578975588438        3.05741992769657        2.09658064426819
C           -1.55290616492828        2.21642876985771        1.10248457294998
C           -2.80859444014769        2.11996993410737        0.28556321231231
C           -3.37442802087497        0.71819582130512        0.35043540679655
C           -4.32135056221196        0.30877823756087       -0.58755444345898
C           -4.82092079182631       -0.97568091427574       -0.59019945761144
O           -5.75871100454202       -1.46227801223807       -1.48050652262754
C           -6.30548244410840       -0.57391872783106       -2.41348049169747
C           -4.38092210584265       -1.89640305692467        0.37325528814909
O           -4.94255722762585       -3.15719519349730        0.29138600799252
C           -4.60153017479566       -4.08923788419058        1.27576189260410
C           -3.46044791877644       -1.49119860896408        1.31608469742846
C           -2.96565791968423       -0.19416566654596        1.30310566706880
C           -2.19606173539861        2.29975452541240       -1.14053334584104
C           -1.29520308642101        1.09172678986525       -1.78899249144176
C            0.00115047276615        1.06427134441881       -1.08295168567929
N            0.65481290877799       -0.18429026731651       -0.57301370024231
C            1.99332785948987       -0.08736789876800       -0.19916050905449
C            2.95237254812137       -0.66736838497948       -1.26056141196757
C            4.35982034345394       -0.52090693683990       -0.83671902445181
C            5.05219744729537        0.65578418929589       -1.06393366778086
C            6.35689503393662        0.80792306320521       -0.62588709624047
C            6.98538870414088       -0.21480477165614        0.05586960478124
O            8.28713707261384       -0.18365596074684        0.52716256967332
C            9.03731643464656        0.97112652231624        0.28920426000261
C            6.28852293170835       -1.40764916319731        0.30957010561844
O            7.00531445226086       -2.37173848548743        0.98619989568873
C            6.38662452454751       -3.60277028974957        1.23296417200493
C            4.98976334602561       -1.54491713643412       -0.12829311268219
C           -0.06883353300780       -1.38643655235248       -0.51732515438967
C           -3.93335121768685        3.09932164102783        0.72801330781350
C           -4.38028375226953        2.80203406119421        2.16373164024187
C           -3.55014458955144        4.57517094874949        0.66005457040778
H           -4.65682011880468        1.01235516607734       -1.33430545564090
H           -6.80165912356510        0.27537236828143       -1.92882524987197
H           -7.04624678853679       -1.15837436468489       -2.95950585762421
H           -5.55459304609934       -0.19598585115118       -3.11697735146234
H           -4.86526672010210       -3.73851738015292        2.28100738589576
H           -5.18804447555758       -4.97682892973371        1.03962671980257
H           -3.53542647339496       -4.34467926082928        1.25459894403047
H           -3.10803020181954       -2.17881205077638        2.07103672760514
H           -2.24719421149229        0.09708852067256        2.05076508786488
H           -2.96590402253576        2.35949790467586       -1.86127264945923
H           -1.76176413328731        3.31588720154535       -1.14311670651681
H           -1.79721641166727        0.10704057413909       -1.72852382405862
H           -1.17020902431447        1.27862388565590       -2.87763556785857
H           -0.76765809256768        1.62240612066835        0.68234109831319
H            0.70835264090174        1.83344542309465       -1.29841881022859
H            2.12986486478494       -0.62357425376716        0.75203263075239
H            2.25890577026400        0.96309599525440       -0.02684145926206
H            2.76330389669182       -0.13025127228460       -2.19080502088474
H            2.68171869433324       -1.71472499760946       -1.40568899634237
H            4.57277280861356        1.46281690843898       -1.59725885856972
H            6.87611928832964        1.73086914808805       -0.83547857119671
H            8.59583411008543        1.85514856741928        0.76519513114773
H            9.16321371133193        1.16617508372632       -0.78291656728014
H           10.01128976493933        0.77114995481226        0.73505587105511
H            7.14023513373723       -4.20182492665920        1.74370977438463
H            5.50790845327068       -3.49951667564735        1.87948934059731
H            6.09285575444928       -4.10743281169030        0.30477625967367
H            4.43807175135970       -2.45389116492933        0.06009109524560
H           -0.20251163603511       -1.83674525481854       -1.51434736161370
H           -1.06086870043628       -1.24420830648409       -0.07550403107084
H            0.50601860872386       -2.06292288213215        0.10908114674709
H           -4.80671430851588        2.94529841504651        0.07889681778643
H           -3.54573004695980        2.97342396339969        2.83837612994185
H           -4.70808163592424        1.77019516135970        2.25490811835018
H           -5.19796438546100        3.46600315703331        2.44372075840157
H           -2.67586594528856        4.75473265656415        1.27656261819584
H           -3.33428953784178        4.86568610629753       -0.36283395482098
H           -4.36435497779608        5.20113179607960        1.02924064999435
H           -0.52962007113328        2.94421621307731        2.53391511980183
72
 energy: 36.682170807987 xtb: 6.6.1 (8d0f1dd)
N           -1.44826485917745        3.16805115983633        2.05474210091258
C           -1.55553869037601        2.23870213889522        1.08946262037170
C           -2.83370409065088        2.14407040072365        0.30175240788092
C           -3.39705272783454        0.74590887045764        0.36072980611890
C           -4.32783222110520        0.33247052641124       -0.59089290401131
C           -4.80887441579221       -0.95840642786811       -0.61213207981751
O           -5.73803409167297       -1.45290318131877       -1.52384900096977
C           -6.27193997128156       -0.56097431843238       -2.45710854315976
C           -4.37341097127976       -1.87861792073891        0.34665796503678
O           -4.92593795954153       -3.15473039330216        0.24758115213214
C           -4.57859867613284       -4.08496548285159        1.22667215398663
C           -3.47457587984383       -1.47136423475617        1.30895869327331
C           -2.99567790166317       -0.16866116442976        1.31351776813776
C           -2.19712995030890        2.29919257915679       -1.12223334486364
C           -1.30602345183959        1.06165832664226       -1.84117958949973
C           -0.00428824590829        1.05260035075561       -1.15202481507338
N            0.66925800792395       -0.24613023115745       -0.57487695733743
C            1.99208443463029       -0.11133092652452       -0.21467750221640
C            2.96248877053845       -0.71470625199175       -1.25458366464454
C            4.36132584657567       -0.55420564362983       -0.83889194659901
C            5.04433967025344        0.62792895011874       -1.07269010758784
C            6.34587416025210        0.79559762613538       -0.63417728844580
C            6.98027115243013       -0.21707220767306        0.05549224622809
O            8.29415184789142       -0.17389325729183        0.52811267843075
C            9.02566882311496        0.98664963888809        0.27824320651346
C            6.29516479570116       -1.40925139476566        0.32090509293393
O            7.02604400731708       -2.36853012199485        1.00754288122872
C            6.41296307131891       -3.59813342629722        1.26290250587358
C            4.99949219851715       -1.56397802182537       -0.11559533250744
C           -0.07429789613749       -1.42078553827489       -0.47832089277075
C           -3.95816507872498        3.10639737588764        0.78226309043022
C           -4.33865844207952        2.81322283240023        2.24560907056746
C           -3.60930359324860        4.59180740571862        0.70220543826647
H           -4.65564620116358        1.03744461063254       -1.34097542138708
H           -6.78376289954648        0.28200021631283       -1.97512302807226
H           -6.99928606830741       -1.14803964967495       -3.02098137960063
H           -5.51252188874823       -0.16883660048348       -3.14527546868565
H           -4.85816870613008       -3.74715449348194        2.23369808022078
H           -5.14945654961180       -4.98051342183346        0.97666308976546
H           -3.50742894071466       -4.32444041673927        1.21727237226520
H           -3.12201630879493       -2.16406995497844        2.06057232260478
H           -2.28515415645556        0.12523287702407        2.06605964686115
H           -2.94490647841737        2.35059950520514       -1.85273065394625
H           -1.80384308751627        3.34188456115142       -1.11972953324824
H           -1.79206651235413        0.06147199868371       -1.76687082727490
H           -1.23448342631553        1.24322613969575       -2.94534189675985
H           -0.79933388812800        1.60771763614017        0.70346849653038
H            0.73669191453173        1.77687745105565       -1.43971848298902
H            2.13757675654656       -0.60972807615758        0.76197046642159
H            2.24107602917224        0.95348826999341       -0.07824291884112
H            2.76264571459945       -0.20367071403407       -2.19827605098779
H            2.68256614931802       -1.76587606849884       -1.36564871594377
H            4.55461744509889        1.42582274559969       -1.61049890317010
H            6.85850129541667        1.72122934919808       -0.85220862737579
H            8.57513168337813        1.87175771940919        0.74603966326947
H            9.14917609499574        1.17573033403394       -0.79622457991017
H           10.00267676930612        0.80116691898517        0.72558068787206
H            7.17158583957123       -4.18904077403248        1.77715400082622
H            5.53364235569951       -3.49634555968454        1.90914127077897
H            6.11959501062376       -4.11248621154495        0.33906120789802
H            4.45181522861719       -2.47354436795550        0.08420596126217
H           -0.19665753506777       -1.91838460936690       -1.46235197797454
H           -1.07648894701162       -1.24470116336917       -0.06316620682899
H            0.48531699191755       -2.07056151978276        0.19575739911177
H           -4.86707876237138        2.94121871100420        0.17591631131212
H           -3.46662793963047        2.99949368499406        2.87790179089815
H           -4.64556809448090        1.77536777504986        2.35642757401544
H           -5.15326115637048        3.47017202006602        2.56199432905809
H           -2.70416524516527        4.77956691034172        1.27723714019082
H           -3.44434261253160        4.88216285971484       -0.33392220689902
H           -4.41703242771377        5.20865750078042        1.11172367019536
H           -0.50323632123116        3.00877754171882        2.46181102217902
72
 energy: 65.551245202691 xtb: 6.6.1 (8d0f1dd)
N           -1.45282053621887        3.22402491517092        2.01687126089003
C           -1.54236240979054        2.29208882275840        1.05457442801339
C           -2.86352863207571        2.16721022619931        0.32558001558643
C           -3.41485272619783        0.76735212378349        0.36482262336001
C           -4.33253975736516        0.35487708547789       -0.59918024472968
C           -4.79354680481682       -0.94054520516067       -0.63346691763154
O           -5.71917337523299       -1.44091730849040       -1.56541631506076
C           -6.23771886598658       -0.54838900800029       -2.49869299006686
C           -4.36281210772148       -1.85839325503637        0.31972033150798
O           -4.90995670425492       -3.15104184061749        0.20801729380147
C           -4.55571732906677       -4.07852971019149        1.17800393301778
C           -3.48613763383154       -1.45543574527588        1.30257471410364
C           -3.02406349178330       -0.14936511517793        1.32214114760053
C           -2.22035467379018        2.32984053786503       -1.09928158785265
C           -1.31114184851938        1.01615624653898       -1.87354904806292
C           -0.01628049088050        1.04902321354925       -1.24292485769620
N            0.69103835190134       -0.31851131986351       -0.58777887317151
C            1.98891609946546       -0.12225731888239       -0.22990306455074
C            2.97147411400220       -0.75978045474318       -1.24742985288903
C            4.36047293834295       -0.58616077378735       -0.83288834041731