25
 energy: 0.000000000000 xtb: 6.6.1 (8d0f1dd)
C            3.23720163006194        1.16630919979326        0.08434469647475
N            2.29877817382611        0.07527477071623        0.03981603040599
C            2.58028210190900       -1.21425402444508        0.03006176031096
N            1.43813958087363       -1.93419271955128        0.00098261760884
C            0.39035688448383       -1.05887472636071       -0.00790371836672
C            0.93510056364412        0.21347819449412        0.01709077491437
C            0.09450143893243        1.40504303904423       -0.00410947031874
O            0.49712751527797        2.54126714362870       -0.00342325688240
N           -1.25076640035757        1.06271879480407       -0.03085478223738
C           -2.21907211982101        2.15522099834493       -0.05001256985998
C           -1.81739487048744       -0.20012725993278       -0.04692818574614
O           -2.99983886758376       -0.37846417018721       -0.07008878229737
N           -0.92618586207120       -1.30210215599479       -0.03682761578324
C           -1.46982264913417       -2.64643102187190       -0.06029820460571
H            3.71247264356769        1.21471455160235        1.06488849150277
H            4.00791497605742        1.03430808813993       -0.67357694370751
H            2.69910007168542        2.09770118228144       -0.09130154882931
H            3.56654120610678       -1.63682992603973        0.04233140067262
H           -1.67107961066214        3.09322851271934       -0.02552706933167
H           -2.82428953597071        2.09428624779827       -0.95318082946668
H           -2.87644029173232        2.07745725625962        0.81450067533302
H           -1.17061996399332       -3.19584890659852        0.83242232437030
H           -1.14560257411436       -3.17511610292205       -0.95688275822323
H           -2.55549792440841       -2.55659984320617       -0.07459039797972
H            1.38130855184625       -2.94313852034425       -0.01389874181052
25
 energy: -5.378989990596 xtb: 6.6.1 (8d0f1dd)
C            3.24184096632366        1.17776957675116        0.08678256293852
N            2.30708651700871        0.09489425522757        0.03794107987906
C            2.59957499130997       -1.23297459651047        0.03113818280023
N            1.42786481330333       -1.94138140007763        0.00168124195492
C            0.39582348066992       -1.05786399772364       -0.00853776171852
C            0.92921237682601        0.22099633964620        0.01459306131802
C            0.10062653717967        1.39433290511331       -0.00711942173882
O            0.49719845078735        2.56010347923909       -0.00643845232538
N           -1.26135979635962        1.05021203443086       -0.03295542868101
C           -2.21977812103435        2.14952386721772       -0.04975186914937
C           -1.82475250787854       -0.20056683829387       -0.04830402216367
O           -3.02205231580638       -0.37802945507392       -0.07053554661791
N           -0.93517902947125       -1.30249301154331       -0.03773619902782
C           -1.46972315353178       -2.64620987159291       -0.06075978627270
H            3.72049688436413        1.22402804933208        1.06861227623880
H            4.00958543057211        1.04407812635101       -0.67671170571409
H            2.69383932820953        2.10179391502087       -0.08825158785358
H            3.57823587521662       -1.65839549141104        0.04477902255892
H           -1.65430024185310        3.07628421308803       -0.02602356905289
H           -2.83053312308268        2.10511641907584       -0.95040473159589
H           -2.87422247063877        2.08580631219531        0.81743244827017
H           -1.16486916420823       -3.19716163344863        0.83119232252982
H           -1.13938168386181       -3.17685317062778       -0.95606641952421
H           -2.55512287460395       -2.55876921825469       -0.07547535224025
H            1.36210349849567       -2.94521220595913       -0.01204644866509
25
 energy: -6.509709271624 xtb: 6.6.1 (8d0f1dd)
C            3.24435177397998        1.18622133397787        0.08948395172698
N            2.31187506232275        0.10573751759269        0.03458562688397
C            2.60887260921370       -1.24801776363230        0.03406593948035
N            1.41446477528049       -1.94196623635308        0.00410589946148
C            0.39735457294249       -1.05593745423165       -0.01021833538681
C            0.92327795207279        0.22669351298176        0.00957120676507
C            0.10435404030617        1.37956258395350       -0.01458062944086
O            0.48324531653048        2.56109586321599       -0.01479708324905
N           -1.27465028775009        1.03786718164713       -0.03829388741759
C           -2.21687778519850        2.14814367390063       -0.04781412909150
C           -1.83096150704544       -0.20293691004919       -0.05153869365155
O           -3.03336153493688       -0.38159704578920       -0.07132465573319
N           -0.94376130516335       -1.30168640811347       -0.04006500553687
C           -1.46598879041583       -2.64727957777166       -0.06206402621934
H            3.73157412744894        1.23695774600948        1.06922037507047
H            4.01062659323957        1.06456015169138       -0.67963476728497
H            2.68749547311419        2.10644071973401       -0.07939718860904
H            3.58109372105995       -1.67978139555200        0.05101630385588
H           -1.62173684817757        3.05671529719486       -0.02746550320061
H           -2.83839809664248        2.12478350862226       -0.94264792194255
H           -2.86494933663723        2.10271779997370        0.82537270513202
H           -1.15521168664095       -3.19864986868705        0.82919503366229
H           -1.12842744657593       -3.17968158849461       -0.95529390679679
H           -2.55180523230531       -2.56716684357473       -0.07777543091062
H            1.33975850791424       -2.94376719607433       -0.00667198141989
25
 energy: -6.403028710511 xtb: 6.6.1 (8d0f1dd)
C            3.24133772681666        1.19149862705548        0.09156434869653
N            2.31271697125640        0.10682579013959        0.03112274632787
C            2.60797667508026       -1.25756412816702        0.03871372043604
N            1.40467877915331       -1.94180747140255        0.00855697780588
C            0.39494920559469       -1.05602252813669       -0.01297660852817
C            0.91961663986089        0.22789910783764        0.00254455176751
C            0.10343123031072        1.37135981677908       -0.02686603453773
O            0.46650259041791        2.55814396975277       -0.02977293324912
N           -1.28575577597289        1.03076390529583       -0.04665493048691
C           -2.21004367585941        2.15365816915737       -0.04362255249944
C           -1.83767959753166       -0.20757116822660       -0.05654791814556
O           -3.04027331701237       -0.38990276337187       -0.07291461235513
N           -0.94904554355800       -1.30256261175943       -0.04419878711548
C           -1.45872029272931       -2.65208099974920       -0.06457685001277
H            3.73801747420122        1.24474810443726        1.06742425717090
H            4.00567854024509        1.08938340590173       -0.68352522595004
H            2.67666567814108        2.11019553714707       -0.06557408332026
H            3.57626239896165       -1.69676673803594        0.06160908755734
H           -1.58404382606537        3.04311648122007       -0.03050697358390
H           -2.84607508656714        2.15017435535448       -0.92918092382923
H           -2.84598613175414        2.12665212948179        0.83973612612237
H           -1.14246005875312       -3.20033744763956        0.82726777371755
H           -1.11330882783941       -3.18396718836970       -0.95577509430571
H           -2.54532443093304       -2.58331155765073       -0.08193456847398
H            1.32309732247216       -2.94349619487885        0.00312240293872
25
 energy: -3.189286215613 xtb: 6.6.1 (8d0f1dd)
C            3.22150846281656        1.20856497363190        0.09901188844291
N            2.31194703579583        0.10364130879053        0.01813736140386
C            2.59770466373511       -1.28696618129215        0.05847911169170
N            1.37364275024589       -1.94307187409623        0.02840877491359
C            0.38277456586362       -1.05852225051023       -0.02492595567820
C            0.90782882926278        0.22753967950940       -0.02710322324759
C            0.09782233550046        1.34766173424884       -0.07980075076437
O            0.41284630644151        2.54613399935412       -0.09668829996989
N           -1.32182974234105        1.01000927607144       -0.08162962171235
C           -2.18018828324889        2.18108151129062       -0.02444441148293
C           -1.86313066236816       -0.22462738871026       -0.07757353004799
O           -3.06429052148098       -0.42054808601626       -0.07979926827957
N           -0.96614382387754       -1.30777649521938       -0.06278750232766
C           -1.42814108797617       -2.67420092573150       -0.07625404583095
H            3.75291798107031        1.26157371469007        1.05962930629725
H            3.97455208947093        1.18321830003953       -0.70136398254683
H            2.62468879991751        2.12049499509493       -0.00733222406163
H            3.55309090236184       -1.75230914738379        0.10856274122386
H           -1.44798413536138        3.00288924748777       -0.04575312668981
H           -2.87651292283819        2.24896140263169       -0.86912231444044
H           -2.76045478401688        2.22256337666723        0.90340358472354
H           -1.09131171191696       -3.20694547649411        0.81948577013057
H           -1.05126577797097       -3.20220555407249       -0.95949217490857
H           -2.51766403066739       -2.65328359063048       -0.10095471415903
H            1.26980742951833       -2.94484794717916        0.04694050346783
25
 energy: 6.347576455592 xtb: 6.6.1 (8d0f1dd)
C            3.19067204667031        1.22773934381160        0.10844960684294
N            2.30875776166023        0.09469011794529        0.00164445998211
C            2.58120170469826       -1.32054571514770        0.08456133107454
N            1.33845584841041       -1.94643787941612        0.05645703324879
C            0.36591356936294       -1.06314704458728       -0.04109851988976
C            0.89480824720767        0.22333347013845       -0.06675998336255
C            0.09296583534533        1.32287077314842       -0.15147366892369
O            0.36140241075797        2.52870584530416       -0.19104736844859
N           -1.36269477229485        0.99111841359812       -0.12703619537500
C           -2.14180099187274        2.21933361919715        0.00245448977986
C           -1.89397825274239       -0.24273590515714       -0.10422334631033
O           -3.09187715949054       -0.45566613835689       -0.08815487749635
N           -0.98586182821603       -1.31426383947697       -0.08850416559276
C           -1.38786969150742       -2.70287492586473       -0.09302955871449
H            3.76632888621753        1.27299500254526        1.04839300487610
H            3.92426728904519        1.30081471342080       -0.72554194874660
H            2.55178065160044        2.12922688766201        0.07101527649711
H            3.52118614198028       -1.81678965226682        0.17295111805678
H           -1.29762715544560        2.96244217534549       -0.06770377452403
H           -2.91380552721666        2.37132890683114       -0.78509458399105
H           -2.64265197418487        2.33963507120333        0.98788966514049
H           -1.02598810992872       -3.21404915784276        0.80860280924931
H           -0.97032489085940       -3.22473575200284       -0.96583517859701
H           -2.48019210557230       -2.74573137119001       -0.12780235348148
H            1.20914673431097       -2.94822835666990        0.10792062485295
25
 energy: 8.216475950613 xtb: 6.6.1 (8d0f1dd)
C            3.16764092354559        1.23192993105535        0.11274180737816
N            2.30537761123615        0.07899413181176       -0.00732480005963
C            2.56511491703970       -1.33181019348565        0.09889924172107
N            1.32800705355565       -1.94951220847358        0.07556062721395
C            0.35496289904607       -1.06763103533935       -0.05012918592560
C            0.89411085114860        0.21459178142526       -0.08875779772670
C            0.09759644851798        1.32156077386426       -0.19184930654308
O            0.36733744473260        2.51402426519296       -0.25444445751995
N           -1.37599462481336        0.99843119375712       -0.14790449689101
C           -2.12498469951760        2.24387308024740        0.02000724559032
C           -1.90611318200651       -0.24445932860367       -0.11455064120485
O           -3.09776575695928       -0.46828239570260       -0.09016245888644
N           -0.99112297137507       -1.31552797966272       -0.10386014994517
C           -1.36505913210869       -2.71609281298084       -0.10427285115808
H            3.76665918256113        1.26399497007758        1.03843679512210
H            3.88265666718983        1.35591677334088       -0.73766148722405
H            2.50958922834673        2.12567917211063        0.11519836125760
H            3.49820108189174       -1.84203713214741        0.21011139053000
H           -1.27586249770065        2.96330641574367       -0.07748902865725
H           -2.92189049886585        2.42370027662998       -0.73345457446897
H           -2.57668850465926        2.38031966081140        1.02730620502765
H           -0.99414606830633       -3.21383422176355        0.80165176881666
H           -0.92817766591845       -3.23188149679592       -0.97191444844217
H           -2.45626200206519       -2.79487644730144       -0.14442829419412
H            1.18902796342044       -2.95134857163942        0.14532443233684
25
 energy: 5.587403564914 xtb: 6.6.1 (8d0f1dd)
C            3.12062712287581        1.22434301271429        0.11839698328908
N            2.29275947872206        0.04347836995430       -0.01678364262019
C            2.52964066335014       -1.31067665952085        0.12074769909435
N            1.33942376874762       -1.95447067716621        0.11222361991603
C            0.33527304134485       -1.07639983012368       -0.06180164671579
C            0.90359002215256        0.18872243820936       -0.12129645260470
C            0.11049730679369        1.34327127224912       -0.24952548239147
O            0.44955750974152        2.49610346173209       -0.38796056742596
N           -1.36644623146804        1.03511442656305       -0.15904316764686
C           -2.10474130230822        2.27400912222283        0.05588143512077
C           -1.91430255617175       -0.23036869018485       -0.11784152721713
O           -3.09376789407585       -0.46349566115924       -0.08234336793943
N           -0.98754516039762       -1.31771772184137       -0.13033260589635
C           -1.34077964983642       -2.72897846071023       -0.12741368207814
H            3.74207370988794        1.20979645327276        1.01769078928167
H            3.78173587759426        1.38444654056102       -0.74040811229012
H            2.45408614898313        2.09238285154410        0.16955009182306
H            3.45723436667329       -1.82347043369732        0.26676708316552
H           -1.35823155689261        3.00496026688342       -0.09165371753711
H           -2.90070732466904        2.45757914681977       -0.64038452310591
H           -2.47458729797249        2.37553669940012        1.06757908705307
H           -0.96891446063685       -3.20376078162726        0.78695767866423
H           -0.88111066764057       -3.22643291276284       -0.98866173029611
H           -2.41824904351118       -2.85326631656310       -0.17562348500324
H            1.20509879664964       -2.95167731459720        0.20231313950805
25
 energy: 12.737805658562 xtb: 6.6.1 (8d0f1dd)
C            3.07564992333793        1.23294248991462        0.13110541301984
N            2.28250134629115        0.02585681833369       -0.03400065086290
C            2.50662631333158       -1.32327396199567        0.15779580168541
N            1.31914163306322       -1.96075216211859        0.15290625852055
C            0.31662664756880       -1.08419807054531       -0.07726700805480
C            0.89528627221982        0.17511259378017       -0.17045877228830
C            0.11392310947142        1.33185968560930       -0.33776661518159
O            0.46126402626680        2.47342323893175       -0.54251017946399
N           -1.38526089584291        1.03776631669090       -0.20217578380890
C           -2.06945061973502        2.31037577766976        0.09550022268503
C           -1.93605087320924       -0.23251445955394       -0.14011175975915
O           -3.11065185448851       -0.47573067568166       -0.08144483403176
N           -1.00192854238581       -1.32314368673920       -0.16363455219836
C           -1.30382854590913       -2.75363778238268       -0.15554012554522
H            3.74085737459126        1.17986611982963        1.00385561675586
H            3.69188944375818        1.48492931120551       -0.76609247802945
H            2.36688530043959        2.08032088345118        0.26594400803526
H            3.42303344935692       -1.85150282441532        0.35198908122062
H           -1.28283012108385        3.00289673643482       -0.13666294333640
H           -2.95116353037789        2.54864822228653       -0.51869936855589
H           -2.32079522108471        2.45355920420419        1.17260964777342
H           -0.91550857557724       -3.20391532316885        0.76735877445684
H           -0.79951466068079       -3.23775229202811       -1.00560053902965
H           -2.37801105156935       -2.94595358995585       -0.21965612046972
H            1.17352432018349       -2.95615396758474        0.27959080261055
25
 energy: 14.805182599460 xtb: 6.6.1 (8d0f1dd)
C            3.04831324658659        1.23325850131567        0.14423199591077
N            2.26381836980418        0.04344524954671       -0.04818532211161
C            2.50766053251169       -1.29816578197006        0.20271505937015
N            1.31115062545419       -1.96273918743795        0.17735800646026
C            0.31233035384209       -1.08632067058350       -0.07617316196414
C            0.87548946250488        0.17410811488879       -0.21223139325238
C            0.09315827609936        1.31194628873381       -0.38756283991863
O            0.46930813794709        2.46310152577265       -0.68937255812821
N           -1.37055685120412        1.02410451877799       -0.21342537763683
C           -2.03723560799742        2.30765640511578        0.13267696227778
C           -1.93824765630496       -0.22642187688704       -0.15017940360882
O           -3.12345407996640       -0.44709928160028       -0.06681444289193
N           -1.01625103470809       -1.33403868856250       -0.18744062409354
C           -1.30297259307734       -2.76454030116548       -0.18461722288684
H            3.72852798779220        1.13257298464540        1.00018218419522
H            3.61869559785578        1.50646279083902       -0.77505229064752
H            2.32498889775639        2.05681822868732        0.32887581701046
H            3.42610022288221       -1.80168175422574        0.41916993709420
H           -1.20792267596878        3.01740250478425       -0.21573937771827
H           -3.01591603036389        2.54846510136176       -0.40137093192565
H           -2.18918882867317        2.46933233598676        1.25667730361806
H           -0.91417738805161       -3.20660364229761        0.74297523561861
H           -0.76612959288324       -3.23501036262488       -1.02691533827712
H           -2.36853548256509       -2.98341089308251       -0.26743240064084
H            1.18326077866313       -2.95361350784614        0.32468408029412
25
 energy: 16.884515579796 xtb: 6.6.1 (8d0f1dd)
C            3.00609554409900        1.23679352618677        0.14906731875851
N            2.24558121437441        0.03511123238659       -0.06760471633532
C            2.48772807165739       -1.29072891902903        0.24212485354639
N            1.29677188612975       -1.96478247739457        0.21278110959074
C            0.29880603409649       -1.09307249574466       -0.08811972413726
C            0.86420018180592        0.16088012628724       -0.26663620763652
C            0.08728359562336        1.29984827260724       -0.48202756719261
O            0.47566132341394        2.43661637240821       -0.82877332042279
N           -1.36218258488074        1.02877507806342       -0.22914249177405
C           -1.98926173822138        2.32926213913294        0.17548741858859
C           -1.94283538148143       -0.21781374057512       -0.15949707182153
O           -3.12809920812143       -0.42705861954090       -0.04766337451088
N           -1.02726282405493       -1.33983728452766       -0.21689287575995
C           -1.28512115005730       -2.77910835096590       -0.21154145771015
H            3.72333842711603        1.09827231647733        0.97392786019892
H            3.53006637942747        1.56499427944650       -0.78899787090130
H            2.26980211748469        2.03838739079543        0.39894490601787
H            3.40287166893448       -1.78885492069337        0.49766536210399
H           -1.20391061769542        3.04059446926832       -0.20194244263333
H           -2.98546902036582        2.58215126140653       -0.29614714214552
H           -2.07378815097863        2.47538550293321        1.29421411493285
H           -0.89315573820375       -3.20628567190999        0.72265563252147
H           -0.71638648420096       -3.23689587880376       -1.04269596920816
H           -2.34137191099042       -3.04119872557789       -0.31082665775191
H            1.17285303302487       -2.95240628046468        0.39867420982922
25
 energy: 13.194024390273 xtb: 6.6.1 (8d0f1dd)
C            2.97204516237598        1.23520290499542        0.14733435998778
N            2.21461544085281        0.05398245168231       -0.08811678244105
C            2.48096433527942       -1.24989189239494        0.28905359096022
N            1.28602062427566       -1.95786248919767        0.23393037733117
C            0.29860204100791       -1.09578824714674       -0.09298541248748
C            0.84282288719909        0.15025586428192       -0.32811522993986
C            0.05420008636396        1.27427263912362       -0.58948800408560
O            0.45733420363433        2.39837275335184       -0.92004043522517
N           -1.30745509146213        1.02617883653199       -0.21112462743687
C           -1.92764652605680        2.31012760727989        0.21132101465023
C           -1.91679557546788       -0.19334713971028       -0.15140826637906
O           -3.11471008333086       -0.35042670862732       -0.00757573701431
N           -1.03569094864927       -1.34786238145218       -0.24008156856226
C           -1.30189723850924       -2.77589211373245       -0.23583415574598
H            3.70558238085411        1.06783853099355        0.93287407525845
H            3.45145119978701        1.55432965880184       -0.76953876380065
H            2.26996370168602        2.00622990447762        0.43055430341399
H            3.40430749164677       -1.70217773599671        0.55468371644839
H           -1.25579265687344        3.07769067277398       -0.14864394468567
H           -2.88881673975445        2.51650327082776       -0.20546977322272
H           -1.98177104292754        2.39338616269867        1.26453002335206
H           -0.92913588389149       -3.20706967671400        0.70165659516829
H           -0.72234019879430       -3.22352759277687       -1.05402867439138
H           -2.33806141939395       -3.03574524643311       -0.35289605770678
H            1.19441851808380       -2.93575143146594        0.45644327270155
25
 energy: 14.589098191305 xtb: 6.6.1 (8d0f1dd)
C            2.94176536317910        1.24129007423770        0.15985912542275
N            2.20508396888664        0.04533075318685       -0.10544793031089
C            2.46409474305177       -1.24216264665169        0.32744601948755
N            1.27671210852593       -1.95250876939166        0.27013015175235
C            0.29021242932346       -1.10205931937840       -0.10671370064025
C            0.84155271026855        0.13282770446177       -0.37443567196225
C            0.05410504860923        1.26285834547072       -0.68556577827186
O            0.45799146687589        2.37018582723943       -1.06777446561312
N           -1.29575625236094        1.03319197938183       -0.23693041564034
C           -1.89328936376723        2.30576480288306        0.23435329794519
C           -1.91462112416738       -0.18581638240125       -0.14907896355300
O           -3.10726286860993       -0.33035319472737        0.01296599309592
N           -1.04179903598155       -1.34884235180589       -0.26424118246276
C           -1.30122150742512       -2.77732603651390       -0.26642797434697
H            3.71056086014817        1.04073492571902        0.90930930495018
H            3.37885013608147        1.61997409740120       -0.76891327355647
H            2.23707266044076        1.99732324027730        0.52020540266038
H            3.38663320594125       -1.67997407816749        0.62293957137826
H           -1.25089730736482        3.06931200887128       -0.19420156099388
H           -2.92636947539126        2.50341774315094       -0.08721560136301
H           -1.81206571182650        2.38590997390044        1.35305809523491
H           -0.94978909206075       -3.20737831782126        0.67731456997980
H           -0.70092026404848       -3.21490970190569       -1.07474010061706
H           -2.32848464613087       -3.05421601555446       -0.40835627994709
H            1.19005661573807       -2.92354605969024        0.52949526351897
25
 energy: 16.102617439219 xtb: 6.6.1 (8d0f1dd)
C            2.91786083755378        1.25128737087766        0.16751911402404
N            2.20213730683981        0.04063332695522       -0.13169403309948
C            2.44907372342740       -1.23422784513405        0.35667944430787
N            1.26471247682434       -1.94247460429389        0.30531598598962
C            0.28494899778534       -1.10541273171911       -0.12273634240857
C            0.84547385523558        0.11514916969885       -0.41992387985847
C            0.05491497173620        1.24127378527782       -0.75945991125966
O            0.44626739662973        2.33551048976775       -1.21087609079122
N           -1.27747605764835        1.03205532876938       -0.24323672854507
C           -1.84686893947635        2.29269848506680        0.27060081494493
C           -1.90847690097921       -0.18199761770123       -0.14233649284346
O           -3.09644911198230       -0.31121673600181        0.04871574465500
N           -1.04739639645548       -1.34618786109726       -0.28209408078942
C           -1.31241249185609       -2.77240651421818       -0.29383989078862
H            3.72900732443549        1.01857373139764        0.87310411990546
H            3.30918240754816        1.70743947333576       -0.77793414567271
H            2.20637981552324        1.98925971502807        0.62305399711570
H            3.37288740356292       -1.65542935218934        0.67873194130015
H           -1.23719502453153        3.05961173263855       -0.22029236425236
H           -2.90824176938304        2.46249393750181        0.03015727352093
H           -1.69753944860403        2.36753710195135        1.37688254236870
H           -0.99176090280523       -3.20934364756636        0.65775613691219
H           -0.68810356027811       -3.20511180143341       -1.08987179995124
H           -2.33878045098959       -3.05649200468527       -0.47397638166203
H            1.18006920582265       -2.90419433005448        0.60678892302500
25
 energy: 15.298479657430 xtb: 6.6.1 (8d0f1dd)
C            2.90255789858555        1.26583360494670        0.17490826741379
N            2.20842429425426        0.04172420225154       -0.15475391986997
C            2.43612061835142       -1.22163357760005        0.38170027174310
N            1.25572227679765       -1.92360344770393        0.33978237463747
C            0.28495179816820       -1.10485232179625       -0.14487698904771
C            0.85779517153507        0.10053836010604       -0.47091881816380
C            0.05730246862543        1.21595406639523       -0.82730309427935
O            0.41682419558346        2.29385325015751       -1.31125071721248
N           -1.25742590700081        1.02482082595622       -0.26103829494281
C           -1.80239159013555        2.26752015278466        0.30156129596510
C           -1.89760440697635       -0.18580521192580       -0.14326868908785
O           -3.07853066567819       -0.30407050998057        0.08954327843382
N           -1.04769436612559       -1.33933213267821       -0.29656338270841
C           -1.33418736568987       -2.76099578391506       -0.31872929819891
H            3.73060707650422        1.03936086690383        0.83841754080538
H            3.26905094435860        1.75474826795515       -0.74197814759102
H            2.21249391796020        1.97683813249701        0.66376887292571
H            3.36332498070588       -1.62549029654165        0.71985585449474
H           -1.24097351157328        3.04122714968922       -0.23222325143749
H           -2.89733826524599        2.40523046823700        0.14876191513156
H           -1.58056012312555        2.33690618836951        1.39684541462113
H           -1.05785786320484       -3.21427447886095        0.64181705350612
H           -0.69302898959967       -3.19804438890144       -1.10004008496619
H           -2.36452199637069       -3.02484015815520       -0.54380516355658
H            1.16915407723177       -2.87258462601822        0.67682160753195
25