72
 energy: -99.398107468469 gnorm: 0.002583727587 xtb: 6.6.1 (8d0f1dd)
N           -2.83316949668046        2.26176984180930        2.76493171503865
C           -2.34335572019736        2.49279736833340        1.63339374105670
C           -2.91728490808840        1.94866085437121        0.35232023724634
C           -3.49798883866305        0.54360216689304        0.43865519610927
C           -4.07697282439621       -0.00433049897958       -0.71026293898146
C           -4.60274634660689       -1.28521202125031       -0.72283324618279
O           -5.19099706232827       -1.87657906569452       -1.78387870697431
C           -5.39395715155922       -1.13579251872985       -2.96358458639672
C           -4.53805151856840       -2.08018310351668        0.45363544729729
O           -5.06403223690366       -3.31679837058389        0.35135081239744
C           -5.10321464540968       -4.14041604578852        1.49340706738049
C           -3.95746523260061       -1.53422768973690        1.58723253279602
C           -3.44997551743108       -0.24174507967993        1.57953229776435
C           -1.81770117474454        1.96424789552585       -0.73903550050222
C           -0.88303394221075        0.75212115311099       -0.71246670526303
C           -0.16937592702956        0.59246171692247        0.63766848116155
N            0.59527406450459       -0.63202963026490        0.72236050151977
C            2.03255289757132       -0.55255373923026        0.65706573565412
C            2.55055293283284       -0.31067766979661       -0.77490828912046
C            4.03482679911857       -0.08199080741540       -0.73740037384317
C            4.53982948249189        1.20151934006363       -0.60552773205755
C            5.90534147387318        1.42260334259408       -0.52429389320453
C            6.79538835093229        0.35902724029029       -0.56759008343197
O            8.13485825427317        0.45545562055332       -0.49227937121126
C            8.72521848855629        1.72937059545173       -0.37170115522093
C            6.28630864105962       -0.96292321098428       -0.70430475289544
O            7.21844707869913       -1.93416149308432       -0.74404627927901
C            6.81309068454561       -3.27280673472582       -0.90530142621100
C            4.91616425407053       -1.15871902067754       -0.78236119362227
C           -0.03017754466282       -1.79024860386828        0.80057724474131
C           -4.07297737328637        2.93779636904746       -0.03599314959880
C           -5.27172041050113        2.75864053829165        0.89032663378612
C           -3.62994653230061        4.40043854923952       -0.03670417915958
H           -4.12857552025731        0.58430610013939       -1.61088307129767
H           -5.99547777933964       -0.24093335472005       -2.77708897824508
H           -5.93542599124466       -1.79934334668111       -3.63500489499521
H           -4.44467071265611       -0.84972984509729       -3.42825771501910
H           -5.67558634013407       -3.67681760482808        2.30219880825767
H           -5.60063479822089       -5.05516922753751        1.17712941870147
H           -4.09643531824640       -4.38069514724789        1.84995719935641
H           -3.90461356833970       -2.10560245600626        2.49986722626172
H           -3.04975177807325        0.15764305842108        2.49652116312580
H           -2.28658432386229        1.99849472729597       -1.72288256982098
H           -1.22037618652629        2.87193478390952       -0.63743378028945
H           -1.45355298532501       -0.15512650038014       -0.91550448450961
H           -0.14981240143813        0.86738211080396       -1.51390786318354
H           -1.49787503259643        3.17767779417202        1.47625991425799
H            0.50445165674224        1.43391620637659        0.80578588165536
H            2.46202088437560       -1.48000074192443        1.04065997015645
H            2.36972245070470        0.26906242369110        1.29580885597851
H            2.06196038876314        0.56912936367144       -1.19325921560161
H            2.30551778091588       -1.17391798732061       -1.39510268346174
H            3.86847708548754        2.04636524833332       -0.57471698631665
H            6.26794109100918        2.43275139625279       -0.42898515643843
H            8.40578213382346        2.23370018461835        0.54534843820469
H            8.49458679390153        2.36003112350679       -1.23552667388061
H            9.79788753071961        1.55150501056886       -0.33054314585682
H            7.73189440539881       -3.85539885607204       -0.92683380790533
H            6.19263359850532       -3.60790277394396       -0.06805290370671
H            6.27072536471818       -3.41700777141143       -1.84475755418238
H            4.51819299456532       -2.15533258022852       -0.89072473139969
H            0.53300091412795       -2.70212727760295        0.84574176458449
H           -1.10266521451037       -1.81214904641842        0.84815100178385
H           -0.92987990572320        0.57480973541657        1.42153234048507
H           -4.38221238658501        2.68467383506582       -1.05464954947598
H           -4.96743697846591        2.85374282950681        1.92997000656108
H           -5.72476385867558        1.77963300581872        0.75948254638538
H           -6.02016268929907        3.51708731221056        0.67661036963582
H           -3.40782450976380        4.74289983647106        0.97081664135211
H           -2.75802436040185        4.56025950693153       -0.66564616267797
H           -4.43647369538017        5.01704911697729       -0.42627556166509
H           -2.41317214005221        2.73822204122504        3.55747670494801
