25
 energy: 0.000000000000 xtb: 6.6.1 (8d0f1dd)
C            3.23720132972391        1.16630909158653        0.08434468864950
N            2.29877796055224        0.07527476373246        0.03981602671198
C            2.58028186251803       -1.21425391179017        0.03006175752192
N            1.43813944744728       -1.93419254010258        0.00098261751768
C            0.39035684826767       -1.05887462812143       -0.00790371763344
C            0.93510047688824        0.21347817468824        0.01709077332874
C            0.09450143016486        1.40504290868848       -0.00410946993748
O            0.49712746915594        2.54126690785742       -0.00342325656480
N           -1.25076628431515        1.06271869620815       -0.03085477937476
C           -2.21907191394203        2.15522079838987       -0.05001256521996
C           -1.81739470187490       -0.20012724136556       -0.04692818139228
O           -2.99983858926755       -0.37846413507442       -0.07008877579474
N           -0.92618577614240       -1.30210203518959       -0.03682761236648
C           -1.46982251276835       -2.64643077634382       -0.06029819901142
H            3.71247229913541        1.21471443890471        1.06488839270555
H            4.00791460421487        1.03430799217987       -0.67357688121503
H            2.69909982127087        2.09770098766290       -0.09130154035862
H            3.56654087521359       -1.63682977417947        0.04233139674524
H           -1.67107945562430        3.09322822573871       -0.02552706696334
H           -2.82428927394145        2.09428605349656       -0.95318074103337
H           -2.87644002486466        2.07745706351925        0.81450059976605
H           -1.17061985538665       -3.19584861009707        0.83242224714061
H           -1.14560246782873       -3.17511580834413       -0.95688266944647
H           -2.55549768731684       -2.55659960601237       -0.07459039105944
H            1.38130842369251       -2.94313824728853       -0.01389874052104
25
 energy: -5.186290156532 xtb: 6.6.1 (8d0f1dd)
C            3.24721309788932        1.17016717698455        0.08138817981533
N            2.30884141786654        0.09977706968302        0.03011394445976
C            2.60410089282073       -1.24424385694847        0.03197521159568
N            1.42147316650291       -1.94295960157506        0.00291215096629
C            0.40166862001254       -1.06253015127221       -0.00763226525910
C            0.92225525724448        0.22410261894431        0.00938894644620
C            0.12025340399971        1.38900563501167       -0.00529915287723
O            0.50530518755776        2.56225362297431       -0.01003767627581
N           -1.27005407417953        1.07076823193062       -0.01571322984399
C           -2.22258425777944        2.17841804160509       -0.03729552483568
C           -1.81556846501560       -0.18328416010429       -0.03817013539813
O           -3.01392034067005       -0.38296335414132       -0.06400471603537
N           -0.93874361291292       -1.29664577499788       -0.03212730409930
C           -1.46590448582819       -2.64416173912864       -0.05673060960937
H            3.72399799775965        1.22019434790715        1.06481832677422
H            4.01768758455222        1.03122304190154       -0.67901024559418
H            2.70259432285887        2.09509573599436       -0.10016891942081
H            3.58051485507051       -1.65768690089198        0.04232591928055
H           -1.74807511797141        3.15890492870291        0.03322116038429
H           -2.76607079605030        2.17109375497167       -0.97409256176066
H           -2.93636650561746        2.04047781163551        0.77097485633743
H           -1.16173978313324       -3.19880451730115        0.83500370473805
H           -1.13328177947170       -3.17962581464466       -0.95032095093973
H           -2.55166801553426       -2.56541272845739       -0.07416870480730
H            1.36635913696454       -2.94751679964364       -0.00956575928103
25
 energy: -2.829192325079 xtb: 6.6.1 (8d0f1dd)
C            3.25265836794312        1.16649419211133        0.07577355032593
N            2.31479955980119        0.09503049708096        0.02150216821458
C            2.60833676996790       -1.25232479813064        0.03110699117220
N            1.42178414992957       -1.94913321657708        0.00540523375654
C            0.40476045428621       -1.06554224144751       -0.00592875826893
C            0.92551338786108        0.22020000640842        0.00407366614220
C            0.12610496477657        1.38823886361331       -0.00609084720706
O            0.51816659776480        2.55961133514065       -0.02101198706422
N           -1.27229853593284        1.08828635877035        0.00746572620274
C           -2.22939128893796        2.20582856154060       -0.02666893371104
C           -1.81565584024282       -0.17323767474753       -0.02149579169131
O           -3.01254151596955       -0.38443741976985       -0.04940456562360
N           -0.93835453901471       -1.29270894681294       -0.02237634334079
C           -1.45999767378068       -2.64552171945633       -0.05221038896628
H            3.72859132688785        1.22062065447789        1.05999244983652
H            4.02437913167201        1.02627469611804       -0.68288101530583
H            2.70530731095176        2.08932493855121       -0.10931770232009
H            3.58442046444370       -1.66873363673276        0.04152330428567
H           -1.83824095750192        3.22390459180625        0.10304221753699
H           -2.69577155259355        2.24658270637138       -1.00326435766335
H           -2.99517930697669        1.99936963980158        0.71796490696997
H           -1.15503796716153       -3.20225375991906        0.83868277366885
H           -1.12256480279810       -3.18343382226541       -0.94376167188167
H           -2.54628853422896       -2.57595773105912       -0.07353223861269
H            1.35991882495450       -2.95375124786637       -0.00411370208483
25
 energy: 0.505031410641 xtb: 6.6.1 (8d0f1dd)
C            3.25764024366902        1.16084660372546        0.06929535112846
N            2.31960482309080        0.08898449803491        0.01131869506677
C            2.61143868314966       -1.26125357917088        0.03090880442919
N            1.42108059196382       -1.95576084252727        0.00883937904704
C            0.40725572050410       -1.06932329284362       -0.00337756409161
C            0.92776557567063        0.21540215753476       -0.00000270126388
C            0.13001182146734        1.38576644128629       -0.00696099420786
O            0.52693299314425        2.55561863002853       -0.03565029345469
N           -1.27661356558032        1.10264480347034        0.03343506772373
C           -2.24003386435159        2.23254553755143       -0.01516037376064
C           -1.81674632899572       -0.16663880913310       -0.00413315573813
O           -3.01170231712956       -0.38878986449825       -0.03467067021880
N           -0.93738019223087       -1.29048306719241       -0.01301987724889
C           -1.45335916559639       -2.64719261294083       -0.04765283150251
H            3.73246662558627        1.22038968626690        1.05407235920996
H            4.03156086078550        1.01963853645398       -0.68653792900684
H            2.70949068478035        2.08272108107274       -0.11980538805656
H            3.58704740197896       -1.68036198078885        0.04195392339476
H           -1.93285687370572        3.28060049315415        0.17752725170729
H           -2.62003090287669        2.32188986144162       -1.02778238087248
H           -3.05049530810408        1.95758901443714        0.66016640393860
H           -1.14666283187726       -3.20400618939863        0.84318970422468
H           -1.10998682445681       -3.18589526943061       -0.93748873689139
H           -2.54020422808948       -2.58630466433657       -0.07308313440695
H            1.35287933435818       -2.96031139607495        0.00283319561693
25
 energy: 4.527857164355 xtb: 6.6.1 (8d0f1dd)
C            3.26172438174779        1.15455816827346        0.06287863418417
N            2.32348111400596        0.08157280898947        0.00147107285718
C            2.61473172040488       -1.27071061184560        0.03040460641708
N            1.42128630847996       -1.96345769334857        0.01215371868848
C            0.40999294801294       -1.07485764013998        0.00001702477271
C            0.92944967677647        0.20927059397663       -0.00240209198089
C            0.13176818095586        1.38068411264818       -0.00623564419249
O            0.53100215679956        2.54906964012312       -0.05088742301796
N           -1.28258799816843        1.11409187795427        0.06109435712883
C           -2.25342080432042        2.25872604204953       -0.00427586893051
C           -1.81815377775395       -0.16240662061669        0.01352828847634
O           -3.01091824479557       -0.39513376401999       -0.01993450099328
N           -0.93525232670955       -1.29045841642236       -0.00571969519979
C           -1.44693380803660       -2.65003319605488       -0.04308543512523
H            3.73587931617028        1.21895138761038        1.04792257858991
H            4.03794879962524        1.01242062318900       -0.69013332974468
H            2.71385404194992        2.07622676385818       -0.12963182540425
H            3.59006040089609       -1.69191121785671        0.04127083269296
H           -2.02964770749716        3.32722308723675        0.25604109459827
H           -2.54092451326705        2.39923172872959       -1.04493464605945
H           -3.10352825091311        1.92120887964460        0.59525013533804
H           -1.13887891141145       -3.20684851899813        0.84776700887861
H           -1.09825610533936       -3.18936017045354       -0.93116338267140
H           -2.53420759400143       -2.59671730546548       -0.07218995680345
H            1.34955445712558       -2.96811683812347        0.00949794582342
25
 energy: 9.567699900192 xtb: 6.6.1 (8d0f1dd)
C            3.26335054455627        1.14809905919879        0.05582278342567
N            2.32559588402636        0.07270039283555       -0.00793782353928
C            2.61749904980047       -1.28136680222385        0.02947563430762
N            1.42124118156917       -1.97286672664868        0.01372241489166
C            0.41190012722915       -1.08215811182998        0.00219617818522
C            0.92968906447568        0.20149790616921       -0.00491068407769
C            0.12773904895682        1.37264444753514       -0.00578370299983
O            0.52912074128624        2.53946862869629       -0.06029124479026
N           -1.29175453188461        1.12377769002424        0.08982916731684
C           -2.26877999283744        2.28707139129745        0.00748235159797
C           -1.82106862156941       -0.16049272483194        0.03232288826373
O           -3.01127595535684       -0.40366643089527       -0.00538564990716
N           -0.93412456532463       -1.29183363174310        0.00115881976344
C           -1.44052615963308       -2.65364292941834       -0.03824411204215
H            3.73507574287366        1.21933823236856        1.04162472122533
H            4.04353576553852        1.00590040911375       -0.69293948225542
H            2.71501272704595        2.06874398655272       -0.14172345591245
H            3.59285066604765       -1.70419050166959        0.04097907859873
H           -2.13013063582642        3.37192680987565        0.33036604007469
H           -2.46154661726045        2.47830413247739       -1.04898957295804
H           -3.15032324149687        1.88839400449433        0.52468546118241
H           -1.13091476530912       -3.20794182276583        0.85396032861995
H           -1.08540146186272       -3.19401604457425       -0.92378751064365
H           -2.52804847100916       -2.60700731960335       -0.07174522705257
H            1.34803546498539       -2.97788964138921        0.01403224215502
25
 energy: 15.597975382300 xtb: 6.6.1 (8d0f1dd)
C            3.26507953139350        1.14145552685899        0.04865944403762
N            2.32664888130595        0.06427289260502       -0.01402160105059
C            2.62070579016924       -1.29111065732438        0.02814543246628
N            1.42262213161521       -1.98199196701863        0.01492894030015
C            0.41407785108534       -1.08950886532494        0.00451630278387
C            0.92899858986478        0.19475868536207       -0.00449064874046
C            0.12090959915310        1.36705827344207        0.00556142931429
O            0.52344929406977        2.53146224779948       -0.06665001059595
N           -1.30111484712346        1.13008761424541        0.12248317514987
C           -2.28828456127499        2.31440530319019        0.01803507827497
C           -1.82390324227015       -0.16140481048452        0.05139247865961
O           -3.01144402854969       -0.41404044458991        0.00967354430933
N           -0.93222210837085       -1.29453960790612        0.00578040924875
C           -1.43440536894345       -2.65791162399588       -0.03525998132010
H            3.73379924544006        1.21867555329933        1.03512969982727
H            4.04929596693034        0.99857434886733       -0.69589822151143
H            2.71805324205435        2.06211394435147       -0.15368132786241
H            3.59612569273944       -1.71538944564379        0.04148285339195
H           -2.23766215674596        3.41510902090824        0.39020773441564
H           -2.37676779010364        2.55021644731438       -1.04580967804291
H           -3.19628119113626        1.86726808800297        0.44689210103675
H           -1.12369283807124       -3.21023837771064        0.85808858517150
H           -1.07365405288716       -3.19866802176417       -0.91850717704732
H           -2.52214146054019       -2.61674614555191       -0.07243454199134
H            1.35207853812669       -2.98763158851893        0.01873843202298
25
 energy: 22.222869086610 xtb: 6.6.1 (8d0f1dd)
C            3.26854275441308        1.13340395656450        0.04178796989321
N            2.32785093842686        0.05571567189972       -0.01749305216947
C            2.62389802636396       -1.30078813764361        0.02737553821945
N            1.42440654011856       -1.99040450522134        0.01695579271752
C            0.41613349846212       -1.09668679544245        0.00814398084193
C            0.92881932907074        0.18849268592986        0.00051349038120
C            0.11339612237715        1.36184622649661        0.01421399571924
O            0.51550259838740        2.52400932205991       -0.07580365959917
N           -1.30694180298294        1.12784873781587        0.15369647126767
C           -2.29950812288265        2.32369941887274        0.02994088675726
C           -1.82573066654540       -0.16858709300360        0.06597828520369
O           -3.01115753936746       -0.42640138671148        0.02027568402069
N           -0.93003140804090       -1.29957533245102        0.01061755455211
C           -1.42814560084983       -2.66359133585490       -0.03247201751865
H            3.73576397940616        1.21553505623719        1.02831790313110
H            4.05555638246417        0.98768016789272       -0.69957203790065
H            2.72494468950571        2.05529054149422       -0.16554835868520
H            3.59926415008529       -1.72671531007046        0.04089812987192
H           -2.35584973061750        3.44571669051619        0.43948492145366
H           -2.29357037902855        2.61749528860656       -1.02216639216402
H           -3.23317359183868        1.84701780474490        0.36309096867197
H           -1.11635736996629       -3.21468926952318        0.86136652436065
H           -1.06205386788694       -3.20257753337769       -0.91434980334187
H           -2.51610486181413       -2.62659180593698       -0.07243709238355
H            1.35867966984884       -2.99625591664454        0.02274867884451
25
 energy: 29.954966576721 xtb: 6.6.1 (8d0f1dd)
C            3.26933858962369        1.12623896084806        0.03646928927509
N            2.32831396671190        0.04738967504722       -0.02250317334606
C            2.62683102901827       -1.30990994018665        0.02419159050347
N            1.42751421315544       -1.99753828451087        0.01836429330449
C            0.41775555181147       -1.10424594071707        0.01286542879915
C            0.92932436474124        0.18168016785885        0.00645196251786
C            0.10778973926357        1.35399496763578        0.01861443920337
O            0.50772104153548        2.51528380828159       -0.08839903737896
N           -1.30768867596222        1.11861171737480        0.17578801498086
C           -2.29530360924709        2.32640957550714        0.03794918630033
C           -1.82735806876926       -0.17990583033061        0.07439167765909
O           -3.01139398312909       -0.43877543570440        0.02863653614121
N           -0.92832137816147       -1.30707543706159        0.01627728921293
C           -1.42029186678465       -2.67211590837778       -0.02978733816915
H            3.73378018370378        1.21027742849991        1.02371011059887
H            4.05783661322321        0.97995685610833       -0.70320960497543
H            2.72776549173714        2.04933611630416       -0.17248892637886
H            3.60172857281054       -1.73767075942010        0.03593032037284
H           -2.46821120329427        3.47651536446334        0.47082502420902
H           -2.19916019182335        2.67883765450547       -0.98883522312138
H           -3.24267076138464        1.83472275777721        0.27917963934427
H           -1.10498688114443       -3.22213538478806        0.86348735475764
H           -1.04760910946907       -3.20681804865169       -0.91114989853371
H           -2.50868401598248       -2.64223948650765       -0.07128509569210
H            1.36677337376347       -3.00347635643050        0.02521224598649
25
 energy: 38.876040211136 xtb: 6.6.1 (8d0f1dd)
C            3.26953612799597        1.11951068253905        0.03175694000227
N            2.32948450660756        0.03860210015646       -0.02350908729574
C            2.62945547053474       -1.31887006849457        0.02012051874794
N            1.43101015309843       -2.00314352983723        0.01795687827122
C            0.41886974444666       -1.11155359726266        0.01741286833725
C            0.93123861015566        0.17421947245366        0.01243992740958
C            0.10490549040124        1.34307521017483        0.02053848140721
O            0.50117654256632        2.50492097244674       -0.10175244832496
N           -1.30539180911930        1.10332317451331        0.19267170775426
C           -2.28428876209435        2.32286340894251        0.03728318925934
C           -1.82722333255260       -0.19401507943976        0.08533183981721
O           -3.01108088334218       -0.45059299577742        0.04020791788088
N           -0.92641882245338       -1.31592946051065        0.02014527553667
C           -1.41294589419336       -2.68090177893507       -0.02883148977256
H            3.73006975925148        1.20729681498331        1.01984962647252
H            4.06109909617895        0.97363496283438       -0.70492399129675
H            2.72913306993266        2.04291431496308       -0.18062307621613
H            3.60408817094457       -1.74957946537822        0.03252362709095
H           -2.57862648626520        3.51302648514373        0.50859202871042
H           -2.09555094901388        2.73174449719823       -0.95553092427621
H           -3.24150941197999        1.82669047252854        0.19180016263676
H           -1.09556271949663       -3.22811169314866        0.86526638682394
H           -1.03374461217638       -3.21243120185241       -0.90880388399339
H           -2.50179727577355       -2.65549352353422       -0.07255169343011
H            1.37567983185940       -3.00894177952512        0.02556444292710
25
 energy: 51.624891640787 xtb: 6.6.1 (8d0f1dd)
C            3.26990317501045        1.11272885968932        0.02726993372350
N            2.32873943870146        0.03212051295938       -0.02327851308424
C            2.62774018954998       -1.32276636683735        0.01401964028965
N            1.43313480439022       -2.00607678538403        0.01735001875408
C            0.41764483428777       -1.11730416099664        0.02109125093146
C            0.93073519253702        0.16782107953401        0.01809491649732
C            0.10139208199782        1.33281789951598        0.01930234192284
O            0.49468252009476        2.49515550603922       -0.11600635245395
N           -1.30576345540661        1.08633921657248        0.20080519434481
C           -2.27247851438261        2.29978976027778        0.02773076835094
C           -1.82737807913592       -0.21003936350826        0.09520980659769
O           -3.01142299079745       -0.46375666664300        0.05330604054286
N           -0.92564457876512       -1.32563030580797        0.02327232992148
C           -1.40624462325568       -2.69036006492391       -0.02742093243266
H            3.72672622503849        1.20379906807555        1.01606915727830
H            4.06484981073659        0.96607024589930       -0.70621810174086
H            2.73227089841499        2.03692431712186       -0.18949900926617
H            3.60231153343174       -1.75710406598910        0.02426662360377
H           -2.71205473954148        3.57223549582461        0.51217389208796
H           -1.99841238829429        2.77438490442240       -0.91188066899223
H           -3.24083354488811        1.81281575790333        0.10055885550860
H           -1.08629554010645       -3.23366459066857        0.86811409432432
H           -1.02065895883754       -3.21887648777838       -0.90587290597930
H           -2.49534350627095       -2.66801355193485       -0.07362045299785
H            1.38566645639438       -3.01210339788324        0.02345626003860
25
 energy: 75.854872929704 xtb: 6.6.1 (8d0f1dd)
C            3.27105162353403        1.10799042338494        0.02282345006084
N            2.32891986977142        0.02712102384394       -0.02044635180977
C            2.62573985557881       -1.31562121821279        0.00950029510732
N            1.44410384228002       -2.00845401979187        0.01780997038828
C            0.41921641536792       -1.12600655454415        0.02615765842655
C            0.93245176416516        0.15960178336143        0.02286032744872
C            0.09593818071315        1.32078049853581        0.00642892542940
O            0.49187497213366        2.47717717454025       -0.13707393299414
N           -1.29939055215334        1.05691348648444        0.16557276859022
C           -2.23272959214729        2.20738731715210        0.01095428413522
C           -1.81973676816500       -0.23729221400856        0.08943633337343
O           -3.00304956369089       -0.48620828038921        0.05508517984116
N           -0.91800813827010       -1.34327727245416        0.02584217715165
C           -1.40145474603701       -2.70468483941480       -0.02614695714116
H            3.72160660312234        1.20275862392379        1.01316529384664
H            4.06914835357933        0.95766823948989       -0.70621128259039
H            2.73513607479307        2.03133440759469       -0.20081794853161
H            3.60190697861126       -1.75053866979029        0.01625785372937
H           -2.92650866790108        3.76465989472726        0.51699129495173
H           -1.91427588907161        2.81736850826603       -0.81878008580525
H           -3.23450256619091        1.79733125848117        0.03469371125739
H           -1.08598095389203       -3.24306596716746        0.87268789947728
H           -1.00959734333799       -3.22833244561926       -0.90378655338114
H           -2.49011782921812       -2.67703029252275       -0.07729704015665
H            1.40150777488314       -3.01455104567266        0.02375328248898
25
 energy: 85.129114284893 xtb: 6.6.1 (8d0f1dd)
C            3.27231735617519        1.10453283616701        0.01902369260064
N            2.32538533772039        0.02794902384321       -0.01636522203209
C            2.62011203972268       -1.30453500055926        0.00817273896954
N            1.45233755382636       -2.00908788739708        0.01708832549729
C            0.41948633568457       -1.13174556427781        0.02574295741458
C            0.93120050168663        0.15527321566637        0.01931030327340
C            0.09206016830139        1.31190731932175       -0.00591811907796
O            0.49173005917935        2.46631737202200       -0.14063105561556
N           -1.29291365284547        1.03172553746879        0.12811923213723
C           -2.19923358458734        2.14018875609206       -0.00201499174739
C           -1.81384499151275       -0.26073944952051        0.07943078194620
O           -2.99869304099624       -0.50465397850442        0.06032803481832
N           -0.91160847257103       -1.35884829496111        0.02608309763754
C           -1.39693744490255       -2.71728823824926       -0.02436370039827
H            3.71701771456819        1.19812304050445        1.01153429803153
H            4.07317004583583        0.94640370367054       -0.70503787808364
H            2.74190422731308        2.02884162408436       -0.20995527853476
H            3.59826438104980       -1.73726536314509        0.00803057562646
H           -3.10642531372110        3.92223832810205        0.51421025627405
H           -1.83919266229322        2.86260350845723       -0.70989699130340
H           -3.22522723216581        1.79408003444820       -0.02948896682062
H           -1.08677020346652       -3.25203085677976        0.87741475306140
H           -0.99603326168561       -3.23336106346576       -0.90156560262950
H           -2.48522978851513       -2.68779252292894       -0.07944165664666
H            1.41309867298218       -3.01448921697624        0.01898967194700
25
 energy: 88.583844080467 xtb: 6.6.1 (8d0f1dd)
C            3.27140272036848        1.10119279242430        0.01486176472104
N            2.32252526994532        0.02784032101970       -0.01426302455782
C            2.61445254154200       -1.29792639765562        0.00750097513647
N            1.45741360351487       -2.01287603474904        0.01604381042465
C            0.42052163264181       -1.13779152563564        0.02132532710999
C            0.93119980103278        0.15149542185028        0.01108912697452
C            0.09750640031212        1.30352419471524       -0.01579131721221
O            0.50238985715090        2.46052572885636       -0.12668538649080
N           -1.28411744286600        1.01629023409794        0.09447984088698
C           -2.15977879596009        2.10831689484990       -0.01870621632509
C           -1.80918919604515       -0.27729407728405        0.06451997990899
O           -2.99783246994561       -0.51338001394451        0.05734275604968
N           -0.90854922163623       -1.37036416671576        0.02309588118283
C           -1.39510988623653       -2.72756669805279       -0.02328527200504
H            3.71058759623379        1.19505433260927        1.00950971832822
H            4.07597294501127        0.93721348707675       -0.70370287598919
H            2.74415509655494        2.02515653519961       -0.21987062481671
H            3.59403560618694       -1.72695394634908        0.00596293282578
H           -3.22698292427357        4.06569464289059        0.48232817011910
H           -1.75832925282839        2.90972251867565       -0.62078237593293
H           -3.19032110110618        1.79882657817818       -0.09637039264735
H           -1.08846899664203       -3.25967888797869        0.88036929071828
H           -0.98891682042588       -3.24006854351882       -0.89820879326512
H           -2.48210691811855       -2.69944611320821       -0.08246626027613
H            1.42044699471457       -3.01950196645641        0.01740132893915
25
 energy: 90.182151902876 xtb: 6.6.1 (8d0f1dd)
C            3.26886317647700        1.09826391314496        0.00988269346609
N            2.32116080984133        0.02655805708040       -0.01078257712003
C            2.61097194912107       -1.29395186791072        0.00457430475372
N            1.46171339316352       -2.01636653917933        0.01465160176849
C            0.42230042374706       -1.14406756601627        0.01627310856876
C            0.93337637958559        0.14751976236565        0.00576151194751
C            0.10821208656639        1.29568058288326       -0.02367670758299
O            0.51218492466695        2.45719200162653       -0.11219559255103
N           -1.27400299210661        1.00451465983700        0.06350629336831
C           -2.12487952421393        2.09051779697597       -0.03448512760073
C           -1.80387211960841       -0.29032721584815        0.04769936652943
O           -2.99612169361829       -0.51729948641514        0.04155182872454
N           -0.90588586986185       -1.38085508604107        0.01914113090038
C           -1.39295946435099       -2.73780228286239       -0.02219638011552
H            3.70494333523851        1.19505624402645        1.00463714595418
H            4.07401158439194        0.92870006461442       -0.70723306716101
H            2.74236763575875        2.02038259047928       -0.23237935604913
H            3.59149926686226       -1.71789440901482        0.00521302363430
H           -3.31486093161852        4.21276121788165        0.41690424129662
H           -1.68462754007287        2.95108856537525       -0.54305366124196
H           -3.15615271178103        1.80575002115798       -0.16544908495784
H           -1.08881351149051       -3.26933665190890        0.88280203589276
H           -0.99070829690205       -3.25161633605017       -0.89784963816866
H           -2.47903628951405       -2.70895146814695       -0.08481811288273
H            1.41421507356370       -3.02333125922058        0.01728146646274
25