25
 energy: 0.000000000000 xtb: 6.6.1 (8d0f1dd)
C            3.23720163006194        1.16630919979326        0.08434469647475
N            2.29877817382611        0.07527477071623        0.03981603040599
C            2.58028210190900       -1.21425402444508        0.03006176031096
N            1.43813958087363       -1.93419271955128        0.00098261760884
C            0.39035688448383       -1.05887472636071       -0.00790371836672
C            0.93510056364412        0.21347819449412        0.01709077491437
C            0.09450143893243        1.40504303904423       -0.00410947031874
O            0.49712751527797        2.54126714362870       -0.00342325688240
N           -1.25076640035757        1.06271879480407       -0.03085478223738
C           -2.21907211982101        2.15522099834493       -0.05001256985998
C           -1.81739487048744       -0.20012725993278       -0.04692818574614
O           -2.99983886758376       -0.37846417018721       -0.07008878229737
N           -0.92618586207120       -1.30210215599479       -0.03682761578324
C           -1.46982264913417       -2.64643102187190       -0.06029820460571
H            3.71247264356769        1.21471455160235        1.06488849150277
H            4.00791497605742        1.03430808813993       -0.67357694370751
H            2.69910007168542        2.09770118228144       -0.09130154882931
H            3.56654120610678       -1.63682992603973        0.04233140067262
H           -1.67107961066214        3.09322851271934       -0.02552706933167
H           -2.82428953597071        2.09428624779827       -0.95318082946668
H           -2.87644029173232        2.07745725625962        0.81450067533302
H           -1.17061996399332       -3.19584890659852        0.83242232437030
H           -1.14560257411436       -3.17511610292205       -0.95688275822323
H           -2.55549792440841       -2.55659984320617       -0.07459039797972
H            1.38130855184625       -2.94313852034425       -0.01389874181052
25
 energy: -5.398389193930 xtb: 6.6.1 (8d0f1dd)
C            3.24392566346551        1.17740192545907        0.08675464436729
N            2.30802274264975        0.09551011431190        0.03770626223125
C            2.59946422663736       -1.23264796867544        0.03006461018061
N            1.42733337691559       -1.94020527249940        0.00081146593447
C            0.39632789248546       -1.05603840095166       -0.00828935384251
C            0.93019328259601        0.22264573035952        0.01521604767649
C            0.10165549556083        1.39610691447049       -0.00530679563002
O            0.49830768381764        2.56196173702152       -0.00471472659377
N           -1.26038142942284        1.05074847643075       -0.03110863221611
C           -2.22058835599276        2.14690607380564       -0.04983056907997
C           -1.82366736157947       -0.20054667528182       -0.04729683173598
O           -3.02030735874457       -0.38292308643092       -0.07037816926157
N           -0.93420666594361       -1.30076816881173       -0.03706640169629
C           -1.47171661089953       -2.64286560453683       -0.06021811540792
H            3.72209410806978        1.22327356794876        1.06884417383375
H            4.01201113286955        1.04253418308560       -0.67621128279642
H            2.69721689742342        2.10206594410870       -0.08883527172604
H            3.57763445014702       -1.65904415784062        0.04272374060454
H           -1.65899930441078        3.07815834857620       -0.02534738503476
H           -2.82600484378492        2.09348051979035       -0.95422055583806
H           -2.87816233150348        2.07685791612463        0.81604349136781
H           -1.16810793509065       -3.19401397805322        0.83187774435848
H           -1.14309168704134       -3.17347323201599       -0.95600775600556
H           -2.55702752117691       -2.55217474230542       -0.07457437550937
H            1.36028912088915       -2.94392156191804       -0.01360206203306
25
 energy: -6.568298678939 xtb: 6.6.1 (8d0f1dd)
C            3.25050289846861        1.18364011768799        0.08907097618915
N            2.31421930384149        0.10670812117240        0.03407767455116
C            2.60873191368728       -1.24575688118292        0.03028936041230
N            1.41520630479173       -1.93882618701153        0.00113733893424
C            0.39950964149520       -1.05181939040947       -0.00896150415827
C            0.92651560667033        0.23040544284774        0.01250823445947
C            0.10753358169925        1.38456968892612       -0.00744739259290
O            0.48684044838653        2.56511895901301       -0.00759252414187
N           -1.27042317971601        1.04028883576735       -0.03169776781867
C           -2.22110407254107        2.14048765645019       -0.04958622764614
C           -1.82598451468665       -0.20165475710198       -0.04767290326004
O           -3.02656759208592       -0.38993327573942       -0.07041488710111
N           -0.93993225997842       -1.29745014165832       -0.03732267703180
C           -1.47156441485919       -2.63850699102695       -0.06003631723413
H            3.73534227550936        1.23239967659440        1.06981780130361
H            4.01805537066009        1.05670992859935       -0.67770322783178
H            2.69905943951290        2.10641352826049       -0.08221636958386
H            3.58019559813538       -1.67818875306847        0.04344134225466
H           -1.64297539732546        3.06238187213537       -0.02515005480947
H           -2.82764113062027        2.09439952258748       -0.95417736245428
H           -2.87914943396378        2.07793740942461        0.81704981058004
H           -1.16569160636724       -3.19124338916560        0.83151791061269
H           -1.14058620378132       -3.17110716956019       -0.95501415227053
H           -2.55688548731311       -2.54750619707487       -0.07451938263700
H            1.33900757831648       -2.94043902429477       -0.01236380257817
25
 energy: -6.670968163700 xtb: 6.6.1 (8d0f1dd)
C            3.25342098523327        1.18476722932790        0.09026415558914
N            2.31687309620850        0.10748841615411        0.03104662412064
C            2.60887180665860       -1.25104676627633        0.03043552901844
N            1.41036878749633       -1.93691802417980        0.00181816813297
C            0.39989266175649       -1.05017839955334       -0.00955373265721
C            0.92646615567727        0.23321176545591        0.01037600743929
C            0.10920970299915        1.38203871636880       -0.00968163092531
O            0.47574863752636        2.56544476558989       -0.01075972858006
N           -1.27570710269009        1.03726703577570       -0.03253940742910
C           -2.22126833952039        2.13934895030183       -0.04948445139600
C           -1.82697913975471       -0.20338323516667       -0.04803927916884
O           -3.02696863276610       -0.39633842990185       -0.07037399150809
N           -0.94076938849911       -1.29593039439988       -0.03748278045145
C           -1.46977639495964       -2.63712930243973       -0.05974883408131
H            3.74327700884756        1.23366848649441        1.06904082539820
H            4.02061642284130        1.06749538231023       -0.67894796873618
H            2.70113405938927        2.10888925319837       -0.07458125102467
H            3.57777685939856       -1.68838455802716        0.04390318845052
H           -1.63420081084008        3.05550229737692       -0.02523176484039
H           -2.82874037737083        2.09686619800323       -0.95360506117924
H           -2.87897435485083        2.08033409673984        0.81764128582186
H           -1.16375689614594       -3.18945419675745        0.83205790686720
H           -1.13847133274797       -3.16985837805385       -0.95458959019555
H           -2.55527233390658       -2.54607529605197       -0.07437463359007
H            1.32944358795583       -2.93859701011708       -0.01055568892748
25
 energy: -6.696528962792 xtb: 6.6.1 (8d0f1dd)
C            3.25590663327368        1.18467941466617        0.09200937343673
N            2.31990238277628        0.10587481820054        0.02637817165624
C            2.60694062657145       -1.25549024601394        0.03043446277876
N            1.40661914280147       -1.93468054092351        0.00308754264155
C            0.39945386243883       -1.04831440719861       -0.01056710547726
C            0.92768615316966        0.23577781416270        0.00690724243609
C            0.11065837104469        1.38207437778584       -0.01374483788385
O            0.46266440747090        2.56686525927477       -0.01635522044242
N           -1.28082279727064        1.03525082605013       -0.03429134022621
C           -2.22138548611244        2.13953060314390       -0.04945347214193
C           -1.82867585867042       -0.20565734048499       -0.04877944894442
O           -3.02738084995412       -0.40397842975080       -0.07023422497612
N           -0.94060253039245       -1.29453090889789       -0.03774365364289
C           -1.46640177895637       -2.63669242558549       -0.05910499082784
H            3.75255796620226        1.22865601521810        1.06789661815886
H            4.02093688463499        1.08156678169512       -0.68195226422265
H            2.70217539091695        2.11080374320893       -0.06076425076608
H            3.57316271290949       -1.69923210125412        0.04435561133375
H           -1.62600230609149        3.05006100178218       -0.02573311653034
H           -2.83058999521364        2.10149149270161       -0.95252532272393
H           -2.87804796174607        2.08462003344621        0.81866352607062
H           -1.16017845157258       -3.18746886407738        0.83340407986158
H           -1.13452236369071       -3.16902170753257       -0.95379546680197
H           -2.55216519331256       -2.54657196979847       -0.07401028857742
H            1.32032570670902       -2.93658463764640       -0.00704772804152
25
 energy: -6.678556747153 xtb: 6.6.1 (8d0f1dd)
C            3.25735341293312        1.18365172510270        0.09467637757670
N            2.32253366853424        0.10345771292183        0.02022423867657
C            2.60412004175830       -1.25816038893388        0.02992924436152
N            1.40398989141511       -1.93270036201977        0.00474736876957
C            0.39820089509955       -1.04602848618385       -0.01212142584348
C            0.92920757127657        0.23809631251617        0.00190166310828
C            0.11209032324111        1.38374475778294       -0.01992029564972
O            0.45247719587662        2.56939050145292       -0.02471814159129
N           -1.28448261663319        1.03403969749711       -0.03722566461246
C           -2.22137532423989        2.14062768795415       -0.04960422493858
C           -1.83102224510998       -0.20734589421783       -0.04996987128761
O           -3.02857885283120       -0.40990319017656       -0.06991191333540
N           -0.94030838833965       -1.29336630652985       -0.03816805933781
C           -1.46199654519656       -2.63732369732058       -0.05795485470551
H            3.76275439420693        1.21517391608843        1.06679222276090
H            4.01719348534767        1.09753200858185       -0.68716710414553
H            2.70077471823691        2.11156712114778       -0.03967744931838
H            3.56776785141624       -1.70826321598785        0.04454108627149
H           -1.62057691829511        3.04741348426401       -0.02695741890665
H           -2.83324840245235        2.10714549828073       -0.95101050154633
H           -2.87598636321719        2.08960534642621        0.82028300809311
H           -1.15468349459850       -3.18555765152517        0.83556789626047
H           -1.12845603818799       -3.16915777011014       -0.95214686495474
H           -2.54804994334168       -2.55002580610946       -0.07329533749767
H            1.31251635103710       -2.93458439872989       -0.00178008206013
25
 energy: -6.494623719477 xtb: 6.6.1 (8d0f1dd)
C            3.25926082573187        1.18059408106282        0.10276061954984
N            2.32710700948661        0.09855235036161        0.00403265202983
C            2.59756212905860       -1.26226390617399        0.02752813245313
N            1.39823183463527       -1.92879202421546        0.00861879524391
C            0.39456311491096       -1.04037376714092       -0.01669622677174
C            0.93180323129237        0.24314568796224       -0.01209798667872
C            0.11516709938581        1.38810332578418       -0.03747906234459
O            0.43561024150878        2.57561857260073       -0.04848532301485
N           -1.29087138295470        1.03223929850935       -0.04598765110786
C           -2.22124731622573        2.14379308533881       -0.05037866247763
C           -1.83677276681603       -0.20950176187931       -0.05339999067901
O           -3.03228280004106       -0.41945720115838       -0.06876045369683
N           -0.94049398263485       -1.29086339088693       -0.03949850914047
C           -1.45123818710093       -2.63966491149643       -0.05434783747464
H            3.78901379787987        1.17231948321841        1.06409561882524
H            4.00211443777712        1.13779374005392       -0.70208600590636
H            2.69451992935528        2.11242229475133        0.02113956171950
H            3.55574757907015       -1.72550769148971        0.04433147694375
H           -1.61173767578305        3.04467561879617       -0.03125883913893
H           -2.84068570970181        2.11968652263071       -0.94692982809617
H           -2.86923452776049        2.10028379273473        0.82496450074096
H           -1.13970954307003       -3.18082196644811        0.84188163185844
H           -1.11189833103113       -3.17091460974606       -0.94652844316289
H           -2.53796021695053       -2.56183094238600       -0.07090831090068
H            1.29564587791377       -2.93020707861163        0.01252403737404
25
 energy: -4.314433651701 xtb: 6.6.1 (8d0f1dd)
C            3.26320979015769        1.17061119543995        0.13007159189775
N            2.33826442530802        0.08546208887507       -0.04705894108297
C            2.57842376704484       -1.27214868848138        0.01866030087947
N            1.38105482174321       -1.91803100431824        0.01969169163603
C            0.38320166203854       -1.02355583282111       -0.03207782057479
C            0.93790536575171        0.25749675464578       -0.05762901453400
C            0.12364210327219        1.40104219811962       -0.09459306425669
O            0.39429169802918        2.59338499603370       -0.12596987057836
N           -1.30758214057129        1.02857149347816       -0.07505631905753
C           -2.22106035425135        2.15375322754026       -0.05322312165638
C           -1.85372246069819       -0.21343013104194       -0.06458840081670
O           -3.04386248261600       -0.44240929062251       -0.06454640273886
N           -0.94239409711457       -1.28349603682441       -0.04420579387267
C           -1.41914081109498       -2.64705377723547       -0.04213973420127
H            3.87177289308634        1.03038883530745        1.05398652249475
H            3.94816332931137        1.26372514398539       -0.74763962200284
H            2.67452109237839        2.11284707015925        0.21955346141518
H            3.52132649833647       -1.77136391667115        0.04275315806797
H           -1.59013428945096        3.04025613486969       -0.04644899650942
H           -2.86520339385336        2.15496856014193       -0.93352590071628
H           -2.84624142088158        2.12965857751755        0.84039776725269
H           -1.09318777563164       -3.16543976974198        0.86278517268253
H           -1.06033615448888       -3.17783045843917       -0.92700217658194
H           -2.50778796088471       -2.60083049720464       -0.06253196157443
H            1.24709056301555       -2.91754827053971        0.05737137057602
25
 energy: -5.469852084633 xtb: 6.6.1 (8d0f1dd)
C            3.26078018981713        1.17101273177490        0.12685490788305
N            2.33378893219510        0.08932544400619       -0.03770731632139
C            2.58229934329560       -1.26704410525409        0.02060883859979
N            1.38523162834997       -1.92067785400201        0.01678282718965
C            0.38490537569745       -1.02683834465982       -0.03095958726109
C            0.93553223277531        0.25386577024224       -0.05194033163955
C            0.12091741668766        1.39917016813068       -0.08695224881230
O            0.41030127357824        2.58915651896189       -0.11560126091349
N           -1.30206424132818        1.03111524642800       -0.07094850051394
C           -2.22168023469809        2.15230572549428       -0.05115874043636
C           -1.85032911067383       -0.21066251611424       -0.06293519478569
O           -3.04210009486268       -0.43306106330857       -0.06414266818705
N           -0.94286706776326       -1.28515648481116       -0.04453345827166
C           -1.42550150779480       -2.64600172561403       -0.04443946525147
H            3.84961152974963        1.05802757089047        1.05347400849312
H            3.95636692468036        1.23349072157670       -0.72760592609973
H            2.68294362228010        2.10536652711985        0.17778507378948
H            3.52925561441730       -1.75579692904410        0.04229079801374
H           -1.60025712771150        3.04505171776060       -0.04315962493524
H           -2.86286966197545        2.14666341748888       -0.93284632348168
H           -2.84836574333205        2.12093494786318        0.84056066699905
H           -1.10090322837232       -3.16779833725984        0.85891709372205
H           -1.06910135421622       -3.17731115298451       -0.93001344984363
H           -2.51350926721178       -2.59629022375312       -0.06384543610918
H            1.25982922435233       -2.91981916876025        0.04854921432079
25
 energy: -5.235396123501 xtb: 6.6.1 (8d0f1dd)
C            3.25860199704522        1.16199866229498        0.14736916115395
N            2.33160241745431        0.08887196789924       -0.06531421514844
C            2.57502856965421       -1.26327423492946        0.01690836320199
N            1.37832202019283       -1.91743044748726        0.01915478026254
C            0.37888498828847       -1.01945139034084       -0.04515170056419
C            0.93375964472882        0.25803717418887       -0.08476469825398
C            0.12084697041362        1.40532887451195       -0.12668492737100
O            0.41474529251315        2.59394421608742       -0.17090147147286
N           -1.30362043436779        1.03473613517388       -0.09086982794488
C           -2.22350866127984        2.15762209163508       -0.04815462599025
C           -1.85703483772107       -0.20602159228671       -0.07022853224552
O           -3.04836293937484       -0.42839158296412       -0.05784682328908
N           -0.94703647967960       -1.28192770601159       -0.05143512779516
C           -1.41177759660190       -2.64931208088020       -0.03770186098233
H            3.87342812312831        0.98678047601548        1.04060396031755
H            3.92365705328052        1.28200611035184       -0.71597172277707
H            2.68733670601019        2.08402762115315        0.27176010874778
H            3.51866093696866       -1.75687007636095        0.03865320403682
H           -1.60645589455601        3.05337512379959       -0.05097581856160
H           -2.88394630038020        2.15671613101027       -0.91533875989307
H           -2.82889258515537        2.12378775186968        0.85838396087738
H           -1.07624200300072       -3.15649723281963        0.87074503732045
H           -1.04218018306542       -3.18323290483872       -0.91689007537063
H           -2.49977281786764       -2.62222154417082       -0.05815918833640
H            1.24617068130805       -2.91357294072901        0.06984469622527
25
 energy: -4.131107786588 xtb: 6.6.1 (8d0f1dd)
C            3.25846597288958        1.15169535776784        0.17282630025029
N            2.33214470392124        0.08660449908240       -0.10190384301185
C            2.56534569377770       -1.26337947518846        0.01208998236401
N            1.36780686378792       -1.91207108202251        0.02256717506276
C            0.37207835065156       -1.00993053739271       -0.06279453591198
C            0.93307081045323        0.26463624663373       -0.12566193682501
C            0.12172586404795        1.41211288271785       -0.17742136806022
O            0.40750170129038        2.60065742523986       -0.24208495278630
N           -1.30932720495590        1.03705051853071       -0.11638776684568
C           -2.22514131946145        2.16374073712643       -0.04552139560651
C           -1.86549362000816       -0.20284826608739       -0.07959626432025
O           -3.05535479738593       -0.42929175761497       -0.05026481696324
N           -0.95118389162867       -1.27700281283361       -0.06011937530226
C           -1.39368266643005       -2.65240396395577       -0.02856883862849
H            3.91173642570469        0.89261900288353        1.02774346514109
H            3.88612976878128        1.35613590586286       -0.71257510277247
H            2.68756325731417        2.06503178257254        0.40282972850005
H            3.50346025298871       -1.76776991440919        0.03419883392164
H           -1.60578275432416        3.05813635067178       -0.06237881670808
H           -2.91076127887373        2.17134237853696       -0.89408574852250
H           -2.80437791683799        2.13115996220286        0.87948861930891
H           -1.04626924668889       -3.14069825197804        0.88698696839710
H           -1.00922582381685       -3.19010081285674       -0.89980461999791
H           -2.48186110767486       -2.65095733877245       -0.05052141841871
H            1.22364663041410       -2.90544023454535        0.09799362388288
25
 energy: -3.249838259190 xtb: 6.6.1 (8d0f1dd)
C            3.25741696456412        1.14146629418992        0.19782544745683
N            2.33089656277781        0.08702014416978       -0.13315765714685
C            2.55838374019157       -1.26157018755694        0.00943435778505
N            1.35942635981113       -1.90779403507242        0.02312988443538
C            0.36708899925095       -1.00268538281450       -0.08141690577600
C            0.93113018576027        0.26912323043931       -0.16467197147493
C            0.12003865654328        1.41665960047564       -0.22681560976407
O            0.40537122098951        2.60429877895416       -0.31286234556506
N           -1.31249340428668        1.04025610647723       -0.14080982965213
C           -2.22640950309306        2.16848240160497       -0.04061535058601
C           -1.87110869394103       -0.19871336532631       -0.08835335438066
O           -3.06036209793805       -0.42553887079604       -0.04126048548625
N           -0.95518535994490       -1.27272860828603       -0.07081679011517
C           -1.37975612468928       -2.65378815473138       -0.02065227617913
H            3.93410615796311        0.81764477922246        1.01593585171282
H            3.85680102164922        1.41458397582605       -0.69296747673146
H            2.69199469617549        2.03924375608467        0.51031051111874
H            3.49376502442973       -1.77074419444305        0.02822306895861
H           -1.60818330796666        3.06391630099607       -0.07253367216241
H           -2.93832889791613        2.18042699766445       -0.86882275513802
H           -2.77804491067192        2.13318514023485        0.90291190223076
H           -1.02233109130577       -3.12407729550224        0.90173343815412
H           -0.98298612563456       -3.19679116246888       -0.88376954191764
H           -2.46745621078168       -2.67448396135512       -0.04314602176149
H            1.20844080599935       -2.89836368581443        0.12020147813223
25
 energy: -0.024815201812 xtb: 6.6.1 (8d0f1dd)
C            3.25558618621544        1.11816448226867        0.25293571198728
N            2.32051599071939        0.09725496115718       -0.20692162519551
C            2.54924376598113       -1.25370470601757        0.00644469475601
N            1.34063916062432       -1.90199164332412        0.02393130800184
C            0.35867683580018       -0.99018721520127       -0.12375141854023
C            0.92018970142945        0.27525305533415       -0.25319017027976
C            0.10926274085305        1.42132565804898       -0.33257572713209
O            0.42132213723711        2.60701849384591       -0.46877892312088
N           -1.31406804739443        1.05034384541882       -0.19520225569507
C           -2.23053256948572        2.17685552648525       -0.03131997056414
C           -1.87890159016672       -0.18409106608460       -0.10702575172945
O           -3.06981752860622       -0.40269843969622       -0.02123818032679
N           -0.96783597231507       -1.26401118307007       -0.09492974510659
C           -1.35556282814300       -2.65387826703713       -0.00242750406477
H            3.98208661564762        0.64203382266213        0.97477190657910
H            3.78338918233800        1.54917225934783       -0.64494159836458
H            2.71021018051190        1.97281373506620        0.76281853080982
H            3.48437400666901       -1.75828626840531        0.01482637724118
H           -1.62121642674632        3.08121575581201       -0.09838694318535
H           -3.00135917150321        2.18839967957435       -0.81413413633283
H           -2.72057368996371        2.12551927258925        0.95367583187778
H           -0.97629106465197       -3.08550909462781        0.93497995557155
H           -0.93063307194951       -3.21142010832888       -0.84603125981538
H           -2.44091230174566       -2.72486578681699       -0.02625477614585
H            1.18442242658057       -2.88569816682846        0.16975956492198
25
 energy: 14.316852865982 xtb: 6.6.1 (8d0f1dd)
C            3.26320336770856        1.12063820742320        0.23159507971362
N            2.25506921378235        0.17445650461872       -0.21218820990554
C            2.60108787973294       -1.22806626573130        0.02745561277724
N            1.33458113077761       -1.93549379755831        0.02172556560789
C            0.38063930309033       -1.01961429378438       -0.11398800725893
C            0.86321250102216        0.24471704015794       -0.23949936841632
C            0.04345693840250        1.37468831938855       -0.26783896311682
O            0.58586001804717        2.56686855517181       -0.38685101729368
N           -1.27274358415794        1.07114561224911       -0.18026488000768
C           -2.24046233599270        2.16271843685209       -0.04764282637154
C           -1.84223544500767       -0.14410330468863       -0.09591615361391
O           -3.05874544340805       -0.29376900067911       -0.03135180427298
N           -0.99857675220320       -1.27305418551719       -0.08533783349950
C           -1.40689309363378       -2.63432840933551       -0.00340523367470
H            3.95542965386369        0.63356089141810        0.86153553409036
H            3.73325288364992        1.53339326727446       -0.62945280102358
H            2.77972810459180        1.91644749986687        0.77782997821030
H            3.57972903978820       -1.61666088558275        0.02133722171890
H           -1.66898999432435        3.11292193033455       -0.10666165381256
H           -2.98983378305531        2.10414375885945       -0.85140074524456
H           -2.75632360025768        2.04137871771463        0.92319388996405
H           -1.02781780352540       -3.09124035654503        0.92534926117402
H           -0.97529487043040       -3.20346243437025       -0.84272822999603
H           -2.48286283628468       -2.71276083231216       -0.02842458026121
H            1.25774417575958       -2.91549637305261        0.15996406066046
25
 energy: -1.032179732034 xtb: 6.6.1 (8d0f1dd)
C            3.24987826220995        1.11662435358860        0.24024682720101
N            2.29196733334796        0.12483028201023       -0.20294392317423
C            2.57035581707459       -1.23102775910202        0.01280797556678
N            1.35375159842501       -1.91695417435598        0.02189263389496
C            0.36653987870381       -1.01079999386629       -0.11707571160238
C            0.90033989809012        0.25506605512379       -0.24131223430307
C            0.09130068571340        1.40537564810051       -0.30235170322972
O            0.50781365032302        2.57729829719117       -0.40524774893117
N           -1.28947480895802        1.06865653988292       -0.18746027844738
C           -2.23688700786156        2.16938549396333       -0.04574150682317
C           -1.85980884010252       -0.16237707001983       -0.10159233515986
O           -3.05944953841338       -0.33944474438711       -0.02843954043450
N           -0.97851711789643       -1.26717423812772       -0.09049289212026
C           -1.38973524952507       -2.64325807341858        0.00038054778892
H            3.98980172156077        0.60935510792586        0.90628029470760
H            3.74263697210125        1.55580834570604       -0.65179116829260
H            2.74020990488172        1.94606241866542        0.79384842568983
H            3.53690185554135       -1.66749481538351        0.01113356891627
H           -1.66691194680468        3.10173456289282       -0.10667951460081
H           -2.98883860868969        2.13035092533806       -0.83912465597222
H           -2.74315414491942        2.07380472226248        0.92316966466566
H           -1.01846069144150       -3.08530777731400        0.93461071734793
H           -0.96679362718164       -3.20696679409756       -0.84010763796056
H           -2.47224009818109       -2.71168095695375       -0.02531292541852
H            1.24098876993771       -2.90283775345264        0.16833701683876
25