25
 energy: -42.314683580069 xtb: 6.6.1 (8d0f1dd)
C            2.61266679052597        1.62395176245079       -0.10533639951896
N            2.21674243452887        0.39727084202912       -0.03839964310340
C            4.21944736787733       -0.62123406578342       -0.14166619128577
N            1.34279678874970       -2.11126189138459       -0.02894462274887
C            0.42673588651707       -1.22105031921948        0.01670228498635
C            0.93012428008084        0.11155616848460        0.09786672787800
C            0.02751287186830        1.27301213467606        0.08263007807341
O            0.49402794481208        2.40950850403692        0.10019075367470
N           -1.31371279482442        1.00836277750315        0.05764923329595
C           -2.23074531150377        2.12797442597089        0.10179548919131
C           -1.86273582619656       -0.25746726976966       -0.00772444939633
O           -3.06322114945532       -0.40424557777763       -0.04322423988617
N           -0.98066321850835       -1.32940003784878       -0.03422028976428
C           -1.67243478734775       -2.61896866592960       -0.10284862160118
H            2.67907672098030        2.19556535096767        0.80365386541970
H            5.31739647576065       -0.28877219040214        0.58763894048848
H            3.13411605879897        1.91287594938133       -1.01180896922674
H            4.43173257123386       -1.64289248315798       -0.07089037140899
H           -1.62204391775536        3.02389828137501        0.18349472904739
H           -2.81727878038481        2.15818458943876       -0.81433437435148
H           -2.89332418506664        2.00581021170963        0.95580170580317
H           -1.46439990414975       -3.24308118754776        0.76725120928120
H           -1.43673185939507       -3.15673771830883       -1.02017732182626
H           -2.73560499742731       -2.36248909287351       -0.11500510310142
H            1.05853042899535       -3.06689496991608       -0.10576917897830
