25
 energy: 60.572889322867 xtb: 6.6.1 (8d0f1dd)
C            4.65153303991137        0.45998637387777        0.02144609183211
N            2.01236519655114        0.53095299526447        0.18285810765622
C            2.38968175305684       -0.70760995798232        0.18102961810691
N            1.33555327485825       -1.57919511021837        0.07319413949093
C            0.22704248162903       -0.78912889830301        0.00885644762429
C            0.64587099272680        0.53700652796231        0.03035199252469
C           -0.34077994392907        1.62002380660400       -0.03034309692571
O           -0.09973210846229        2.80976040742988        0.00718952522751
N           -1.65821444715082        1.12382869483437       -0.08552227781961
C           -2.77527699437562        2.03432414424102       -0.13016063400113
C           -2.05760281018428       -0.20194775408865       -0.08741755575833
O           -3.22682705074193       -0.51756947996718       -0.12061608564983
N           -1.07829638956823       -1.17853152244996       -0.05779455897923
C           -1.48756578294162       -2.57239319001287       -0.05649703907860
H            5.30427872821610       -0.11140183663776        0.62108221943920
H            5.23792189472497        0.91625033554957       -0.75499614542541
H            3.68998933878280        1.04495373423728        0.28078354165035
H            3.96847605276894       -0.46987745016902       -0.09672163073055
H           -2.41364151537198        3.05021254373145       -0.11934202491431
H           -3.34752253264433        1.84141425951212       -1.03707218104037
H           -3.43422500171450        1.86127614296107        0.72093372059066
H           -1.16658527718469       -3.06840469996491        0.86183652621558
H           -1.06585160968066       -3.08426486602832       -0.92158425418017
H           -2.57914057718629       -2.60810068064938       -0.11062991659329
H            1.33544177992310       -2.59089082779051        0.13244371274351
