72
 energy: -103.312574031069 gnorm: 0.077366297122 xtb: 6.6.1 (8d0f1dd)
N           -1.51636425990054        2.80750184249156        2.23567736635260
C           -1.57825446816747        2.17441531810214        1.15531656866706
C           -2.77070708030392        2.10330765490493        0.21257752377122
C           -3.30849883476276        0.66074265427109        0.31213814649897
C           -4.29145379234870        0.26000310070763       -0.58652359152969
C           -4.85011987316488       -1.00089214518942       -0.53725505704268
O           -5.82649081116080       -1.47139798695309       -1.37255568327216
C           -6.38477488237786       -0.59379038511164       -2.31032075872552
C           -4.40959348634372       -1.91909360329351        0.44423644717506
O           -5.02271788487012       -3.14020038725440        0.42207315881364
C           -4.69442135833903       -4.06209043698160        1.42906544148139
C           -3.43226306590529       -1.52289194291637        1.33501501291605
C           -2.88630714572505       -0.24425612517545        1.27152902372196
C           -2.17758827448507        2.32939930696411       -1.21379743289960
C           -1.25311032598377        1.18899938100618       -1.69751466418792
C            0.02111763034711        1.13305351913992       -0.92519508841345
N            0.64244487872089       -0.04529522882923       -0.57040920545078
C            2.01255074179872       -0.03973147090163       -0.16284582358161
C            2.94401856868947       -0.54959426203313       -1.28326866311005
C            4.36839926788901       -0.43918247768513       -0.84398518248307
C            5.08813100357188        0.72256994071660       -1.05066546381470
C            6.40210554375239        0.83290622395885       -0.60541955768255
C            7.01324317909730       -0.21521908801081        0.05851760144724
O            8.27984772047030       -0.21311222545967        0.52824771007682
C            9.08246643572443        0.92548444517213        0.31757486337628
C            6.28448855312543       -1.40456457928438        0.28477726798816
O            6.96036145809725       -2.38422859149212        0.93775035105739
C            6.32627038458136       -3.61526391098142        1.16865905900871
C            4.97707238587498       -1.49933208082808       -0.16431562208666
C           -0.04646207496897       -1.30721487504853       -0.61919698324484
C           -3.95523200374336        3.00884556530628        0.61817390526994
C           -4.49843058086241        2.69885392009978        1.99178348343893
C           -3.49072871428581        4.50039336756486        0.59427570310921
H           -4.63449217697938        0.95026746686527       -1.33912308734064
H           -6.82770474688619        0.28349375392805       -1.82669734986981
H           -7.16919599950891       -1.16698858075170       -2.80682405212430
H           -5.65082767567683       -0.26777718270771       -3.04870741386715
H           -4.90499366451709       -3.66621519283365        2.42477875271769
H           -5.32916566298219       -4.92676965754667        1.24552203247656
H           -3.64047187245469       -4.36547160707319        1.37758635382402
H           -3.08238552712386       -2.19152078754376        2.10009578189067
H           -2.13743436794818        0.03614378253947        1.99185868430449
H           -3.01496505580050        2.41914834974224       -1.91163225058377
H           -1.61272984617272        3.26212333638647       -1.22275212198095
H           -1.78030059524605        0.24105825757104       -1.64980954686127
H           -1.02214381427997        1.38381087782962       -2.74459355730245
H           -0.68813192417958        1.72639112664010        0.70443334634288
H            0.65578306738570        1.99146962424208       -0.97578073757844
H            2.13041941746375       -0.66643599794682        0.72627545212142
H            2.30537895030266        0.97667275764883        0.08935340375070
H            2.78261279647426        0.04196810161243       -2.17859201789104
H            2.69572131306405       -1.59080500818101       -1.51385991049705
H            4.63824248300691        1.54727446674888       -1.57329629331700
H            6.94211001685909        1.74811447774622       -0.79203866722880
H            8.66089773141864        1.80773901384942        0.80645808965710
H            9.21469475094739        1.13011937904097       -0.75213591583906
H           10.04613570680479        0.69398819171957        0.75994122369385
H            7.06154300146135       -4.23798666662342        1.67589678605408
H            5.44735976060268       -3.49983923472033        1.81308813693265
H            6.03089288888761       -4.09416980153732        0.23251564288930
H            4.41677647926758       -2.40509089868290       -0.00138541990598
H           -0.21465996420149       -1.63434573172845       -1.65241574904616
H           -1.00799599416419       -1.23424153246499       -0.11741927442210
H            0.55966918143821       -2.05556938610834       -0.11592609242430
H           -4.72515436490351        2.90384828632967       -0.13692569301146
H           -3.70352241104947        2.81149289169177        2.72765896020706
H           -4.87629474611459        1.69146262926808        2.02901523662090
H           -5.31817361716298        3.39527674484418        2.21975292985495
H           -2.70251399833854        4.66397089659431        1.32743016869650
H           -3.13218036326116        4.79431858862646       -0.37841974560668
H           -4.32674116341981        5.14471603521326        0.84182085666263
H           -0.66561320434498        2.83615173985071        2.73808798161791
72
 energy: -103.315759117419 gnorm: 0.027477371252 xtb: 6.6.1 (8d0f1dd)
N           -1.53448062435565        2.83804083334354        2.24022951136587
C           -1.57601326463267        2.19565338624168        1.16153680921723
C           -2.76080792653620        2.07901802477929        0.23468247956506
C           -3.30640069410930        0.65174490036952        0.30943850545135
C           -4.29363015057695        0.25396859933265       -0.59032035639840
C           -4.85217387327176       -1.00736304985094       -0.53793730461690
O           -5.82774846850064       -1.47462463614026       -1.37139523858862
C           -6.38495920997060       -0.59385627849159       -2.30999445556966
C           -4.41325713917758       -1.92193671247924        0.44502038060654
O           -5.02284030508182       -3.14280162243620        0.42349107743745
C           -4.69383296053203       -4.06427731304001        1.43001887634663
C           -3.43528025798982       -1.52524106184494        1.33592142604919
C           -2.88783020178923       -0.24880733203990        1.26953912519456
C           -2.19199835140190        2.32377750527457       -1.19491682184399
C           -1.25786607062386        1.19833070182864       -1.69379308034524
C            0.02294443811736        1.13737024266043       -0.93188442107875
N            0.64027802874517       -0.04583083661313       -0.56859727001047
C            2.01287159523671       -0.04215940226562       -0.16890964747579
C            2.95003917483702       -0.55413351740614       -1.28518937217362
C            4.37594155545348       -0.44406698035270       -0.84792179071634
C            5.09304119886958        0.71931751301748       -1.05266567922116
C            6.40276656239668        0.83270652904568       -0.60567082461566
C            7.01434519558121       -0.21481723424070        0.05959375302509
O            8.28776004544338       -0.21397907424106        0.53108469823123
C            9.08313234780574        0.92627309342232        0.31718192664562
C            6.28603909998468       -1.40532745366512        0.28412551224644
O            6.96452059789145       -2.38533391415055        0.94067236562392
C            6.32490477280373       -3.61425811891423        1.16877293140712
C            4.98229450128325       -1.50045210227892       -0.16601862583145
C           -0.04750561244643       -1.30648972211182       -0.62090379531706
C           -3.92500935081806        3.03334122438497        0.60639218359994
C           -4.49342604460471        2.70197565148138        1.97901111312061
C           -3.49189194555528        4.51096541463900        0.58827961383362
H           -4.63506058989764        0.94788367472021       -1.34099488624349
H           -6.82844665807744        0.28416864002808       -1.82754048757566
H           -7.16890142309099       -1.16238788160822       -2.80971592113061
H           -5.64863976834270       -0.26730333566555       -3.05061956979227
H           -4.90460014016954       -3.66575245653151        2.42713664147108
H           -5.32628842326218       -4.93136113231181        1.24734085079099
H           -3.64108403247584       -4.36593215569826        1.37652882225058
H           -3.08338480644630       -2.19639268838198        2.10170211236900
H           -2.14026854580075        0.03460480332791        1.99297778287616
H           -3.01948556016308        2.42401608396252       -1.90107088870211
H           -1.62812417270932        3.25776243466044       -1.20623605042947
H           -1.78410762832441        0.24750006276866       -1.64305092834070
H           -1.04352556223629        1.39888665232761       -2.75193119235575
H           -0.69381631703605        1.69336213543665        0.72395042477091
H            0.67349902508964        1.99135238166444       -0.99963186796518
H            2.13856536487403       -0.66932572951558        0.72084714296684
H            2.30616227500631        0.97611266562604        0.08969263973884
H            2.77929448084382        0.04586354542843       -2.17826553619866
H            2.69728639056437       -1.59194706487249       -1.51422143777926
H            4.63930799135647        1.54762237060806       -1.57348740081454
H            6.94061329886748        1.74888943829509       -0.79123909729068
H            8.66024514914040        1.80936509356361        0.80645240320993
H            9.21390311504340        1.13062292698003       -0.75158759313407
H           10.04904339281505        0.69536552505059        0.76037829096935
H            7.05980169729517       -4.23748092270802        1.67606103575654
H            5.44543593440781       -3.49944780864381        1.81236983274057
H            6.02892044687547       -4.09518143696133        0.23126073959786
H            4.41835627657721       -2.40517530036668       -0.00245208376581
H           -0.21476350654746       -1.63672580504025       -1.65330335238448
H           -1.01327772473988       -1.23600317036679       -0.11792803126589
H            0.55624359886644       -2.05706212198366       -0.11496801831778
H           -4.71083608572992        2.91014332566460       -0.14277948301228
H           -3.71299370584289        2.81468235466665        2.72559300157906
H           -4.87757925975338        1.68829644450246        2.02198719824494
H           -5.30868427602528        3.38832595076314        2.21543211001765
H           -2.70692331331108        4.66103601800110        1.32363108911484
H           -3.12862558493037        4.79778218948363       -0.39117564306520
H           -4.33531784485299        5.14743005645795        0.84259824189702
H           -0.66642654762349        2.83659492646523        2.75474028429965
72
 energy: -103.316318473765 gnorm: 0.020381665983 xtb: 6.6.1 (8d0f1dd)
N           -1.54403640922051        2.81573658142378        2.23675613846119
C           -1.57844883519867        2.18537222065456        1.15057394996892
C           -2.75997526534244        2.07758173123684        0.22921848638232
C           -3.30712630740873        0.66088962793144        0.30610725790133
C           -4.29622124619559        0.26121495752789       -0.59216258504088
C           -4.85030854596904       -1.00229796613174       -0.53777814300139
O           -5.82408096170300       -1.47171438969182       -1.36895185577522
C           -6.38619228957763       -0.59404666388726       -2.30868522779424
C           -4.40904919053239       -1.91515189088178        0.44412555272602
O           -5.01793874499266       -3.13548927692694        0.42281423897985
C           -4.69321307173964       -4.05980982725611        1.42791873343487
C           -3.43045830835600       -1.51603056685940        1.33396114712727
C           -2.88636849976608       -0.23801748373277        1.26625680709418
C           -2.18775698701997        2.32164090282329       -1.20285998046389
C           -1.25276020677554        1.19220068098028       -1.69619588533092
C            0.01915924554945        1.13506117070034       -0.92495731141294
N            0.63857982860219       -0.04778422537532       -0.55897063272099
C            2.01075876446129       -0.04079512469086       -0.16345365176067
C            2.94740546416544       -0.55359498806858       -1.28147101454296
C            4.37218943509477       -0.44192421262425       -0.84280243567164
C            5.08930195040225        0.72143966038912       -1.04924962136084
C            6.39868859579019        0.83420641435792       -0.60624276548953
C            7.00926423304009       -0.21400008462843        0.05845435569540
O            8.28732272844103       -0.21530871208084        0.53021268078941
C            9.08030350472654        0.92435937652668        0.31568342336372
C            6.28090202136630       -1.40410201174755        0.28422035689278
O            6.96394582942917       -2.38451694123187        0.94029440531759
C            6.32559066638817       -3.61379143830502        1.16881163958312
C            4.97774043985152       -1.49792849712671       -0.16248161961546
C           -0.04390821039564       -1.30837908950939       -0.62026769083471
C           -3.92798036204364        3.03430955117771        0.60849925518809
C           -4.49824430298532        2.70194140146921        1.98938842218248
C           -3.49225731869362        4.49771966085693        0.59688834675239
H           -4.63707947259780        0.95576225960391       -1.34192882293357
H           -6.83016465940672        0.28402885406867       -1.82695880720013
H           -7.16853338710608       -1.16557824531559       -2.80629474912026
H           -5.65044719066684       -0.26664119630918       -3.05173362297877
H           -4.90541731367269       -3.66225371048101        2.42610808287088
H           -5.32841629311508       -4.92483138195817        1.24354606373991
H           -3.64196864083801       -4.36428623818235        1.37627115172881
H           -3.07801437865740       -2.18798795938130        2.10068506074332
H           -2.13603273958557        0.04603399204739        1.98824878082721
H           -3.00753707794184        2.42186062350979       -1.91705807065110
H           -1.61757426565773        3.25459690830954       -1.22398238722215
H           -1.77781895882321        0.23856419814049       -1.65087050399063
H           -1.02336952980293        1.38727032068771       -2.75576394637692
H           -0.68779765573805        1.72134651523396        0.68419802449350
H            0.66706821018135        1.99480265633128       -0.97717206299939
H            2.13638173176333       -0.66598508872478        0.72914686671316
H            2.30357930442937        0.97945998342639        0.09534335779801
H            2.77679419184226        0.04734117800790       -2.17658469287925
H            2.69408541796960       -1.58966365239671       -1.51009696441859
H            4.63510871972751        1.54989922304688       -1.57303353387897
H            6.93853274493403        1.74875712043747       -0.79346769837272
H            8.65920234218096        1.80840470476961        0.80621771512819
H            9.21299467924712        1.12964040950361       -0.75201430449678
H           10.04657534145968        0.69235210595637        0.76027738406242
H            7.06255053695878       -4.23619849670525        1.67459394968687
H            5.44695802898721       -3.50097793559675        1.81346225675688
H            6.02918969821324       -4.09592669415067        0.23093416409324
H            4.41259412112670       -2.40309955807784       -0.00064599903131
H           -0.21223673728437       -1.63575100549881       -1.65326474751642
H           -1.01117690503678       -1.24063343276791       -0.11534786701733
H            0.56060118619994       -2.05983605755051       -0.11512626647509
H           -4.73035223764226        2.90022631008712       -0.13105695928381
H           -3.71344684242100        2.81255497509402        2.73077507201165
H           -4.88329455655337        1.68497572379217        2.03687197166263
H           -5.31063897176133        3.38664576519896        2.22903831031854
H           -2.70566280304347        4.65177088237390        1.32860720053305
H           -3.12951408107945        4.78709506645214       -0.38431999405141
H           -4.33259577607503        5.13793532371533        0.85121574418980
H           -0.64850980139754        2.82625295305819        2.72488084677416
72
 energy: -103.316905208804 gnorm: 0.008804318987 xtb: 6.6.1 (8d0f1dd)
N           -1.54790109206464        2.81938079490126        2.24488663304282
C           -1.57992958691020        2.18290225791934        1.16188752532121
C           -2.76022035063972        2.08271675805121        0.23035859302043
C           -3.30768848145506        0.66156485846607        0.31404824855159
C           -4.29358497283106        0.25887088960129       -0.58704246009034
C           -4.85007365040795       -1.00432357388742       -0.53585340348472
O           -5.82348029962732       -1.47195876983691       -1.36949841455039
C           -6.38467890340218       -0.59409040007417       -2.30917238403795
C           -4.41142853012443       -1.92034422264048        0.44494263225415
O           -5.02137505495113       -3.14063318605541        0.42312539704357
C           -4.69435578522869       -4.06466894244983        1.42824480235416
C           -3.43340562284730       -1.52290802925025        1.33567829829231
C           -2.88900905262383       -0.24397130651997        1.27211535602880
C           -2.18427458559942        2.32704363000743       -1.20058673878036
C           -1.25508063392251        1.19288330423340       -1.69269133015275
C            0.01854030953572        1.13567680862987       -0.92610358367524
N            0.64019722584747       -0.04656995897536       -0.56508861763695
C            2.01200988734302       -0.04139818783298       -0.16962015963823
C            2.94937575969322       -0.55456669278218       -1.28670374600720
C            4.37327469608941       -0.44257163887805       -0.84526526793752
C            5.09179042919465        0.72055190613766       -1.05108990948114
C            6.40164513192150        0.83332220596996       -0.60695025692036
C            7.01120740604893       -0.21494267318280        0.05779010975996
O            8.28816108516924       -0.21452986892250        0.53094536749673
C            9.08151307228091        0.92502322671128        0.31676352285485
C            6.28311519346231       -1.40495745015038        0.28288629834484
O            6.96474545291496       -2.38534124623009        0.94000723655541
C            6.32582326461104       -3.61399801018316        1.16936417268229
C            4.97984023151775       -1.49943916871725       -0.16541722245318
C           -0.04532723749357       -1.30508280234870       -0.62271406752965
C           -3.93453685647442        3.03262360607805        0.60752312241102
C           -4.50102515499867        2.70558191261657        1.98810985872335
C           -3.49119603795806        4.49878977934020        0.59210208622233
H           -4.63174985988443        0.95193747639675       -1.33842620145837
H           -6.82680543238341        0.28417222493078       -1.82671731070514
H           -7.16742067763422       -1.16531645105834       -2.80730514875085
H           -5.64796692340462       -0.26724863184344       -3.05025312289246
H           -4.90570126959316       -3.66794986719640        2.42635707796045
H           -5.32907211041622       -4.93030754172308        1.24589233448398
H           -3.64219081806299       -4.36749912572923        1.37689360080587
H           -3.08433658598285       -2.19639007068225        2.10178913471019
H           -2.13857027990348        0.03398214048035        1.99550591987984
H           -3.01311814750110        2.42325816414093       -1.90520657900745
H           -1.61643963146652        3.26220280257933       -1.21837983533347
H           -1.78263043854975        0.24133794328666       -1.64643343189272
H           -1.02837454929638        1.38744931862109       -2.75082993549507
H           -0.68679620550196        1.71624312807142        0.70541854830798
H            0.66420097106458        1.99439565570975       -0.98238058381153
H            2.13377444683312       -0.66685673311719        0.72311829670542
H            2.30700797280095        0.97774091033607        0.08746066761683
H            2.78365434576085        0.04361024085672       -2.18325223316535
H            2.69741130261287       -1.59113399080044       -1.51622340303873
H            4.63899008444326        1.54806673804776       -1.57568023562161
H            6.94246357719052        1.74796446937871       -0.79191131577087
H            8.66079425521328        1.80911625150472        0.80692931686997
H            9.21526657749595        1.13057306089963       -0.75101106305472
H           10.04781591617116        0.69475343429802        0.76129859925780
H            7.06072026206965       -4.23781614761620        1.67653647346779
H            5.44641876986257       -3.49918614643312        1.81246712131952
H            6.03022396971498       -4.09540758633772        0.23153689046200
H            4.41654019244629       -2.40568872256745       -0.00446113222674
H           -0.21676655120652       -1.63451996106799       -1.65433818825415
H           -1.01093728962697       -1.23256695446533       -0.11704097490430
H            0.55786929523363       -2.05603402261379       -0.11614958048420
H           -4.72750111020829        2.90070273117648       -0.13930062423199
H           -3.71116499423445        2.81446794613006        2.72642325896559
H           -4.88034886995557        1.68866496111083        2.02654573424502
H           -5.31668106611298        3.39290476836111        2.21743085783766
H           -2.70580415262991        4.66630100235148        1.32379413461130
H           -3.12778411645872        4.79533542654473       -0.38551715265991
H           -4.32893787517339        5.14451367645790        0.83827286627580
H           -0.65927661708701        2.83050961889023        2.73752030065510
72
 energy: -103.316841049482 gnorm: 0.010151637592 xtb: 6.6.1 (8d0f1dd)
N           -1.53608558694489        2.83327609924532        2.23504498191504
C           -1.57398409325565        2.19024049211893        1.15565857983380
C           -2.75967791487970        2.08405683977193        0.22676818314360
C           -3.30585022015559        0.66068320735766        0.30685275425565
C           -4.29382542791915        0.25718003288603       -0.59205429424803
C           -4.85168796910171       -1.00502870164932       -0.53887479413732
O           -5.82696198819187       -1.47241820455404       -1.37118778699757
C           -6.38806333220082       -0.59400173345638       -2.31040605030816
C           -4.41190080720643       -1.91986676498631        0.44298176194134
O           -5.02200082357414       -3.13997926847836        0.42318970071341
C           -4.69260909108800       -4.06134267831051        1.42965038185436
C           -3.43238069576744       -1.52171899398660        1.33216429386816
C           -2.88611396254495       -0.24423069582815        1.26489224527985
C           -2.18720512113295        2.32501896383261       -1.20479209577541
C           -1.25468836466691        1.19400563341277       -1.69582842017321
C            0.02012542802831        1.13436040096929       -0.93015218997795
N            0.63998242584194       -0.04740369864909       -0.56406584819100
C            2.01048157650914       -0.04138255496321       -0.16376937730989
C            2.94679685986207       -0.55318381090380       -1.28107053442485
C            4.37162878578441       -0.44207320824404       -0.84306499548001
C            5.09018198475093        0.72091104836546       -1.04940471342564
C            6.40043931401245        0.83399809223632       -0.60545027801556
C            7.01038287024490       -0.21439328082844        0.05883871822174
O            8.28721743936970       -0.21377314387127        0.53086402022741
C            9.08092665351113        0.92508702618461        0.31573466394966
C            6.28283664555215       -1.40430812984883        0.28445260592286
O            6.96411118498168       -2.38519387551429        0.94048966787933
C            6.32537578680410       -3.61405747191119        1.16895523649301
C            4.97907650406440       -1.49902243805642       -0.16332580267684
C           -0.04464874997584       -1.30708048190777       -0.62054110439724
C           -3.93267676630942        3.03099437520176        0.61041139809754
C           -4.49546988929664        2.70000446070195        1.99006460600812
C           -3.49295323074908        4.49951879597677        0.59571284265595
H           -4.63586225903326        0.94974133812422       -1.34225656934119
H           -6.83002226881350        0.28396207668338       -1.82746020892590
H           -7.17116508805377       -1.16460946454701       -2.80867924295077
H           -5.65161320201700       -0.26720454964735       -3.05112218466210
H           -4.90369372068511       -3.66273211906376        2.42689708422899
H           -5.32628997060461       -4.92777753489893        1.24844579100334
H           -3.63986385302576       -4.36271500033274        1.37756637452714
H           -3.08188042986038       -2.19310170859942        2.09880675167196
H           -2.13715198641448        0.03618225949733        1.98846973188783
H           -3.01831508923667        2.42026867572816       -1.90740805958278
H           -1.62266421783797        3.26082973941661       -1.21679788401427
H           -1.78260920391721        0.24347543379448       -1.64935444455503
H           -1.03310464519875        1.39220020792883       -2.75349188005788
H           -0.68760923587646        1.70236824264794        0.70959938061242
H            0.66808132001379        1.99026963756920       -0.99163177468862
H            2.13363233033597       -0.66833195244556        0.72754997606035
H            2.30449967726185        0.97729194459057        0.09408202750067
H            2.77799694330151        0.04603700869564       -2.17551254785322
H            2.69461361005745       -1.59005558772862       -1.51063835719481
H            4.63632461740633        1.54877241097347       -1.57145124352099
H            6.94062008478769        1.74896900076258       -0.79056243361423
H            8.66060831981282        1.80918705046631        0.80599772243380
H            9.21303327130082        1.13035175206427       -0.75250795367921
H           10.04775357088249        0.69488008876177        0.75884157346287
H            7.06072313253012       -4.23819343372486        1.67494130681730
H            5.44646269706975       -3.50012767174471        1.81292806922026
H            6.02912458815928       -4.09445944730262        0.23109404601940
H            4.41568713543144       -2.40442986878500        0.00063711724686
H           -0.21202464928945       -1.63819368566668       -1.65213656724149
H           -1.01172622019242       -1.23761371173123       -0.11797907961326
H            0.55824053076624       -2.05721595622401       -0.11258645099000
H           -4.72068672758602        2.90544978352937       -0.13905990693516
H           -3.70571739374175        2.80837921163964        2.72835386794822
H           -4.87456720796371        1.68435386677067        2.02551119471366
H           -5.31036938383457        3.38761945107971        2.22116178058144
H           -2.70463140291421        4.65992954748966        1.32661990860596
H           -3.13239602780008        4.79908256541420       -0.38215048569441
H           -4.33042103505937        5.14450123752822        0.84845646709158
H           -0.65435241180832        2.83070077602828        2.73544352702136
72
 energy: -103.317060121357 gnorm: 0.003859934718 xtb: 6.6.1 (8d0f1dd)
N           -1.54269830526175        2.82470336087710        2.24094250830034
C           -1.57731141372647        2.18701927111908        1.15816878097268
C           -2.76091290047356        2.08149199128783        0.22946980994963
C           -3.30670736039253        0.66020792425431        0.30909070773718
C           -4.29446961408037        0.25764742103763       -0.58996856313650
C           -4.85095714334222       -1.00479354942922       -0.53684669244092
O           -5.82484711340908       -1.47262730569245       -1.36988319348096
C           -6.38516170469441       -0.59392402817236       -2.30949304470354
C           -4.41110125079327       -1.91908591051222        0.44525006010918
O           -5.02058238155538       -3.13927907166483        0.42321909439315
C           -4.69384861471687       -4.06288170008446        1.42828248025539
C           -3.43287095401260       -1.52027903489998        1.33591071211067
C           -2.88767293835258       -0.24255291346567        1.26868477549212
C           -2.18691500322371        2.32355140067321       -1.20160210286230
C           -1.25344936889214        1.19393879013985       -1.69378425008336
C            0.02062210630095        1.13547841585817       -0.92726119171669
N            0.64068242779996       -0.04701035770010       -0.56331271502033
C            2.01224581876742       -0.04118048294180       -0.16663664148495
C            2.94826288076732       -0.55357722128851       -1.28435642718418