72
 energy: 15.258022033515 xtb: 6.6.1 (8d0f1dd)
N           -1.51333625054452        2.95282003755584        2.23696389296784
C           -1.53276312256181        2.26966579928730        1.18361258397459
C           -2.71779599735155        2.12489410672677        0.25697406057833
C           -3.26568118321604        0.69585681807645        0.37537593462954
C           -4.24407322561424        0.20806526931149       -0.49136837683879
C           -4.76324403758063       -1.08936286668968       -0.41194385722036
O           -5.73377304377906       -1.52206982151708       -1.27766488668182
C           -6.32269083731558       -0.63738291074175       -2.21266527063900
C           -4.30615701795934       -2.03511986871052        0.59146762029965
O           -4.85180797640818       -3.36479600431888        0.56521062977647
C           -4.95471837419922       -4.59901870778045        1.37328521980575
C           -3.33014358277701       -1.50343800167203        1.43383460019788
C           -2.83321629013571       -0.19489531737841        1.34272086328964
C           -2.16955387210570        2.36219180534971       -1.18241923976814
C           -1.25390239306651        1.23419294646805       -1.70348345657682
C            0.02928573262503        1.18887447449047       -0.95639849952434
N            0.63829200602187       -0.01220478160631       -0.58483849378252
C            2.00786294348794       -0.01690254804924       -0.18948426642994
C            2.95101355386457       -0.53944181361664       -1.29904257646608
C            4.37316302145243       -0.43600161925182       -0.85592353500588
C            5.09085647928256        0.72930908439263       -1.05040452204476
C            6.39972501590683        0.84151387790682       -0.60185268132552
C            7.00733920144023       -0.21261740371187        0.05722692468427
O            8.28712777676559       -0.21805086950800        0.53127697714592
C            9.07831659630743        0.92140338381348        0.32369442243633
C            6.27904326993648       -1.40154761387271        0.27559357766097
O            6.95801660966713       -2.38692109526955        0.93359652561983
C            6.31143115522180       -3.61321997084937        1.15231656169217
C            4.97562071138068       -1.49377048025430       -0.17536161702426
C           -0.06022525135211       -1.26491353983346       -0.66072596627086
C           -3.85834603775280        3.13919461704855        0.55414992695422
C           -4.49235190957253        2.85812346695816        1.91601402501536
C           -3.39624561465908        4.59597818366836        0.49908606464709
H           -4.60184917170594        0.88982887052683       -1.25244357969091
H           -6.78751119041125        0.23105312027818       -1.73113260782035
H           -7.09999197258977       -1.21685201237608       -2.71344706221528
H           -5.60918249728246       -0.28452311237516       -2.96705733577337
H           -5.25050549099408       -4.39382103720237        2.41082406763024
H           -5.69740231678400       -5.27297344000318        0.91130808486812
H           -3.96967635833503       -5.08630366019262        1.38970023204088
H           -2.93613205213361       -2.14484564453543        2.20457270848117
H           -2.08824373112076        0.13458642268135        2.05064466852150
H           -3.01242608975692        2.47069670903328       -1.87073970825233
H           -1.60168078210876        3.29664629230351       -1.19444582955128
H           -1.78138636680030        0.28589605708768       -1.64564130046922
H           -1.06151807504115        1.43023111273676       -2.77218733047987
H           -0.66553711217384        1.72745510998658        0.76738239396395
H            0.69405551269074        2.02719367662317       -1.03271518218220
H            2.14802761532897       -0.63595826057039        0.70579237368629
H            2.29761066424231        1.00229843819942        0.07071676242853
H            2.77983627584743        0.06343536876727       -2.19223785755243
H            2.68793726211473       -1.57401741217843       -1.52573921867443
H            4.63408156026589        1.56014255168663       -1.56653149840217
H            6.93430365651661        1.76039885955144       -0.78071802954425
H            8.65864310160589        1.80304099256637        0.82056046844258
H            9.20856158426997        1.13638555870919       -0.74286315848524
H           10.04781381048053        0.69021953863256        0.76345744593988
H            7.04542171097918       -4.24177493288776        1.65572143455438
H            5.43249499738240       -3.50233878358528        1.79634892853000
H            6.01352530610026       -4.08995927277203        0.21212795300629
H            4.40314737678773       -2.39430792565606       -0.01445897998095
H           -0.24097738332960       -1.58618826165272       -1.69536067326609
H           -1.02316225150868       -1.19897667284582       -0.14576932175812
H            0.52913252975995       -2.03404100267732       -0.16637560897984
H           -4.62895237801574        3.00296274932946       -0.21578092484419
H           -3.74725298128187        2.99314000793961        2.69309147637964
H           -4.86779398623490        1.83946594277547        1.96337481553857
H           -5.31982751169494        3.54351976035272        2.09072896045387
H           -2.61591785363602        4.77338512183787        1.23158294272438
H           -3.02023474037117        4.86631451097963       -0.48535556324485
H           -4.23522414413284        5.24893422648862        0.73199635510774
H           -0.61341141029712        2.96266417531060        2.70961385976734
