72
 energy: 71.238423349220 xtb: 6.6.1 (8d0f1dd)
N           -1.50959089087042        3.20068876356547        2.17088707569245
C           -1.48966103125836        2.45948675825659        1.16143193374246
C           -2.65380736596718        2.24670064105773        0.25423913573355
C           -3.15389094392554        0.81203903403735        0.42934273241139
C           -4.12792176686777        0.27975879428307       -0.42406479426675
C           -4.59925059432378       -1.01864014120020       -0.30842798385108
O           -5.57466351555101       -1.52743288222551       -1.13818326661673
C           -6.20570001732704       -0.67879275432683       -2.07843602063072
C           -4.05983784330106       -1.95518015588615        0.69526081676586
O           -4.32317562629843       -3.17429766266289        0.76651083607113
C           -5.69913677498594       -5.94067788798506        1.41060644395924
C           -3.11738464508094       -1.32622490236445        1.56900360962823
C           -2.68383597831283       -0.02684448877153        1.43994067225415
C           -2.09960216841475        2.47141070800395       -1.17839965273785
C           -1.23820958194592        1.32223738193095       -1.74743365897982
C            0.10348224830861        1.19192919191572       -1.12161070276523
N            0.63163141054165        0.05898630810141       -0.66969270136794
C            2.00177102187881        0.03699939113857       -0.23170846637426
C            2.94161699002162       -0.51998265308115       -1.31008430981240
C            4.36859501118904       -0.42266223783447       -0.85340752960295
C            5.09390313435159        0.73511829572585       -1.05363586245485
C            6.40318849369149        0.83994305542559       -0.60521279355905
C            7.00883979573718       -0.21329621996004        0.05329236463089
O            8.28326404596500       -0.22254049765888        0.52892728592028
C            9.08618716488881        0.91312847470095        0.32724198978533
C            6.27269107057966       -1.40299189343961        0.26737847239624
O            6.94727057236199       -2.38640347568803        0.92111454086558
C            6.30155674398060       -3.61494983789374        1.14927790155795
C            4.96865292256241       -1.48706411365855       -0.18261403970936
C           -0.08555074102934       -1.19142672235674       -0.71161248268748
C           -3.81922400833149        3.25453099121783        0.50851435282778
C           -4.47501991920022        3.00800352391770        1.86785324788604
C           -3.38594934782022        4.71816173969277        0.41282394177134
H           -4.52304614387700        0.93489945168589       -1.19314944851794
H           -6.68436811802188        0.18602643991061       -1.60160638430488
H           -6.97738860491287       -1.27243728733222       -2.57243251866275
H           -5.50835608791981       -0.31277215575728       -2.84407020030560
H           -5.98535176345645       -5.61586757242554        2.38774922881144
H           -6.41425651741404       -6.12223534900935        0.62670050587443
H           -4.68241234832010       -6.27162726071734        1.34554155833419
H           -2.72774743682734       -1.96035936157297        2.35279851211932
H           -1.96616636777930        0.35211538498582        2.15440829909648
H           -2.95352476243069        2.61114424688586       -1.85079791757940
H           -1.51481732130087        3.39926149451475       -1.18701746818425
H           -1.79494321106167        0.39048659764179       -1.67857225190719
H           -1.10372859244155        1.55416656876962       -2.81584196189288
H           -0.60053272029458        1.88858568533689        0.83863890936960
H            0.76426702344138        2.04826600723706       -1.15051609951250
H            2.07524755043197       -0.58093446092149        0.66543126546190
H            2.32209795082419        1.05062509811405        0.02835037054901
H            2.80427109465886        0.06112465586775       -2.22416519756489
H            2.67794830986984       -1.55746039252056       -1.51955231881303
H            4.64922450191185        1.57167453789140       -1.57182977286487
H            6.94345437265808        1.75667804639574       -0.78116305423575
H            8.67263527768729        1.79386618019099        0.82891253434060
H            9.22133723294548        1.12826234235461       -0.73773824712772
H           10.04985143263001        0.66846833271252        0.77006670810795
H            7.03759342833066       -4.23821913189114        1.65434068420028
H            5.42462013428393       -3.49861249536058        1.79500639885433
H            6.00400050057468       -4.09660801393558        0.21189065821671
H            4.40023654890218       -2.39164206806341       -0.02815274373491
H           -0.26311022198161       -1.50087077293636       -1.74441366343511
H           -1.04526605873594       -1.11714878151395       -0.19405036261097
H            0.51051124472570       -1.95323961125083       -0.21980094152443
H           -4.57423832112317        3.08271241602364       -0.26923733316069
H           -3.74648534932863        3.16757868482288        2.65569957633685
H           -4.85078019023818        1.99186471323509        1.93825012396732
H           -5.30486337736365        3.69779881520325        2.01282673017274
H           -2.64188441208083        4.94128084181477        1.17119058612272
H           -2.98037443000763        4.96392043490395       -0.56598523425936
H           -4.24769722644659        5.35922129414823        0.58670972522169
H           -0.65138429140759        3.28815905808968        2.71168011806139
