25
 energy: -42.192147323490 gnorm: 0.006505421078 xtb: 6.6.1 (8d0f1dd)
C            3.28834201585183        0.92779584315169       -0.04376564990272
N            2.37869389892027       -0.04492315258228        0.00477174410070
C            2.58723094893862       -1.37416940555595        0.13215456618597
N            1.38732672564962       -2.04261426438489        0.13648695722429
C            0.39683379709554       -1.14460260144806        0.01287234633163
C            0.99021709994629        0.12942551207261       -0.04981575991069
C            0.19162423074802        1.26578215535172       -0.01847132189873
O            0.63568032598165        2.51141955174331        0.07885583613045
N           -1.15561898053805        1.06438651912969       -0.05253795035243
C           -2.06926568301845        2.19789237388157       -0.05926278382476
C           -1.78049234095540       -0.19033987394511       -0.08103326318654
O           -2.97210140691157       -0.28843614962029       -0.13664327930096
N           -0.94648722624531       -1.31238651566860       -0.02039142957240
C           -1.54409826945565       -2.63353145061512       -0.00983805587595
H            4.31298020244645        0.68607056909508        0.12712906759351
H            3.05436379627597        1.88536389410480       -0.45950217022607
H            1.59609747481424        2.52421140114871        0.24806881611808
H            3.54304038065233       -1.84226634157980        0.21522742670550
H           -1.49723456070822        3.11963027537322       -0.06713940025220
H           -2.70661214074993        2.14060334207529       -0.94130494827017
H           -2.70711504125488        2.15752018606276        0.82346159026513
H           -1.30745243395611       -3.15184498517672        0.91996513911503
H           -1.19147917758626       -3.21487892202622       -0.86208878678612
H           -2.62321468419224       -2.50871554744490       -0.08328212302490
H            1.29917256235127       -3.04315387154252        0.21725505051433
