      -----------------------------------------------------------      
     |                   =====================                   |     
     |                           x T B                           |     
     |                   =====================                   |     
     |                         S. Grimme                         |     
     |          Mulliken Center for Theoretical Chemistry        |     
     |                    University of Bonn                     |     
      -----------------------------------------------------------      

   * xtb version 6.6.1 (8d0f1dd) compiled by 'conda@1efc2f54142f' on 2023-08-01

   xtb is free software: you can redistribute it and/or modify it under
   the terms of the GNU Lesser General Public License as published by
   the Free Software Foundation, either version 3 of the License, or
   (at your option) any later version.
   
   xtb is distributed in the hope that it will be useful,
   but WITHOUT ANY WARRANTY; without even the implied warranty of
   MERCHANTABILITY or FITNESS FOR A PARTICULAR PURPOSE.  See the
   GNU Lesser General Public License for more details.
   
   Cite this work as:
   * C. Bannwarth, E. Caldeweyher, S. Ehlert, A. Hansen, P. Pracht,
     J. Seibert, S. Spicher, S. Grimme, WIREs Comput. Mol. Sci., 2020, 11,
     e01493. DOI: 10.1002/wcms.1493
   
   for GFN2-xTB:
   * C. Bannwarth, S. Ehlert and S. Grimme., J. Chem. Theory Comput., 2019,
     15, 1652-1671. DOI: 10.1021/acs.jctc.8b01176
   for GFN1-xTB:
   * S. Grimme, C. Bannwarth, P. Shushkov, J. Chem. Theory Comput., 2017,
     13, 1989-2009. DOI: 10.1021/acs.jctc.7b00118
   for GFN0-xTB:
   * P. Pracht, E. Caldeweyher, S. Ehlert, S. Grimme, ChemRxiv, 2019, preprint.
     DOI: 10.26434/chemrxiv.8326202.v1
   for GFN-FF:
   * S. Spicher and S. Grimme, Angew. Chem. Int. Ed., 2020, 59, 15665-15673.
     DOI: 10.1002/anie.202004239
   
   for ALPB and GBSA implicit solvation:
   * S. Ehlert, M. Stahn, S. Spicher, S. Grimme, J. Chem. Theory Comput.,
     2021, 17, 4250-4261. DOI: 10.1021/acs.jctc.1c00471
   
   for DFT-D4:
   * E. Caldeweyher, C. Bannwarth and S. Grimme, J. Chem. Phys., 2017,
     147, 034112. DOI: 10.1063/1.4993215
   * E. Caldeweyher, S. Ehlert, A. Hansen, H. Neugebauer, S. Spicher,
     C. Bannwarth and S. Grimme, J. Chem. Phys., 2019, 150, 154122.
     DOI: 10.1063/1.5090222
   * E. Caldeweyher, J.-M. Mewes, S. Ehlert and S. Grimme, Phys. Chem. Chem. Phys.
     2020, 22, 8499-8512. DOI: 10.1039/D0CP00502A
   
   for sTDA-xTB:
   * S. Grimme and C. Bannwarth, J. Chem. Phys., 2016, 145, 054103.
     DOI: 10.1063/1.4959605
   
   in the mass-spec context:
   * V. Asgeirsson, C. Bauer and S. Grimme, Chem. Sci., 2017, 8, 4879.
     DOI: 10.1039/c7sc00601b
   * J. Koopman and S. Grimme, ACS Omega 2019, 4, 12, 15120-15133.
     DOI: 10.1021/acsomega.9b02011
   
   for metadynamics refer to:
   * S. Grimme, J. Chem. Theory Comput., 2019, 155, 2847-2862
     DOI: 10.1021/acs.jctc.9b00143
   
   for SPH calculations refer to:
   * S. Spicher and S. Grimme, J. Chem. Theory Comput., 2021, 17, 1701-1714
     DOI: 10.1021/acs.jctc.0c01306
   
   with help from (in alphabetical order)
   P. Atkinson, C. Bannwarth, F. Bohle, G. Brandenburg, E. Caldeweyher
   M. Checinski, S. Dohm, S. Ehlert, S. Ehrlich, I. Gerasimov, C. Hölzer
   A. Katbashev, J. Koopman, C. Lavigne, S. Lehtola, F. März, M. Müller,
   F. Musil, H. Neugebauer, J. Pisarek, C. Plett, P. Pracht, F. Pultar,
   J. Seibert, P. Shushkov, S. Spicher, M. Stahn, M. Steiner, T. Strunk,
   J. Stückrath, T. Rose, and J. Unsleber
   
 * started run on 2024/04/06 at 11:14:19.557     

           -------------------------------------------------
          |                Calculation Setup                |
           -------------------------------------------------

          program call               : xtb struc.xyz --opt loose --input .xc1 --gfn2
          hostname                   : n-62-30-23
          coordinate file            : struc.xyz
          omp threads                :                     1

   ID    Z sym.   atoms
    1    7 N      1, 17
    2    6 C      2-6, 8, 9, 11-16, 18-23, 25, 26, 28-33
    3    8 O      7, 10, 24, 27
    4    1 H      34-72
constraining bond 24 26 to    4.7600000 Å, actual value:    2.3392955 Å

           -------------------------------------------------
          |                 G F N 2 - x T B                 |
           -------------------------------------------------

        Reference                      10.1021/acs.jctc.8b01176
      * Hamiltonian:
        H0-scaling (s, p, d)           1.850000    2.230000    2.230000
        zeta-weighting                 0.500000
      * Dispersion:
        s8                             2.700000
        a1                             0.520000
        a2                             5.000000
        s9                             5.000000
      * Repulsion:
        kExp                           1.500000    1.000000
        rExp                           1.000000
      * Coulomb:
        alpha                          2.000000
        third order                    shell-resolved
        anisotropic                    true
        a3                             3.000000
        a5                             4.000000
        cn-shift                       1.200000
        cn-exp                         4.000000
        max-rad                        5.000000


          ...................................................
          :                      SETUP                      :
          :.................................................:
          :  # basis functions                 171          :
          :  # atomic orbitals                 171          :
          :  # shells                          105          :
          :  # electrons                       180          :
          :  max. iterations                   250          :
          :  Hamiltonian                  GFN2-xTB          :
          :  restarted?                      false          :
          :  GBSA solvation                  false          :
          :  PC potential                    false          :
          :  electronic temp.         5000.0000000     K    :
          :  accuracy                    1.0000000          :
          :  -> integral cutoff          0.2500000E+02      :
          :  -> integral neglect         0.1000000E-07      :
          :  -> SCF convergence          0.1000000E-05 Eh   :
          :  -> wf. convergence          0.1000000E-03 e    :
          :  Broyden damping             0.4000000          :
          ...................................................

 iter      E             dE          RMSdq      gap      omega  full diag
   1   -100.5973919 -0.100597E+03  0.374E+00    3.20       0.0  T
   2   -100.7362642 -0.138872E+00  0.221E+00    1.08       1.0  T
   3   -100.7049001  0.313641E-01  0.141E+00    3.29       1.0  T
   4   -100.7721690 -0.672689E-01  0.526E-01    1.50       1.0  T
   5   -100.7894292 -0.172602E-01  0.190E-01    1.98       1.0  T
   6   -100.7911978 -0.176856E-02  0.792E-02    1.77       1.0  T
   7   -100.7914750 -0.277198E-03  0.375E-02    1.83       1.0  T
   8   -100.7914914 -0.164582E-04  0.140E-02    1.83       1.0  T
   9   -100.7914976 -0.616739E-05  0.474E-03    1.82       2.5  T
  10   -100.7914988 -0.118227E-05  0.172E-03    1.82       6.8  T
  11   -100.7914989 -0.139928E-06  0.766E-04    1.82      15.4  T
  12   -100.7914989 -0.773143E-08  0.318E-04    1.82      37.0  T

   *** convergence criteria satisfied after 12 iterations ***

         #    Occupation            Energy/Eh            Energy/eV
      -------------------------------------------------------------
         1        2.0000           -0.8078051             -21.9815
       ...           ...                  ...                  ...
        84        1.9966           -0.5157491             -14.0342
        85        1.9959           -0.5128261             -13.9547
        86        1.9840           -0.4911498             -13.3649
        87        1.9795           -0.4872543             -13.2589
        88        1.9640           -0.4782114             -13.0128
        89        1.8920           -0.4602041             -12.5228
        90        1.8557           -0.4553147             -12.3897 (HOMO)
        91        0.3166           -0.3884132             -10.5693 (LUMO)
        92        0.0218           -0.3434697              -9.3463
        93        0.0041           -0.3169887              -8.6257
        94        0.0034           -0.3139726              -8.5436
        95        0.0029           -0.3112618              -8.4699
       ...           ...                  ...                  ...
       171                          0.5822580              15.8440
      -------------------------------------------------------------
                  HL-Gap            0.0669015 Eh            1.8205 eV
             Fermi-level           -0.4148687 Eh          -11.2892 eV

 SCC (total)                   0 d,  0 h,  0 min,  0.190 sec
 SCC setup                      ...        0 min,  0.001 sec (  0.534%)
 Dispersion                     ...        0 min,  0.002 sec (  0.914%)
 classical contributions        ...        0 min,  0.000 sec (  0.226%)
 integral evaluation            ...        0 min,  0.018 sec (  9.726%)
 iterations                     ...        0 min,  0.098 sec ( 51.884%)
 molecular gradient             ...        0 min,  0.069 sec ( 36.373%)
 printout                       ...        0 min,  0.001 sec (  0.336%)

         :::::::::::::::::::::::::::::::::::::::::::::::::::::
         ::                     SUMMARY                     ::
         :::::::::::::::::::::::::::::::::::::::::::::::::::::
         :: total energy             -98.357842994735 Eh    ::
         :: gradient norm              0.646461723590 Eh/a0 ::
         :: HOMO-LUMO gap              1.820481192090 eV    ::
         ::.................................................::
         :: SCC energy              -100.791498925389 Eh    ::
         :: -> isotropic ES            0.109302908418 Eh    ::
         :: -> anisotropic ES          0.005415138735 Eh    ::
         :: -> anisotropic XC          0.042392697176 Eh    ::
         :: -> dispersion             -0.075527661009 Eh    ::
         :: repulsion energy           1.386151658689 Eh    ::
         :: add. restraining           1.046287919459 Eh    ::
         :: total charge               1.000000000108 e     ::
         :::::::::::::::::::::::::::::::::::::::::::::::::::::

      ----------------------------------------------------------- 
     |                   =====================                   |
     |                        A N C O P T                        |
     |                   =====================                   |
     |               Approximate Normal Coordinate               |
     |                Rational Function Optimizer                |
      ----------------------------------------------------------- 

          ...................................................
          :                      SETUP                      :
          :.................................................:
          :   optimization level             loose          :
          :   max. optcycles                   200          :
          :   ANC micro-cycles                  20          :
          :   degrees of freedom               210          :
          :.................................................:
          :   RF solver                   davidson          :
          :   write xtbopt.log                true          :
          :   linear?                        false          :
          :   energy convergence         0.5000000E-04 Eh   :
          :   grad. convergence          0.4000000E-02 Eh/α :
          :   maxmium RF displ.          1.0000000          :
          :   Hlow (freq-cutoff)         0.1000000E-01      :
          :   Hmax (freq-cutoff)         5.0000000          :
          :   S6 in model hess.         20.0000000          :
          ...................................................

generating ANC from model Hessian ...
Using Lindh-Hessian (1995)
 Shifting diagonal of input Hessian by   0.11861396826557363     
 Lowest  eigenvalues of input Hessian
    0.010000    0.111609    0.000000    0.000000    0.000000    0.000000
    0.000000    0.000000    0.118712    0.118754    0.118920    0.119018
    0.119158    0.119570    0.119787    0.120284    0.120390    0.120502
 Highest eigenvalues
    2.144567    2.152405    2.154572    2.287268    2.288057    2.295669


........................................................................
.............................. CYCLE    1 ..............................
........................................................................

 iter      E             dE          RMSdq      gap      omega  full diag
   1   -100.7914989 -0.100791E+03  0.114E-04    1.82       0.0  T
   2   -100.7914989 -0.678995E-10  0.713E-05    1.82     165.2  T
   3   -100.7914989  0.665210E-10  0.496E-05    1.82     237.5  T
     SCC iter.                  ...        0 min,  0.026 sec
     gradient                   ...        0 min,  0.069 sec
 * total energy  :   -98.3578430 Eh     change       -0.4035485E-08 Eh
   gradient norm :     0.6464614 Eh/α   predicted     0.0000000E+00 (-100.00%)
   displ. norm   :     0.5203962 α      lambda       -0.2959067E+00
   maximum displ.:     0.1468304 α      in ANC's #152, #131, #157, ...

........................................................................
.............................. CYCLE    2 ..............................
........................................................................

 iter      E             dE          RMSdq      gap      omega  full diag
   1   -100.7512192 -0.100751E+03  0.392E-01    1.83       0.0  T
   2   -100.7517447 -0.525564E-03  0.342E-01    1.71       1.0  T
   3   -100.7552449 -0.350018E-02  0.169E-01    1.81       1.0  T
   4   -100.7550725  0.172366E-03  0.619E-02    1.70       1.0  T
   5   -100.7554358 -0.363240E-03  0.221E-02    1.80       1.0  T
   6   -100.7554657 -0.298697E-04  0.103E-02    1.78       1.1  T
   7   -100.7554667 -0.109443E-05  0.584E-03    1.78       2.0  T
   8   -100.7554673 -0.597540E-06  0.144E-03    1.78       8.2  T
   9   -100.7554674 -0.750859E-07  0.716E-04    1.78      16.5  T
  10   -100.7554674 -0.904201E-08  0.316E-04    1.78      37.3  T
     SCC iter.                  ...        0 min,  0.081 sec
     gradient                   ...        0 min,  0.069 sec
 * total energy  :   -98.5912425 Eh     change       -0.2333995E+00 Eh
   gradient norm :     0.3621914 Eh/α   predicted    -0.1880302E+00 ( -19.44%)
   displ. norm   :     0.6103872 α      lambda       -0.1924756E+00
   maximum displ.:     0.1846839 α      in ANC's #130, #131, #157, ...

........................................................................
.............................. CYCLE    3 ..............................
........................................................................

 iter      E             dE          RMSdq      gap      omega  full diag
   1   -100.6667914 -0.100667E+03  0.358E-01    1.81       0.0  T
   2   -100.6625691  0.422230E-02  0.418E-01    1.63       1.0  T
   3   -100.6729377 -0.103686E-01  0.164E-01    1.77       1.0  T
   4   -100.6720150  0.922679E-03  0.971E-02    1.63       1.0  T
   5   -100.6729798 -0.964769E-03  0.212E-02    1.77       1.0  T
   6   -100.6730099 -0.300706E-04  0.834E-03    1.75       1.4  T
   7   -100.6730108 -0.915779E-06  0.518E-03    1.75       2.3  T
   8   -100.6730113 -0.530364E-06  0.180E-03    1.75       6.5  T
   9   -100.6730114 -0.830251E-07  0.894E-04    1.75      13.2  T
  10   -100.6730114 -0.175046E-07  0.333E-04    1.75      35.4  T
     SCC iter.                  ...        0 min,  0.080 sec
     gradient                   ...        0 min,  0.069 sec
 * total energy  :   -98.7392557 Eh     change       -0.1480132E+00 Eh
   gradient norm :     0.2012139 Eh/α   predicted    -0.1320944E+00 ( -10.75%)
   displ. norm   :     0.6835963 α      lambda       -0.1210876E+00
   maximum displ.:     0.2113696 α      in ANC's #130, #54, #131, ...

........................................................................
.............................. CYCLE    4 ..............................
........................................................................

 iter      E             dE          RMSdq      gap      omega  full diag
   1   -100.5808650 -0.100581E+03  0.299E-01    1.82       0.0  T
   2   -100.5713941  0.947094E-02  0.427E-01    1.57       1.0  T
   3   -100.5865053 -0.151112E-01  0.142E-01    1.77       1.0  T
   4   -100.5857852  0.720032E-03  0.955E-02    1.66       1.0  T
   5   -100.5864093 -0.624078E-03  0.411E-02    1.80       1.0  T
   6   -100.5865746 -0.165294E-03  0.924E-03    1.75       1.3  T
   7   -100.5865789 -0.424134E-05  0.357E-03    1.75       3.3  T
   8   -100.5865790 -0.168296E-06  0.143E-03    1.75       8.3  T
   9   -100.5865791 -0.635374E-07  0.668E-04    1.75      17.6  T
  10   -100.5865791 -0.150119E-07  0.259E-04    1.75      45.5  T
     SCC iter.                  ...        0 min,  0.081 sec
     gradient                   ...        0 min,  0.069 sec
 * total energy  :   -98.8397426 Eh     change       -0.1004869E+00 Eh
   gradient norm :     0.1435378 Eh/α   predicted    -0.8883616E-01 ( -11.59%)
   displ. norm   :     0.7503023 α      lambda       -0.9187435E-01
   maximum displ.:     0.2449439 α      in ANC's #54, #46, #75, ...

........................................................................
.............................. CYCLE    5 ..............................
........................................................................

 iter      E             dE          RMSdq      gap      omega  full diag
   1   -100.5121724 -0.100512E+03  0.304E-01    1.83       0.0  T
   2   -100.4871660  0.250064E-01  0.510E-01    1.44       1.0  T
   3   -100.5191978 -0.320318E-01  0.136E-01    1.78       1.0  T
   4   -100.5188093  0.388515E-03  0.989E-02    1.67       1.0  T
   5   -100.5192895 -0.480135E-03  0.466E-02    1.78       1.0  T
   6   -100.5194607 -0.171286E-03  0.208E-02    1.72       1.0  T
   7   -100.5194993 -0.386046E-04  0.675E-03    1.74       1.7  T
   8   -100.5195000 -0.692643E-06  0.397E-03    1.74       3.0  T
   9   -100.5195008 -0.740611E-06  0.185E-03    1.74       6.4  T
  10   -100.5195009 -0.174220E-06  0.584E-04    1.74      20.2  T
  11   -100.5195010 -0.487570E-08  0.264E-04    1.74      44.7  T
     SCC iter.                  ...        0 min,  0.088 sec
     gradient                   ...        0 min,  0.069 sec
 * total energy  :   -98.9170323 Eh     change       -0.7728972E-01 Eh
   gradient norm :     0.1055147 Eh/α   predicted    -0.7179773E-01 (  -7.11%)
   displ. norm   :     0.7753532 α      lambda       -0.6916714E-01
   maximum displ.:     0.2646388 α      in ANC's #54, #46, #75, ...

........................................................................
.............................. CYCLE    6 ..............................
........................................................................

 iter      E             dE          RMSdq      gap      omega  full diag
   1   -100.4743531 -0.100474E+03  0.347E-01    1.81       0.0  T
   2   -100.4122521  0.621011E-01  0.645E-01    1.18       1.0  T
   3   -100.4811587 -0.689066E-01  0.192E-01    1.82       1.0  T
   4   -100.4828913 -0.173266E-02  0.128E-01    1.63       1.0  T
   5   -100.4837397 -0.848389E-03  0.538E-02    1.69       1.0  T
   6   -100.4839172 -0.177460E-03  0.309E-02    1.67       1.0  T
   7   -100.4840103 -0.930953E-04  0.146E-02    1.66       1.0  T
   8   -100.4840263 -0.160110E-04  0.907E-03    1.68       1.3  T
   9   -100.4840314 -0.511946E-05  0.303E-03    1.68       3.9  T
  10   -100.4840317 -0.267936E-06  0.101E-03    1.68      11.7  T
  11   -100.4840317 -0.426752E-07  0.513E-04    1.68      23.0  T
  12   -100.4840317 -0.184384E-07  0.205E-04    1.68      57.6  T
     SCC iter.                  ...        0 min,  0.096 sec
     gradient                   ...        0 min,  0.069 sec
 * total energy  :   -98.9764212 Eh     change       -0.5938891E-01 Eh
   gradient norm :     0.0846546 Eh/α   predicted    -0.5537432E-01 (  -6.76%)
   displ. norm   :     0.7913763 α      lambda       -0.5441998E-01
   maximum displ.:     0.2710900 α      in ANC's #54, #46, #75, ...

........................................................................
.............................. CYCLE    7 ..............................
........................................................................

 iter      E             dE          RMSdq      gap      omega  full diag
   1   -100.4609398 -0.100461E+03  0.354E-01    1.40       0.0  T
   2   -100.3832290  0.777108E-01  0.701E-01    0.93       1.0  T
   3   -100.4647302 -0.815012E-01  0.215E-01    1.43       1.0  T
   4   -100.4658191 -0.108891E-02  0.175E-01    1.43       1.0  T
   5   -100.4676548 -0.183565E-02  0.938E-02    1.40       1.0  T
   6   -100.4686841 -0.102931E-02  0.422E-02    1.44       1.0  T
   7   -100.4688393 -0.155256E-03  0.221E-02    1.43       1.0  T
   8   -100.4688878 -0.484574E-04  0.885E-03    1.43       1.3  T
   9   -100.4688900 -0.223095E-05  0.374E-03    1.43       3.2  T
  10   -100.4688906 -0.565035E-06  0.138E-03    1.43       8.6  T
  11   -100.4688907 -0.868081E-07  0.666E-04    1.43      17.7  T
  12   -100.4688907 -0.152111E-07  0.212E-04    1.43      55.7  T
     SCC iter.                  ...        0 min,  0.096 sec
     gradient                   ...        0 min,  0.069 sec
 * total energy  :   -99.0225433 Eh     change       -0.4612217E-01 Eh
   gradient norm :     0.0845424 Eh/α   predicted    -0.4425104E-01 (  -4.06%)
   displ. norm   :     0.7539952 α      lambda       -0.4110286E-01
   maximum displ.:     0.2513407 α      in ANC's #54, #46, #75, ...

........................................................................
.............................. CYCLE    8 ..............................
........................................................................

 iter      E             dE          RMSdq      gap      omega  full diag
   1   -100.4613751 -0.100461E+03  0.287E-01    1.06       0.0  T
   2   -100.4167196  0.446555E-01  0.545E-01    0.93       1.0  T
   3   -100.4628939 -0.461743E-01  0.174E-01    1.06       1.0  T
   4   -100.4643188 -0.142488E-02  0.832E-02    1.04       1.0  T
   5   -100.4648965 -0.577677E-03  0.319E-02    1.03       1.0  T
   6   -100.4649671 -0.706674E-04  0.213E-02    1.04       1.0  T
   7   -100.4649991 -0.319748E-04  0.109E-02    1.04       1.1  T
   8   -100.4649826  0.164873E-04  0.139E-02    1.03       1.0  T
   9   -100.4650085 -0.258488E-04  0.357E-03    1.04       3.3  T
  10   -100.4650095 -0.106548E-05  0.147E-03    1.04       8.0  T
  11   -100.4650096 -0.114977E-06  0.563E-04    1.04      20.9  T
  12   -100.4650096 -0.115119E-07  0.278E-04    1.04      42.3  T
     SCC iter.                  ...        0 min,  0.097 sec
     gradient                   ...        0 min,  0.069 sec
 * total energy  :   -99.0566543 Eh     change       -0.3411100E-01 Eh
   gradient norm :     0.0884676 Eh/α   predicted    -0.3223513E-01 (  -5.50%)
   displ. norm   :     0.6843482 α      lambda       -0.3087641E-01
   maximum displ.:     0.2356016 α      in ANC's #46, #54, #75, ...

........................................................................
.............................. CYCLE    9 ..............................
........................................................................

 iter      E             dE          RMSdq      gap      omega  full diag
   1   -100.4680697 -0.100468E+03  0.231E-01    0.72       0.0  T
   2   -100.4560585  0.120113E-01  0.292E-01    0.79       1.0  T
   3   -100.4634676 -0.740919E-02  0.200E-01    0.72       1.0  T
   4   -100.4670220 -0.355438E-02  0.144E-01    0.73       1.0  T
   5   -100.4691862 -0.216417E-02  0.276E-02    0.75       1.0  T
   6   -100.4692655 -0.792602E-04  0.142E-02    0.74       1.0  T
   7   -100.4692578  0.767725E-05  0.142E-02    0.75       1.0  T
   8   -100.4692816 -0.238354E-04  0.576E-03    0.75       2.0  T
   9   -100.4692832 -0.158975E-05  0.258E-03    0.75       4.6  T
  10   -100.4692839 -0.743923E-06  0.996E-04    0.75      11.8  T
  11   -100.4692840 -0.465599E-07  0.401E-04    0.75      29.4  T
     SCC iter.                  ...        0 min,  0.089 sec
     gradient                   ...        0 min,  0.069 sec
 * total energy  :   -99.0819112 Eh     change       -0.2525690E-01 Eh
   gradient norm :     0.0944144 Eh/α   predicted    -0.2266873E-01 ( -10.25%)
   displ. norm   :     0.6291485 α      lambda       -0.2691218E-01
   maximum displ.:     0.2191461 α      in ANC's #46, #45, #54, ...

........................................................................
.............................. CYCLE   10 ..............................
........................................................................

 iter      E             dE          RMSdq      gap      omega  full diag
   1   -100.4787407 -0.100479E+03  0.267E-01    0.49       0.0  T
   2   -100.4641172  0.146235E-01  0.341E-01    0.71       1.0  T
   3   -100.4706786 -0.656142E-02  0.282E-01    0.43       1.0  T
   4   -100.4770572 -0.637854E-02  0.174E-01    0.54       1.0  T
   5   -100.4801161 -0.305890E-02  0.411E-02    0.53       1.0  T
   6   -100.4800890  0.270392E-04  0.363E-02    0.56       1.0  T
   7   -100.4802795 -0.190470E-03  0.158E-02    0.55       1.0  T
   8   -100.4803177 -0.381570E-04  0.358E-03    0.55       3.3  T
   9   -100.4803185 -0.883159E-06  0.198E-03    0.55       5.9  T
  10   -100.4803189 -0.309785E-06  0.106E-03    0.55      11.1  T
  11   -100.4803190 -0.154306E-06  0.314E-04    0.55      37.5  T
  12   -100.4803190 -0.699700E-09  0.159E-04    0.55      74.3  T
     SCC iter.                  ...        0 min,  0.097 sec
     gradient                   ...        0 min,  0.070 sec
 * total energy  :   -99.1049492 Eh     change       -0.2303794E-01 Eh
   gradient norm :     0.1063262 Eh/α   predicted    -0.1878240E-01 ( -18.47%)
   displ. norm   :     0.6641558 α      lambda       -0.3342275E-01
   maximum displ.:     0.2074394 α      in ANC's #46, #45, #202, ...

........................................................................
.............................. CYCLE   11 ..............................
........................................................................

 iter      E             dE          RMSdq      gap      omega  full diag
   1   -100.4974446 -0.100497E+03  0.346E-01    0.38       0.0  T
   2   -100.4841051  0.133395E-01  0.371E-01    0.62       1.0  T
   3   -100.4749524  0.915265E-02  0.440E-01    0.23       1.0  T
   4   -100.4963325 -0.213801E-01  0.158E-01    0.44       1.0  T
   5   -100.4983516 -0.201905E-02  0.739E-02    0.41       1.0  T
   6   -100.4978891  0.462465E-03  0.825E-02    0.45       1.0  T
   7   -100.4990646 -0.117549E-02  0.165E-02    0.43       1.0  T
   8   -100.4990877 -0.231661E-04  0.904E-03    0.44       1.3  T
   9   -100.4990926 -0.485415E-05  0.340E-03    0.44       3.5  T
  10   -100.4990939 -0.127373E-05  0.119E-03    0.44       9.9  T
  11   -100.4990940 -0.148742E-06  0.498E-04    0.44      23.7  T
  12   -100.4990940 -0.166864E-08  0.297E-04    0.44      39.7  T
     SCC iter.                  ...        0 min,  0.096 sec
     gradient                   ...        0 min,  0.069 sec
 * total energy  :   -99.1343227 Eh     change       -0.2937355E-01 Eh
   gradient norm :     0.1227561 Eh/α   predicted    -0.2408287E-01 ( -18.01%)
   displ. norm   :     0.6922176 α      lambda       -0.4433259E-01
   maximum displ.:     0.2274705 α      in ANC's #202, #206, #2, ...

........................................................................
.............................. CYCLE   12 ..............................
........................................................................

 iter      E             dE          RMSdq      gap      omega  full diag
   1   -100.5287002 -0.100529E+03  0.413E-01    0.46       0.0  T
   2   -100.5288457 -0.145466E-03  0.259E-01    0.39       1.0  T
   3   -100.5016212  0.272245E-01  0.456E-01    0.75       1.0  T
   4   -100.5272412 -0.256200E-01  0.174E-01    0.35       1.0  T
   5   -100.5238983  0.334294E-02  0.208E-01    0.55       1.0  T
   6   -100.5295999 -0.570155E-02  0.740E-02    0.44       1.0  T
   7   -100.5304589 -0.859083E-03  0.158E-02    0.45       1.0  T
   8   -100.5304697 -0.107868E-04  0.110E-02    0.45       1.1  T
   9   -100.5304731 -0.334812E-05  0.454E-03    0.45       2.6  T
  10   -100.5304762 -0.311519E-05  0.902E-04    0.45      13.1  T
  11   -100.5304762 -0.370846E-07  0.430E-04    0.45      27.4  T
  12   -100.5304762 -0.975474E-08  0.199E-04    0.45      59.3  T
     SCC iter.                  ...        0 min,  0.097 sec
     gradient                   ...        0 min,  0.068 sec
 * total energy  :   -99.1713522 Eh     change       -0.3702945E-01 Eh
   gradient norm :     0.1399875 Eh/α   predicted    -0.3278762E-01 ( -11.46%)
   displ. norm   :     0.6050752 α      lambda       -0.4334905E-01
   maximum displ.:     0.2338205 α      in ANC's #202, #206, #188, ...

........................................................................
.............................. CYCLE   13 ..............................
........................................................................

 iter      E             dE          RMSdq      gap      omega  full diag
   1   -100.5658216 -0.100566E+03  0.448E-01    0.70       0.0  T
   2   -100.4809473  0.848743E-01  0.902E-01    0.05       1.0  T
   3   -100.5610485 -0.801012E-01  0.365E-01    0.78       1.0  T
   4   -100.5704854 -0.943691E-02  0.144E-01    0.53       1.0  T
   5   -100.5615701  0.891525E-02  0.253E-01    0.56       1.0  T
   6   -100.5726147 -0.110446E-01  0.279E-02    0.53       1.0  T
   7   -100.5726697 -0.549772E-04  0.137E-02    0.53       1.0  T
   8   -100.5726815 -0.118467E-04  0.736E-03    0.54       1.6  T
   9   -100.5726867 -0.515469E-05  0.208E-03    0.54       5.7  T
  10   -100.5726869 -0.204269E-06  0.862E-04    0.54      13.7  T
  11   -100.5726870 -0.103321E-06  0.342E-04    0.54      34.5  T
     SCC iter.                  ...        0 min,  0.090 sec
     gradient                   ...        0 min,  0.068 sec
 * total energy  :   -99.1942649 Eh     change       -0.2291271E-01 Eh
   gradient norm :     0.1557197 Eh/α   predicted    -0.2960996E-01 (  29.23%)
   displ. norm   :     0.2379109 α      lambda       -0.2677545E-01
   maximum displ.:     0.0663130 α      in ANC's #204, #131, #130, ...

........................................................................
.............................. CYCLE   14 ..............................
........................................................................

 iter      E             dE          RMSdq      gap      omega  full diag
   1   -100.5736113 -0.100574E+03  0.174E-01    0.61       0.0  T
   2   -100.5576642  0.159471E-01  0.374E-01    0.28       1.0  T
   3   -100.5736299 -0.159658E-01  0.133E-01    0.62       1.0  T
   4   -100.5746528 -0.102285E-02  0.599E-02    0.55       1.0  T
   5   -100.5729132  0.173953E-02  0.111E-01    0.56       1.0  T
   6   -100.5749347 -0.202148E-02  0.203E-02    0.54       1.0  T
   7   -100.5749706 -0.358788E-04  0.661E-03    0.54       1.8  T
   8   -100.5749758 -0.515977E-05  0.253E-03    0.54       4.7  T
   9   -100.5749761 -0.311804E-06  0.119E-03    0.54       9.9  T
  10   -100.5749761 -0.719253E-07  0.555E-04    0.54      21.2  T
  11   -100.5749762 -0.177956E-07  0.246E-04    0.54      47.9  T
     SCC iter.                  ...        0 min,  0.090 sec
     gradient                   ...        0 min,  0.069 sec
 * total energy  :   -99.2136458 Eh     change       -0.1938090E-01 Eh
   gradient norm :     0.0925173 Eh/α   predicted    -0.1414556E-01 ( -27.01%)
   displ. norm   :     0.4219036 α      lambda       -0.2780204E-01
   maximum displ.:     0.1182958 α      in ANC's #1, #208, #145, ...

........................................................................
.............................. CYCLE   15 ..............................
........................................................................

 iter      E             dE          RMSdq      gap      omega  full diag
   1   -100.6023547 -0.100602E+03  0.357E-01    0.75       0.0  T
   2   -100.5213585  0.809962E-01  0.867E-01    0.05       1.0  T
   3   -100.6049085 -0.835499E-01  0.235E-01    0.73       1.0  T
   4   -100.5856785  0.192300E-01  0.363E-01    0.54       1.0  T
   5   -100.6064227 -0.207442E-01  0.121E-01    0.67       1.0  T
   6   -100.6082134 -0.179072E-02  0.163E-02    0.61       1.0  T
   7   -100.6082367 -0.233000E-04  0.753E-03    0.60       1.6  T
   8   -100.6082419 -0.514289E-05  0.353E-03    0.60       3.3  T
   9   -100.6082424 -0.475419E-06  0.140E-03    0.60       8.4  T
  10   -100.6082426 -0.240833E-06  0.590E-04    0.60      20.0  T
  11   -100.6082426 -0.271190E-07  0.247E-04    0.60      47.7  T
     SCC iter.                  ...        0 min,  0.088 sec
     gradient                   ...        0 min,  0.069 sec
 * total energy  :   -99.2290745 Eh     change       -0.1542872E-01 Eh
   gradient norm :     0.0387590 Eh/α   predicted    -0.1637556E-01 (   6.14%)
   displ. norm   :     0.3582019 α      lambda       -0.5187198E-02
   maximum displ.:     0.3128913 α      in ANC's #1, #46, #25, ...

........................................................................
.............................. CYCLE   16 ..............................
........................................................................

 iter      E             dE          RMSdq      gap      omega  full diag
   1   -100.6122920 -0.100612E+03  0.190E-01    0.69       0.0  T
   2   -100.5952111  0.170810E-01  0.397E-01    0.33       1.0  T
   3   -100.6113842 -0.161731E-01  0.154E-01    0.72       1.0  T
   4   -100.6112791  0.105079E-03  0.109E-01    0.62       1.0  T
   5   -100.6131453 -0.186624E-02  0.259E-02    0.63       1.0  T
   6   -100.6132430 -0.976539E-04  0.439E-03    0.62       2.7  T
   7   -100.6132423  0.697171E-06  0.389E-03    0.62       3.0  T
   8   -100.6132434 -0.113959E-05  0.225E-03    0.62       5.2  T
   9   -100.6132439 -0.521856E-06  0.687E-04    0.62      17.1  T
  10   -100.6132440 -0.297594E-07  0.272E-04    0.62      43.3  T
     SCC iter.                  ...        0 min,  0.081 sec
     gradient                   ...        0 min,  0.069 sec
 * total energy  :   -99.2304459 Eh     change       -0.1371324E-02 Eh
   gradient norm :     0.0339226 Eh/α   predicted    -0.2926397E-02 ( 113.40%)
   displ. norm   :     0.3111943 α      lambda       -0.5857561E-02
   maximum displ.:     0.2218293 α      in ANC's #1, #46, #45, ...

........................................................................
.............................. CYCLE   17 ..............................
........................................................................

 iter      E             dE          RMSdq      gap      omega  full diag
   1   -100.6211714 -0.100621E+03  0.140E-01    0.61       0.0  T
   2   -100.6137192  0.745223E-02  0.240E-01    0.75       1.0  T
   3   -100.6217435 -0.802429E-02  0.772E-02    0.61       1.0  T
   4   -100.6190571  0.268640E-02  0.146E-01    0.72       1.0  T
   5   -100.6217507 -0.269367E-02  0.320E-02    0.61       1.0  T
   6   -100.6218680 -0.117277E-03  0.857E-03    0.64       1.4  T
   7   -100.6218765 -0.848173E-05  0.321E-03    0.64       3.7  T
   8   -100.6218771 -0.638403E-06  0.165E-03    0.64       7.1  T
   9   -100.6218773 -0.202096E-06  0.612E-04    0.64      19.3  T
  10   -100.6218773 -0.288592E-07  0.221E-04    0.64      53.4  T
     SCC iter.                  ...        0 min,  0.081 sec
     gradient                   ...        0 min,  0.069 sec
 * total energy  :   -99.2335183 Eh     change       -0.3072436E-02 Eh
   gradient norm :     0.0326360 Eh/α   predicted    -0.3212426E-02 (   4.56%)
   displ. norm   :     0.1354535 α      lambda       -0.2182020E-02
   maximum displ.:     0.0456830 α      in ANC's #46, #25, #24, ...

........................................................................
.............................. CYCLE   18 ..............................
........................................................................

 iter      E             dE          RMSdq      gap      omega  full diag
   1   -100.6210131 -0.100621E+03  0.617E-02    0.64       0.0  T
   2   -100.6193919  0.162126E-02  0.109E-01    0.58       1.0  T
   3   -100.6210354 -0.164355E-02  0.396E-02    0.65       1.0  T
   4   -100.6207519  0.283539E-03  0.569E-02    0.60       1.0  T
   5   -100.6211097 -0.357779E-03  0.207E-02    0.65       1.0  T
   6   -100.6211527 -0.430644E-04  0.380E-03    0.63       3.1  T
   7   -100.6211539 -0.117100E-05  0.127E-03    0.63       9.3  T
   8   -100.6211540 -0.460089E-07  0.909E-04    0.63      13.0  T
   9   -100.6211541 -0.102000E-06  0.235E-04    0.63      50.2  T
     SCC iter.                  ...        0 min,  0.073 sec
     gradient                   ...        0 min,  0.069 sec
 * total energy  :   -99.2351367 Eh     change       -0.1618415E-02 Eh
   gradient norm :     0.0152002 Eh/α   predicted    -0.1111040E-02 ( -31.35%)
   displ. norm   :     0.2364449 α      lambda       -0.2080136E-02
   maximum displ.:     0.0931765 α      in ANC's #25, #24, #23, ...

........................................................................
.............................. CYCLE   19 ..............................
........................................................................

 iter      E             dE          RMSdq      gap      omega  full diag
   1   -100.6200983 -0.100620E+03  0.815E-02    0.62       0.0  T
   2   -100.6195747  0.523591E-03  0.720E-02    0.62       1.0  T
   3   -100.6182250  0.134966E-02  0.113E-01    0.63       1.0  T
   4   -100.6200968 -0.187173E-02  0.215E-02    0.62       1.0  T
   5   -100.6200641  0.326716E-04  0.272E-02    0.65       1.0  T
   6   -100.6201547 -0.906207E-04  0.287E-03    0.62       4.1  T
   7   -100.6201553 -0.553134E-06  0.131E-03    0.62       9.0  T
   8   -100.6201552  0.970408E-07  0.121E-03    0.62       9.7  T
   9   -100.6201554 -0.204115E-06  0.233E-04    0.62      50.6  T
  10   -100.6201554 -0.157689E-08  0.109E-04    0.62     108.0  T
     SCC iter.                  ...        0 min,  0.080 sec
     gradient                   ...        0 min,  0.069 sec
 * total energy  :   -99.2365737 Eh     change       -0.1436975E-02 Eh
   gradient norm :     0.0139213 Eh/α   predicted    -0.1098268E-02 ( -23.57%)
   displ. norm   :     0.2463429 α      lambda       -0.1387226E-02
   maximum displ.:     0.1137256 α      in ANC's #25, #24, #23, ...

........................................................................
.............................. CYCLE   20 ..............................
........................................................................

 iter      E             dE          RMSdq      gap      omega  full diag
   1   -100.6184268 -0.100618E+03  0.653E-02    0.62       0.0  T
   2   -100.6182736  0.153263E-03  0.484E-02    0.62       1.0  T
   3   -100.6167161  0.155752E-02  0.104E-01    0.62       1.0  T
   4   -100.6184317 -0.171559E-02  0.116E-02    0.62       1.0  T
   5   -100.6184283  0.335471E-05  0.117E-02    0.63       1.0  T
   6   -100.6184449 -0.165522E-04  0.309E-03    0.62       3.8  T
   7   -100.6184455 -0.674525E-06  0.135E-03    0.62       8.7  T
   8   -100.6184454  0.809371E-07  0.116E-03    0.62      10.2  T
   9   -100.6184456 -0.183794E-06  0.168E-04    0.62      70.3  T
  10   -100.6184456 -0.395943E-09  0.923E-05    0.62     127.6  T
     SCC iter.                  ...        0 min,  0.080 sec
     gradient                   ...        0 min,  0.069 sec
 * total energy  :   -99.2375908 Eh     change       -0.1017108E-02 Eh
   gradient norm :     0.0201259 Eh/α   predicted    -0.7357200E-03 ( -27.67%)
   displ. norm   :     0.3239536 α      lambda       -0.1641464E-02
   maximum displ.:     0.1544309 α      in ANC's #25, #24, #23, ...
 * RMSD in coord.:     0.8216816 α      energy gain  -0.8797478E+00 Eh

generating ANC from model Hessian ...
Using Lindh-Hessian (1995)
 Shifting diagonal of input Hessian by    1.0193659846517520E-002
 Lowest  eigenvalues of input Hessian
    0.010000    0.010067    0.000000    0.000000    0.000000    0.000000
    0.000000    0.000000    0.010268    0.010281    0.010385    0.010530
    0.010556    0.010834    0.011002    0.011123    0.011186    0.011244
 Highest eigenvalues
    1.989621    2.006247    2.042663    2.124319    2.124601    2.183630


........................................................................
.............................. CYCLE   21 ..............................
........................................................................

 iter      E             dE          RMSdq      gap      omega  full diag
   1   -100.6171028 -0.100617E+03  0.809E-02    0.57       0.0  T
   2   -100.6138948  0.320802E-02  0.172E-01    0.74       1.0  T
   3   -100.6171351 -0.324023E-02  0.522E-02    0.58       1.0  T
   4   -100.6172708 -0.135790E-03  0.129E-02    0.60       1.0  T
   5   -100.6172399  0.309758E-04  0.181E-02    0.60       1.0  T
   6   -100.6172938 -0.539634E-04  0.321E-03    0.60       3.7  T
   7   -100.6172946 -0.818827E-06  0.143E-03    0.60       8.3  T
   8   -100.6172947 -0.684989E-07  0.828E-04    0.60      14.2  T
   9   -100.6172948 -0.678658E-07  0.321E-04    0.60      36.7  T
     SCC iter.                  ...        0 min,  0.073 sec
     gradient                   ...        0 min,  0.069 sec
 * total energy  :   -99.2387762 Eh     change       -0.1185375E-02 Eh
   gradient norm :     0.0186338 Eh/α   predicted     0.0000000E+00 (-100.00%)
   displ. norm   :     0.2608737 α      lambda       -0.2147374E-02
   maximum displ.:     0.1576412 α      in ANC's #28, #24, #29, ...

........................................................................
.............................. CYCLE   22 ..............................
........................................................................

 iter      E             dE          RMSdq      gap      omega  full diag
   1   -100.6208916 -0.100621E+03  0.683E-02    0.59       0.0  T
   2   -100.6195163  0.137533E-02  0.113E-01    0.69       1.0  T
   3   -100.6207392 -0.122294E-02  0.542E-02    0.58       1.0  T
   4   -100.6207690 -0.297346E-04  0.365E-02    0.62       1.0  T
   5   -100.6209630 -0.194044E-03  0.112E-02    0.61       1.1  T
   6   -100.6209791 -0.160294E-04  0.260E-03    0.61       4.5  T
   7   -100.6209793 -0.274163E-06  0.158E-03    0.61       7.5  T
   8   -100.6209795 -0.136731E-06  0.841E-04    0.61      14.0  T
   9   -100.6209795 -0.592023E-07  0.308E-04    0.61      38.2  T
     SCC iter.                  ...        0 min,  0.073 sec
     gradient                   ...        0 min,  0.069 sec
 * total energy  :   -99.2405322 Eh     change       -0.1756015E-02 Eh
   gradient norm :     0.0105098 Eh/α   predicted    -0.1146771E-02 ( -34.69%)
   displ. norm   :     0.4892067 α      lambda       -0.2428531E-02
   maximum displ.:     0.3033889 α      in ANC's #28, #24, #29, ...

........................................................................
.............................. CYCLE   23 ..............................
........................................................................

 iter      E             dE          RMSdq      gap      omega  full diag
   1   -100.6222660 -0.100622E+03  0.109E-01    0.59       0.0  T
   2   -100.6192331  0.303289E-02  0.168E-01    0.73       1.0  T
   3   -100.6216624 -0.242924E-02  0.942E-02    0.55       1.0  T
   4   -100.6219681 -0.305709E-03  0.551E-02    0.62       1.0  T
   5   -100.6224313 -0.463244E-03  0.168E-02    0.61       1.0  T
   6   -100.6224634 -0.320328E-04  0.447E-03    0.61       2.6  T
   7   -100.6224642 -0.878226E-06  0.271E-03    0.61       4.3  T
   8   -100.6224647 -0.468122E-06  0.123E-03    0.61       9.6  T
   9   -100.6224648 -0.107380E-06  0.428E-04    0.61      27.5  T
  10   -100.6224648 -0.146763E-07  0.162E-04    0.61      72.8  T
     SCC iter.                  ...        0 min,  0.081 sec
     gradient                   ...        0 min,  0.070 sec
 * total energy  :   -99.2421393 Eh     change       -0.1607110E-02 Eh
   gradient norm :     0.0068924 Eh/α   predicted    -0.1504904E-02 (  -6.36%)
   displ. norm   :     0.3205469 α      lambda       -0.6721098E-03
   maximum displ.:     0.1888411 α      in ANC's #28, #9, #24, ...

........................................................................
.............................. CYCLE   24 ..............................
........................................................................

 iter      E             dE          RMSdq      gap      omega  full diag
   1   -100.6223860 -0.100622E+03  0.543E-02    0.60       0.0  T
   2   -100.6221739  0.212145E-03  0.518E-02    0.64       1.0  T
   3   -100.6215786  0.595238E-03  0.815E-02    0.55       1.0  T
   4   -100.6223582 -0.779580E-03  0.165E-02    0.62       1.0  T
   5   -100.6223800 -0.218123E-04  0.126E-02    0.61       1.0  T
   6   -100.6224022 -0.221468E-04  0.242E-03    0.61       4.9  T
   7   -100.6224025 -0.320181E-06  0.126E-03    0.61       9.4  T
   8   -100.6224026 -0.849718E-07  0.487E-04    0.61      24.2  T
   9   -100.6224026 -0.142017E-07  0.177E-04    0.61      66.6  T
     SCC iter.                  ...        0 min,  0.073 sec
     gradient                   ...        0 min,  0.069 sec
 * total energy  :   -99.2426141 Eh     change       -0.4747666E-03 Eh
   gradient norm :     0.0074189 Eh/α   predicted    -0.3705893E-03 ( -21.94%)
   displ. norm   :     0.2760574 α      lambda       -0.4128207E-03
   maximum displ.:     0.1474120 α      in ANC's #9, #28, #24, ...

........................................................................
.............................. CYCLE   25 ..............................
........................................................................

 iter      E             dE          RMSdq      gap      omega  full diag
   1   -100.6231747 -0.100623E+03  0.446E-02    0.62       0.0  T
   2   -100.6230594  0.115253E-03  0.405E-02    0.59       1.0  T
   3   -100.6225981  0.461315E-03  0.718E-02    0.67       1.0  T
   4   -100.6231799 -0.581754E-03  0.700E-03    0.61       1.7  T
   5   -100.6231817 -0.182269E-05  0.468E-03    0.61       2.5  T
   6   -100.6231827 -0.999024E-06  0.293E-03    0.61       4.0  T
   7   -100.6231840 -0.129590E-05  0.132E-03    0.61       8.9  T
   8   -100.6231842 -0.215549E-06  0.316E-04    0.61      37.4  T
   9   -100.6231842 -0.503135E-08  0.149E-04    0.61      78.9  T
     SCC iter.                  ...        0 min,  0.073 sec
     gradient                   ...        0 min,  0.068 sec
 * total energy  :   -99.2429106 Eh     change       -0.2964976E-03 Eh
   gradient norm :     0.0053525 Eh/α   predicted    -0.2221410E-03 ( -25.08%)
   displ. norm   :     0.2274218 α      lambda       -0.2633392E-03
   maximum displ.:     0.1458946 α      in ANC's #9, #11, #28, ...

........................................................................
.............................. CYCLE   26 ..............................
........................................................................

 iter      E             dE          RMSdq      gap      omega  full diag
   1   -100.6242662 -0.100624E+03  0.447E-02    0.63       0.0  T
   2   -100.6235119  0.754349E-03  0.825E-02    0.55       1.0  T
   3   -100.6241935 -0.681600E-03  0.374E-02    0.64       1.0  T
   4   -100.6242953 -0.101796E-03  0.114E-02    0.61       1.0  T
   5   -100.6242926  0.267964E-05  0.107E-02    0.61       1.1  T
   6   -100.6243099 -0.172822E-04  0.189E-03    0.61       6.2  T
   7   -100.6243104 -0.453032E-06  0.990E-04    0.61      11.9  T
   8   -100.6243104 -0.997265E-07  0.336E-04    0.61      35.1  T
     SCC iter.                  ...        0 min,  0.065 sec
     gradient                   ...        0 min,  0.069 sec
 * total energy  :   -99.2431040 Eh     change       -0.1934657E-03 Eh
   gradient norm :     0.0043983 Eh/α   predicted    -0.1384912E-03 ( -28.42%)
   displ. norm   :     0.2169760 α      lambda       -0.1921335E-03
   maximum displ.:     0.1462628 α      in ANC's #9, #2, #11, ...

........................................................................
.............................. CYCLE   27 ..............................
........................................................................

 iter      E             dE          RMSdq      gap      omega  full diag
   1   -100.6249212 -0.100625E+03  0.453E-02    0.63       0.0  T
   2   -100.6238470  0.107427E-02  0.975E-02    0.54       1.0  T
   3   -100.6249004 -0.105341E-02  0.333E-02    0.63       1.0  T
   4   -100.6249739 -0.735467E-04  0.932E-03    0.61       1.3  T
   5   -100.6249715  0.245664E-05  0.869E-03    0.62       1.4  T
   6   -100.6249818 -0.103904E-04  0.231E-03    0.61       5.1  T
   7   -100.6249826 -0.762655E-06  0.104E-03    0.61      11.3  T
   8   -100.6249827 -0.106847E-06  0.341E-04    0.61      34.5  T
   9   -100.6249827 -0.755256E-08  0.134E-04    0.61      88.3  T
     SCC iter.                  ...        0 min,  0.073 sec
     gradient                   ...        0 min,  0.068 sec
 * total energy  :   -99.2432565 Eh     change       -0.1524387E-03 Eh
   gradient norm :     0.0056527 Eh/α   predicted    -0.1005903E-03 ( -34.01%)
   displ. norm   :     0.2629682 α      lambda       -0.2174430E-03
   maximum displ.:     0.1733826 α      in ANC's #9, #2, #11, ...

........................................................................
.............................. CYCLE   28 ..............................
........................................................................

 iter      E             dE          RMSdq      gap      omega  full diag
   1   -100.6251949 -0.100625E+03  0.532E-02    0.64       0.0  T
   2   -100.6234285  0.176640E-02  0.125E-01    0.52       1.0  T
   3   -100.6252045 -0.177605E-02  0.361E-02    0.64       1.0  T
   4   -100.6252872 -0.826492E-04  0.878E-03    0.62       1.3  T
   5   -100.6252935 -0.630647E-05  0.356E-03    0.62       3.3  T
   6   -100.6252930  0.463439E-06  0.326E-03    0.62       3.6  T
   7   -100.6252941 -0.106946E-05  0.191E-03    0.62       6.2  T
   8   -100.6252946 -0.535326E-06  0.413E-04    0.62      28.6  T
   9   -100.6252946 -0.122193E-07  0.172E-04    0.62      68.7  T
     SCC iter.                  ...        0 min,  0.073 sec
     gradient                   ...        0 min,  0.068 sec
 * total energy  :   -99.2434358 Eh     change       -0.1793874E-03 Eh
   gradient norm :     0.0075596 Eh/α   predicted    -0.1162424E-03 ( -35.20%)
   displ. norm   :     0.3618657 α      lambda       -0.2984791E-03
   maximum displ.:     0.2338648 α      in ANC's #9, #2, #11, ...

........................................................................
.............................. CYCLE   29 ..............................
........................................................................

 iter      E             dE          RMSdq      gap      omega  full diag
   1   -100.6248917 -0.100625E+03  0.704E-02    0.65       0.0  T
   2   -100.6213831  0.350855E-02  0.176E-01    0.49       1.0  T
   3   -100.6249650 -0.358184E-02  0.440E-02    0.64       1.0  T
   4   -100.6250707 -0.105734E-03  0.109E-02    0.62       1.1  T
   5   -100.6250669  0.376604E-05  0.105E-02    0.62       1.1  T
   6   -100.6250839 -0.170040E-04  0.434E-03    0.62       2.7  T
   7   -100.6250859 -0.197351E-05  0.149E-03    0.62       7.9  T
   8   -100.6250860 -0.115559E-06  0.526E-04    0.62      22.4  T
   9   -100.6250860 -0.148943E-07  0.252E-04    0.62      46.7  T
     SCC iter.                  ...        0 min,  0.073 sec
     gradient                   ...        0 min,  0.068 sec
 * total energy  :   -99.2436789 Eh     change       -0.2430111E-03 Eh
   gradient norm :     0.0099751 Eh/α   predicted    -0.1687851E-03 ( -30.54%)
   displ. norm   :     0.4637402 α      lambda       -0.4032805E-03
   maximum displ.:     0.2980408 α      in ANC's #9, #2, #6, ...

........................................................................
.............................. CYCLE   30 ..............................
........................................................................

 iter      E             dE          RMSdq      gap      omega  full diag
   1   -100.6243824 -0.100624E+03  0.853E-02    0.66       0.0  T
   2   -100.6194145  0.496786E-02  0.210E-01    0.46       1.0  T
   3   -100.6244681 -0.505353E-02  0.544E-02    0.66       1.0  T
   4   -100.6245983 -0.130228E-03  0.187E-02    0.63       1.0  T
   5   -100.6245651  0.331842E-04  0.240E-02    0.63       1.0  T
   6   -100.6246563 -0.911775E-04  0.325E-03    0.63       3.6  T
   7   -100.6246566 -0.351328E-06  0.193E-03    0.63       6.1  T
   8   -100.6246569 -0.253082E-06  0.692E-04    0.63      17.0  T
   9   -100.6246569 -0.317254E-07  0.349E-04    0.63      33.8  T
     SCC iter.                  ...        0 min,  0.073 sec
     gradient                   ...        0 min,  0.068 sec
 * total energy  :   -99.2439953 Eh     change       -0.3164493E-03 Eh
   gradient norm :     0.0118594 Eh/α   predicted    -0.2450053E-03 ( -22.58%)
   displ. norm   :     0.4238013 α      lambda       -0.4763363E-03
   maximum displ.:     0.2554988 α      in ANC's #9, #2, #4, ...

........................................................................
.............................. CYCLE   31 ..............................
........................................................................

 iter      E             dE          RMSdq      gap      omega  full diag
   1   -100.6256230 -0.100626E+03  0.691E-02    0.65       0.0  T
   2   -100.6242452  0.137776E-02  0.116E-01    0.55       1.0  T
   3   -100.6253457 -0.110046E-02  0.656E-02    0.67       1.0  T
   4   -100.6254524 -0.106706E-03  0.377E-02    0.62       1.0  T
   5   -100.6256881 -0.235681E-03  0.149E-02    0.63       1.0  T
   6   -100.6257140 -0.259160E-04  0.302E-03    0.63       3.9  T
   7   -100.6257143 -0.339422E-06  0.181E-03    0.63       6.5  T
   8   -100.6257144 -0.571315E-07  0.115E-03    0.63      10.2  T
   9   -100.6257145 -0.147768E-06  0.403E-04    0.63      29.2  T
  10   -100.6257145 -0.119167E-07  0.120E-04    0.63      98.0  T
     SCC iter.                  ...        0 min,  0.081 sec
     gradient                   ...        0 min,  0.068 sec
 * total energy  :   -99.2443601 Eh     change       -0.3648054E-03 Eh
   gradient norm :     0.0094933 Eh/α   predicted    -0.2809454E-03 ( -22.99%)
   displ. norm   :     0.6506974 α      lambda       -0.5880600E-03
   maximum displ.:     0.4064867 α      in ANC's #9, #2, #4, ...

........................................................................
.............................. CYCLE   32 ..............................
........................................................................

 iter      E             dE          RMSdq      gap      omega  full diag
   1   -100.6202038 -0.100620E+03  0.135E-01    0.73       0.0  T
   2   -100.5926670  0.275368E-01  0.484E-01    0.28       1.0  T
   3   -100.6215928 -0.289258E-01  0.542E-02    0.64       1.0  T
   4   -100.6214973  0.955144E-04  0.311E-02    0.65       1.0  T
   5   -100.6214073  0.900483E-04  0.360E-02    0.64       1.0  T
   6   -100.6215941 -0.186882E-03  0.698E-03    0.64       1.7  T
   7   -100.6216003 -0.615759E-05  0.288E-03    0.64       4.1  T
   8   -100.6216008 -0.500182E-06  0.131E-03    0.64       9.0  T
   9   -100.6216009 -0.135368E-06  0.692E-04    0.64      17.0  T
  10   -100.6216010 -0.500599E-07  0.219E-04    0.64      53.9  T
     SCC iter.                  ...        0 min,  0.081 sec
     gradient                   ...        0 min,  0.068 sec
 * total energy  :   -99.2445976 Eh     change       -0.2374430E-03 Eh
   gradient norm :     0.0200625 Eh/α   predicted    -0.4185246E-03 (  76.26%)
   displ. norm   :     0.2251818 α      lambda       -0.9964755E-03
   maximum displ.:     0.1339318 α      in ANC's #2, #4, #25, ...

........................................................................
.............................. CYCLE   33 ..............................
........................................................................

 iter      E             dE          RMSdq      gap      omega  full diag
   1   -100.6267988 -0.100627E+03  0.593E-02    0.60       0.0  T
   2   -100.6201655  0.663326E-02  0.226E-01    0.80       1.0  T
   3   -100.6268897 -0.672421E-02  0.607E-02    0.67       1.0  T
   4   -100.6266942  0.195506E-03  0.687E-02    0.67       1.0  T
   5   -100.6272587 -0.564422E-03  0.126E-02    0.63       1.0  T
   6   -100.6272779 -0.192431E-04  0.430E-03    0.64       2.7  T
   7   -100.6272793 -0.137772E-05  0.204E-03    0.64       5.8  T
   8   -100.6272793 -0.520427E-08  0.161E-03    0.64       7.3  T
   9   -100.6272796 -0.304729E-06  0.489E-04    0.64      24.1  T
  10   -100.6272796 -0.149752E-07  0.215E-04    0.64      54.8  T
     SCC iter.                  ...        0 min,  0.081 sec
     gradient                   ...        0 min,  0.068 sec
 * total energy  :   -99.2451426 Eh     change       -0.5450087E-03 Eh
   gradient norm :     0.0091967 Eh/α   predicted    -0.5235042E-03 (  -3.95%)
   displ. norm   :     0.4861566 α      lambda       -0.5186353E-03
   maximum displ.:     0.3101090 α      in ANC's #2, #9, #4, ...

........................................................................
.............................. CYCLE   34 ..............................
........................................................................

 iter      E             dE          RMSdq      gap      omega  full diag
   1   -100.6249111 -0.100625E+03  0.895E-02    0.70       0.0  T
   2   -100.6177004  0.721071E-02  0.249E-01    0.46       1.0  T
   3   -100.6251831 -0.748273E-02  0.496E-02    0.68       1.0  T
   4   -100.6252884 -0.105331E-03  0.162E-02    0.65       1.0  T
   5   -100.6253051 -0.166221E-04  0.686E-03    0.65       1.7  T
   6   -100.6253051 -0.540577E-07  0.590E-03    0.65       2.0  T
   7   -100.6253095 -0.435910E-05  0.225E-03    0.65       5.2  T
   8   -100.6253102 -0.696818E-06  0.867E-04    0.65      13.6  T
   9   -100.6253102 -0.679730E-07  0.367E-04    0.65      32.1  T
     SCC iter.                  ...        0 min,  0.073 sec
     gradient                   ...        0 min,  0.069 sec
 * total energy  :   -99.2455821 Eh     change       -0.4394908E-03 Eh
   gradient norm :     0.0120722 Eh/α   predicted    -0.3206073E-03 ( -27.05%)
   displ. norm   :     0.5783595 α      lambda       -0.8424915E-03
   maximum displ.:     0.4049629 α      in ANC's #2, #9, #4, ...

........................................................................
.............................. CYCLE   35 ..............................
........................................................................

 iter      E             dE          RMSdq      gap      omega  full diag
   1   -100.6221392 -0.100622E+03  0.111E-01    0.72       0.0  T
   2   -100.6105590  0.115802E-01  0.312E-01    0.42       1.0  T
   3   -100.6225260 -0.119670E-01  0.645E-02    0.70       1.0  T
   4   -100.6227167 -0.190684E-03  0.246E-02    0.66       1.0  T
   5   -100.6226995  0.171534E-04  0.218E-02    0.66       1.0  T
   6   -100.6227784 -0.788788E-04  0.393E-03    0.66       3.0  T
   7   -100.6227791 -0.712550E-06  0.204E-03    0.66       5.8  T
   8   -100.6227794 -0.284701E-06  0.930E-04    0.66      12.7  T
   9   -100.6227795 -0.450779E-07  0.396E-04    0.66      29.8  T
     SCC iter.                  ...        0 min,  0.073 sec
     gradient                   ...        0 min,  0.068 sec
 * total energy  :   -99.2461909 Eh     change       -0.6088542E-03 Eh
   gradient norm :     0.0153308 Eh/α   predicted    -0.5621521E-03 (  -7.67%)
   displ. norm   :     0.3571669 α      lambda       -0.1038369E-02
   maximum displ.:     0.2508399 α      in ANC's #2, #52, #4, ...

........................................................................
.............................. CYCLE   36 ..............................
........................................................................

 iter      E             dE          RMSdq      gap      omega  full diag
   1   -100.6252836 -0.100625E+03  0.697E-02    0.67       0.0  T
   2   -100.6251097  0.173892E-03  0.560E-02    0.66       1.0  T
   3   -100.6237962  0.131350E-02  0.104E-01    0.69       1.0  T
   4   -100.6252888 -0.149261E-02  0.169E-02    0.67       1.0  T
   5   -100.6252975 -0.869574E-05  0.128E-02    0.68       1.0  T
   6   -100.6253118 -0.142907E-04  0.712E-03    0.66       1.7  T
   7   -100.6253182 -0.643611E-05  0.142E-03    0.67       8.3  T
   8   -100.6253179  0.307159E-06  0.157E-03    0.67       7.5  T
   9   -100.6253183 -0.377257E-06  0.434E-04    0.67      27.2  T
  10   -100.6253183 -0.107778E-07  0.185E-04    0.67      63.5  T
     SCC iter.                  ...        0 min,  0.080 sec
     gradient                   ...        0 min,  0.068 sec
 * total energy  :   -99.2468103 Eh     change       -0.6193458E-03 Eh
   gradient norm :     0.0160608 Eh/α   predicted    -0.5854193E-03 (  -5.48%)
   displ. norm   :     0.6364410 α      lambda       -0.1397048E-02
   maximum displ.:     0.4616764 α      in ANC's #2, #4, #9, ...

........................................................................
.............................. CYCLE   37 ..............................
........................................................................

 iter      E             dE          RMSdq      gap      omega  full diag
   1   -100.6200819 -0.100620E+03  0.157E-01    0.81       0.0  T
   2   -100.5695958  0.504861E-01  0.639E-01    0.25       1.0  T
   3   -100.6226688 -0.530730E-01  0.573E-02    0.68       1.0  T
   4   -100.6225847  0.840786E-04  0.393E-02    0.69       1.0  T
   5   -100.6225004  0.843274E-04  0.372E-02    0.70       1.0  T
   6   -100.6227128 -0.212424E-03  0.138E-02    0.69       1.0  T
   7   -100.6227283 -0.154935E-04  0.540E-03    0.69       2.2  T
   8   -100.6227304 -0.210387E-05  0.257E-03    0.69       4.6  T
   9   -100.6227310 -0.601756E-06  0.774E-04    0.70      15.2  T
  10   -100.6227311 -0.627596E-07  0.291E-04    0.70      40.5  T
     SCC iter.                  ...        0 min,  0.089 sec
     gradient                   ...        0 min,  0.071 sec
 * total energy  :   -99.2477419 Eh     change       -0.9316600E-03 Eh
   gradient norm :     0.0202881 Eh/α   predicted    -0.9814697E-03 (   5.35%)
   displ. norm   :     0.3395475 α      lambda       -0.1343511E-02
   maximum displ.:     0.1891051 α      in ANC's #2, #8, #9, ...

........................................................................
.............................. CYCLE   38 ..............................
........................................................................

 iter      E             dE          RMSdq      gap      omega  full diag
   1   -100.6280582 -0.100628E+03  0.712E-02    0.73       0.0  T
   2   -100.6256293  0.242891E-02  0.145E-01    0.60       1.0  T
   3   -100.6279378 -0.230847E-02  0.577E-02    0.75       1.0  T
   4   -100.6281544 -0.216568E-03  0.210E-02    0.71       1.0  T
   5   -100.6281265  0.278982E-04  0.236E-02    0.71       1.0  T
   6   -100.6282143 -0.878161E-04  0.323E-03    0.71       3.6  T
   7   -100.6282146 -0.331420E-06  0.189E-03    0.71       6.2  T
   8   -100.6282150 -0.371290E-06  0.550E-04    0.71      21.4  T
   9   -100.6282150 -0.118285E-07  0.305E-04    0.71      38.7  T
     SCC iter.                  ...        0 min,  0.073 sec
     gradient                   ...        0 min,  0.074 sec
 * total energy  :   -99.2484372 Eh     change       -0.6952552E-03 Eh
   gradient norm :     0.0214092 Eh/α   predicted    -0.7492041E-03 (   7.76%)
   displ. norm   :     0.5804712 α      lambda       -0.1425211E-02
   maximum displ.:     0.4406167 α      in ANC's #2, #4, #5, ...

........................................................................
.............................. CYCLE   39 ..............................
........................................................................

 iter      E             dE          RMSdq      gap      omega  full diag
   1   -100.6257150 -0.100626E+03  0.970E-02    0.78       0.0  T
   2   -100.6168587  0.885631E-02  0.264E-01    0.55       1.0  T
   3   -100.6259439 -0.908518E-02  0.644E-02    0.77       1.0  T
   4   -100.6259322  0.116335E-04  0.478E-02    0.73       1.0  T
   5   -100.6260028 -0.705362E-04  0.441E-02    0.74       1.0  T
   6   -100.6262691 -0.266379E-03  0.591E-03    0.73       2.0  T
   7   -100.6262732 -0.407959E-05  0.279E-03    0.73       4.2  T
   8   -100.6262739 -0.626178E-06  0.983E-04    0.73      12.0  T
   9   -100.6262739 -0.682822E-07  0.293E-04    0.73      40.2  T
     SCC iter.                  ...        0 min,  0.072 sec
     gradient                   ...        0 min,  0.068 sec
 * total energy  :   -99.2494843 Eh     change       -0.1047171E-02 Eh
   gradient norm :     0.0159924 Eh/α   predicted    -0.9527186E-03 (  -9.02%)
   displ. norm   :     0.3525468 α      lambda       -0.1335625E-02
   maximum displ.:     0.1970684 α      in ANC's #2, #9, #8, ...

........................................................................
.............................. CYCLE   40 ..............................
........................................................................

 iter      E             dE          RMSdq      gap      omega  full diag
   1   -100.6308154 -0.100631E+03  0.765E-02    0.68       0.0  T
   2   -100.6209514  0.986400E-02  0.292E-01    0.96       1.0  T
   3   -100.6306605 -0.970905E-02  0.972E-02    0.79       1.0  T
   4   -100.6303975  0.262928E-03  0.880E-02    0.75       1.0  T
   5   -100.6315403 -0.114276E-02  0.180E-02    0.72       1.0  T
   6   -100.6315802 -0.398992E-04  0.639E-03    0.73       1.8  T
   7   -100.6315839 -0.375722E-05  0.167E-03    0.73       7.1  T
   8   -100.6315836  0.363095E-06  0.191E-03    0.73       6.2  T
   9   -100.6315840 -0.403687E-06  0.669E-04    0.73      17.6  T
  10   -100.6315840 -0.462288E-07  0.229E-04    0.73      51.6  T
     SCC iter.                  ...        0 min,  0.080 sec
     gradient                   ...        0 min,  0.069 sec
 * total energy  :   -99.2498476 Eh     change       -0.3632279E-03 Eh
   gradient norm :     0.0184983 Eh/α   predicted    -0.7508157E-03 ( 106.71%)
   displ. norm   :     0.4032428 α      lambda       -0.9123620E-03
   maximum displ.:     0.2954002 α      in ANC's #2, #4, #144, ...

........................................................................
.............................. CYCLE   41 ..............................
........................................................................

 iter      E             dE          RMSdq      gap      omega  full diag
   1   -100.6266730 -0.100627E+03  0.114E-01    0.84       0.0  T
   2   -100.5979096  0.287634E-01  0.474E-01    0.44       1.0  T
   3   -100.6282606 -0.303511E-01  0.459E-02    0.74       1.0  T
   4   -100.6280347  0.225901E-03  0.497E-02    0.74       1.0  T
   5   -100.6280462 -0.114660E-04  0.504E-02    0.77       1.0  T
   6   -100.6283670 -0.320748E-03  0.949E-03    0.75       1.2  T
   7   -100.6283743 -0.738300E-05  0.552E-03    0.75       2.1  T
   8   -100.6283764 -0.210617E-05  0.277E-03    0.75       4.3  T
   9   -100.6283773 -0.862738E-06  0.445E-04    0.76      26.5  T
  10   -100.6283773 -0.522998E-08  0.286E-04    0.76      41.2  T
     SCC iter.                  ...        0 min,  0.081 sec
     gradient                   ...        0 min,  0.068 sec
 * total energy  :   -99.2501809 Eh     change       -0.3333078E-03 Eh
   gradient norm :     0.0105741 Eh/α   predicted    -0.5303612E-03 (  59.12%)
   displ. norm   :     0.1543117 α      lambda       -0.5050169E-03
   maximum displ.:     0.0751946 α      in ANC's #2, #14, #15, ...

........................................................................
.............................. CYCLE   42 ..............................
........................................................................

 iter      E             dE          RMSdq      gap      omega  full diag
   1   -100.6307886 -0.100631E+03  0.401E-02    0.75       0.0  T
   2   -100.6306192  0.169474E-03  0.416E-02    0.78       1.0  T
   3   -100.6304674  0.151745E-03  0.525E-02    0.72       1.0  T
   4   -100.6307644 -0.296941E-03  0.168E-02    0.76       1.0  T
   5   -100.6307813 -0.169215E-04  0.133E-02    0.75       1.0  T
   6   -100.6308047 -0.234459E-04  0.224E-03    0.76       5.3  T
   7   -100.6308051 -0.371311E-06  0.971E-04    0.76      12.1  T
   8   -100.6308052 -0.979798E-07  0.258E-04    0.76      45.7  T
     SCC iter.                  ...        0 min,  0.065 sec
     gradient                   ...        0 min,  0.068 sec
 * total energy  :   -99.2503009 Eh     change       -0.1200295E-03 Eh
   gradient norm :     0.0100584 Eh/α   predicted    -0.2585224E-03 ( 115.38%)
   displ. norm   :     0.1194855 α      lambda       -0.3400036E-03
   maximum displ.:     0.0652692 α      in ANC's #14, #9, #2, ...
 * RMSD in coord.:     0.6742353 α      energy gain  -0.1271012E-01 Eh

generating ANC from model Hessian ...
Using Lindh-Hessian (1995)
 Shifting diagonal of input Hessian by    9.9722940553673874E-003
 Lowest  eigenvalues of input Hessian
    0.000000    0.000000    0.000000    0.000000    0.000000    0.000000
    0.010000    0.010023    0.010064    0.010163    0.010254    0.010323
    0.010521    0.010702    0.010924    0.010969    0.011401    0.011463
 Highest eigenvalues
    1.988805    1.991776    2.041647    2.117409    2.172395    2.182006


........................................................................
.............................. CYCLE   43 ..............................
........................................................................

 iter      E             dE          RMSdq      gap      omega  full diag
   1   -100.6330644 -0.100633E+03  0.448E-02    0.72       0.0  T
   2   -100.6302384  0.282594E-02  0.152E-01    0.86       1.0  T
   3   -100.6332543 -0.301591E-02  0.195E-02    0.75       1.0  T
   4   -100.6331022  0.152075E-03  0.323E-02    0.75       1.0  T
   5   -100.6332521 -0.149882E-03  0.135E-02    0.74       1.0  T
   6   -100.6332710 -0.188453E-04  0.201E-03    0.75       5.9  T
   7   -100.6332711 -0.173535E-06  0.129E-03    0.75       9.1  T
   8   -100.6332712 -0.933834E-08  0.987E-04    0.75      11.9  T
   9   -100.6332713 -0.119479E-06  0.206E-04    0.75      57.3  T
     SCC iter.                  ...        0 min,  0.073 sec
     gradient                   ...        0 min,  0.071 sec
 * total energy  :   -99.2504451 Eh     change       -0.1441958E-03 Eh
   gradient norm :     0.0046057 Eh/α   predicted     0.0000000E+00 (-100.00%)
   displ. norm   :     0.0618081 α      lambda       -0.8757185E-04
   maximum displ.:     0.0369332 α      in ANC's #22, #13, #26, ...

........................................................................
.............................. CYCLE   44 ..............................
........................................................................

 iter      E             dE          RMSdq      gap      omega  full diag
   1   -100.6326103 -0.100633E+03  0.155E-02    0.75       0.0  T
   2   -100.6324858  0.124501E-03  0.303E-02    0.73       1.0  T
   3   -100.6326086 -0.122806E-03  0.115E-02    0.76       1.0  T
   4   -100.6325960  0.125436E-04  0.131E-02    0.74       1.0  T
   5   -100.6326186 -0.225863E-04  0.294E-03    0.75       4.0  T
   6   -100.6326195 -0.916699E-06  0.622E-04    0.75      18.9  T
   7   -100.6326196 -0.212083E-07  0.372E-04    0.75      31.7  T
     SCC iter.                  ...        0 min,  0.057 sec
     gradient                   ...        0 min,  0.068 sec
 * total energy  :   -99.2505162 Eh     change       -0.7105264E-04 Eh
   gradient norm :     0.0022121 Eh/α   predicted    -0.4395706E-04 ( -38.13%)
   displ. norm   :     0.1743875 α      lambda       -0.1457518E-03
   maximum displ.:     0.0997788 α      in ANC's #22, #13, #11, ...

........................................................................
.............................. CYCLE   45 ..............................
........................................................................

 iter      E             dE          RMSdq      gap      omega  full diag
   1   -100.6317584 -0.100632E+03  0.399E-02    0.77       0.0  T
   2   -100.6306546  0.110378E-02  0.902E-02    0.70       1.0  T
   3   -100.6317988 -0.114417E-02  0.248E-02    0.77       1.0  T
   4   -100.6316668  0.132029E-03  0.353E-02    0.74       1.0  T
   5   -100.6318294 -0.162637E-03  0.819E-03    0.76       1.4  T
   6   -100.6318368 -0.740175E-05  0.156E-03    0.75       7.5  T
   7   -100.6318370 -0.147864E-06  0.957E-04    0.75      12.3  T
   8   -100.6318370 -0.482878E-07  0.498E-04    0.75      23.7  T
     SCC iter.                  ...        0 min,  0.065 sec
     gradient                   ...        0 min,  0.069 sec
 * total energy  :   -99.2506044 Eh     change       -0.8822353E-04 Eh
   gradient norm :     0.0034170 Eh/α   predicted    -0.7509724E-04 ( -14.88%)
   displ. norm   :     0.0947833 α      lambda       -0.4342827E-04
   maximum displ.:     0.0457217 α      in ANC's #13, #22, #11, ...

........................................................................
.............................. CYCLE   46 ..............................
........................................................................

 iter      E             dE          RMSdq      gap      omega  full diag
   1   -100.6322637 -0.100632E+03  0.192E-02    0.76       0.0  T
   2   -100.6321609  0.102778E-03  0.283E-02    0.74       1.0  T
   3   -100.6322398 -0.788804E-04  0.174E-02    0.76       1.0  T
   4   -100.6322499 -0.101817E-04  0.135E-02    0.75       1.0  T
   5   -100.6322702 -0.202942E-04  0.351E-03    0.76       3.4  T
   6   -100.6322718 -0.159883E-05  0.570E-04    0.75      20.7  T
   7   -100.6322719 -0.792305E-08  0.343E-04    0.75      34.3  T
   8   -100.6322719 -0.728525E-08  0.102E-04    0.75     115.1  T
     SCC iter.                  ...        0 min,  0.065 sec
     gradient                   ...        0 min,  0.074 sec
 * total energy  :   -99.2506401 Eh     change       -0.3576863E-04 Eh
   gradient norm :     0.0035479 Eh/α   predicted    -0.2191172E-04 ( -38.74%)
   displ. norm   :     0.1999832 α      lambda       -0.9072483E-04
   maximum displ.:     0.1010863 α      in ANC's #13, #11, #4, ...

   *** GEOMETRY OPTIMIZATION CONVERGED AFTER 46 ITERATIONS ***

------------------------------------------------------------------------
 total energy gain   :        -0.8927972 Eh     -560.2387 kcal/mol
 total RMSD          :         1.1948511 a0        0.6323 Å
 total power (kW/mol):       -50.9573608 (step) -292.1558 (real)
------------------------------------------------------------------------

 ANCopt (total)                0 d,  0 h,  0 min,  8.023 sec
 optimizer setup                ...        0 min,  0.000 sec (  0.003%)
 model hessian                  ...        0 min,  0.160 sec (  1.992%)
 ANC generation                 ...        0 min,  0.020 sec (  0.244%)
 coordinate transformation      ...        0 min,  0.003 sec (  0.040%)
 single point calculation       ...        0 min,  7.785 sec ( 97.031%)
 optimization log               ...        0 min,  0.012 sec (  0.147%)
 hessian update                 ...        0 min,  0.003 sec (  0.037%)
 rational function              ...        0 min,  0.019 sec (  0.232%)

================
 final structure:
================
72
 xtb: 6.6.1 (8d0f1dd)
N           -1.89083639269171        2.89027015197764        2.23892203439247
C           -1.84475377697656        2.14897870074774        1.23639745002573
C           -2.97608145006209        1.94651566276753        0.26679618714082
C           -3.44800362191570        0.50216544610064        0.32982734964886
C           -4.34400950094323        0.02046170511081       -0.62674032465389
C           -4.82642254314277       -1.27729486703451       -0.57812786854238
O           -5.70015217113505       -1.81781352758379       -1.45076706338557
C           -6.28349148063422       -1.00352722236065       -2.44090460836036
C           -4.39400542392571       -2.14679252085502        0.46055632920887
O           -4.91085457311945       -3.39018936769621        0.42821223799893
C           -4.61402443224426       -4.28424016490963        1.47610538282512
C           -3.50383765656822       -1.66211735310395        1.40596998655387
C           -3.04093710007737       -0.35410454084834        1.34180612790270
C           -2.38655972284144        2.26167932948444       -1.13312960724901
C           -1.45606010496121        1.17204711502105       -1.69469458690209
C           -0.14704791777086        1.08430170738492       -1.00916489670891
N            0.45911933434944       -0.04422954041515       -0.66557104650116
C            1.82596626457083       -0.03904113480656       -0.19680491859000
C            2.80580342434071       -0.48368298131897       -1.29963438775699
C            4.21558870886063       -0.49574590670894       -0.76542660050504
C            4.98704653080445        0.65699442840280       -0.82878938318613
C            6.28448709470300        0.63848595596087       -0.30683838263088
C            6.70204159816656       -0.51702858113002        0.23580857834379
O            8.62710883979494        2.28843935479027        0.09283026656760
C            9.53703975416798        3.21125573230138       -0.19556314502384
C            6.02159132356641       -1.70416703604408        0.34234327290557
O            6.59541113117415       -2.77461237312505        0.90816767611516
C            5.89052117076496       -3.99217080247748        0.97024171948418
C            4.71855616999379       -1.65512028020691       -0.18648549102697
C           -0.18394367504149       -1.32972998537174       -0.80392562779270
C           -4.20125645727839        2.86750728912275        0.54649509272420
C           -4.84521944819073        2.54595623033788        1.89297243492153
C           -3.86544445678954        4.35446793030168        0.47757889221755
H           -4.68286388718967        0.67608496080088       -1.41165723779428
H           -6.81472778029296       -0.15498857122641       -1.99965007199168
H           -6.99465264117705       -1.64211221620342       -2.96115948518474
H           -5.53765944286437       -0.63941102576898       -3.15490773332656
H           -4.92737038141881       -3.88363251065420        2.44458233108994
H           -5.18057566188005       -5.18743401042410        1.25860137954780
H           -3.54672726945081       -4.52569138722315        1.50793469700198
H           -3.17321541228601       -2.29233797773951        2.21539876289211
H           -2.37620385810752       -0.00354999963792        2.11611239694760
H           -3.20780928345567        2.39591146220292       -1.83620465760047
[...]
         :::::::::::::::::::::::::::::::::::::::::::::::::::::
         :: total energy             -99.250640146120 Eh    ::
         :: gradient norm              0.003544476573 Eh/a0 ::
         :: HOMO-LUMO gap              0.753758744984 eV    ::
         ::.................................................::
         :: SCC energy              -100.632271858597 Eh    ::
         :: -> isotropic ES            0.129394788171 Eh    ::
         :: -> anisotropic ES         -0.000149284447 Eh    ::
         :: -> anisotropic XC          0.045354590449 Eh    ::
         :: -> dispersion             -0.072545901842 Eh    ::
         :: repulsion energy           1.380340754570 Eh    ::
         :: add. restraining           0.000035423045 Eh    ::
         :: total charge               1.000000000405 e     ::
         :::::::::::::::::::::::::::::::::::::::::::::::::::::

           -------------------------------------------------
          |                Property Printout                |
           -------------------------------------------------

    * Orbital Energies and Occupations

         #    Occupation            Energy/Eh            Energy/eV
      -------------------------------------------------------------
         1        2.0000           -0.8150694             -22.1792
       ...           ...                  ...                  ...
        78        1.9978           -0.5325441             -14.4913
        79        1.9971           -0.5280884             -14.3700
        80        1.9965           -0.5251030             -14.2888
        81        1.9951           -0.5200400             -14.1510
        82        1.9943           -0.5174048             -14.0793
        83        1.9932           -0.5147464             -14.0070
        84        1.9857           -0.5029540             -13.6861
        85        1.9788           -0.4965807             -13.5126
        86        1.9314           -0.4776206             -12.9967
        87        1.9267           -0.4765354             -12.9672
        88        1.8568           -0.4653591             -12.6631
        89        1.5923           -0.4463543             -12.1459
        90        1.5781           -0.4456727             -12.1274 (HOMO)
        91        0.7882           -0.4179726             -11.3736 (LUMO)
        92        0.3761           -0.4016234             -10.9287
        93        0.0126           -0.3446622              -9.3787
        94        0.0032           -0.3228334              -8.7847
        95        0.0027           -0.3200254              -8.7083
        96        0.0026           -0.3197918              -8.7020
        97        0.0020           -0.3156255              -8.5886
        98        0.0000           -0.1973075              -5.3690
        99        0.0000           -0.1873592              -5.0983
       100                         -0.1442090              -3.9241
       101                         -0.0748921              -2.0379
       ...                                ...                  ...
       171                          0.5864032              15.9568
      -------------------------------------------------------------
                  HL-Gap            0.0277001 Eh            0.7538 eV
             Fermi-level           -0.4247820 Eh          -11.5589 eV

     #   Z          covCN         q      C6AA      α(0)
     1   7 N        1.774    -0.264    27.667     7.789
     2   6 C        2.827     0.102    25.740     8.314
     3   6 C        3.907     0.007    20.411     6.422
     4   6 C        2.974     0.002    27.975     8.676
     5   6 C        2.920    -0.080    30.003     8.982
     6   6 C        2.862     0.130    25.152     8.221
     7   8 O        1.706    -0.228    17.778     5.693
     8   6 C        3.644     0.027    20.463     6.502
     9   6 C        2.864     0.129    25.170     8.224
    10   8 O        1.706    -0.226    17.752     5.689
    11   6 C        3.645     0.026    20.472     6.503
    12   6 C        2.913    -0.074    29.855     8.960
    13   6 C        2.921    -0.053    29.312     8.878
    14   6 C        3.813    -0.065    21.737     6.636
    15   6 C        3.802    -0.070    21.840     6.654
    16   6 C        2.843     0.009    27.799     8.641
    17   7 N        2.729     0.014    21.007     6.807
    18   6 C        3.755    -0.017    20.941     6.525
    19   6 C        3.808    -0.070    21.841     6.653
    20   6 C        2.967     0.006    27.889     8.662
    21   6 C        2.940    -0.040    29.001     8.832
    22   6 C        2.911    -0.017    28.435     8.744
    23   6 C        2.041    -0.014    31.372     9.047
    24   8 O        0.854    -0.419    22.058     6.297
    25   6 C        3.619     0.082    19.653     6.393
    26   6 C        2.856     0.169    24.351     8.088
    27   8 O        1.706    -0.219    17.640     5.671
    28   6 C        3.645     0.027    20.456     6.500
    29   6 C        2.945    -0.076    29.888     8.966
    30   6 C        3.700    -0.071    22.036     6.713
    31   6 C        3.853    -0.007    20.672     6.467
    32   6 C        3.756    -0.119    22.830     6.813
    33   6 C        3.755    -0.120    22.848     6.816
    34   1 H        0.926     0.053     2.284     2.363
    35   1 H        0.924     0.055     2.257     2.350
    36   1 H        0.925     0.083     1.951     2.184
    37   1 H        0.924     0.048     2.341     2.393
    38   1 H        0.924     0.057     2.239     2.340
    39   1 H        0.925     0.083     1.952     2.185
    40   1 H        0.924     0.049     2.331     2.387
    41   1 H        0.926     0.054     2.276     2.359
    42   1 H        0.926     0.040     2.447     2.446
    43   1 H        0.925     0.062     2.174     2.306
    44   1 H        0.924     0.056     2.250     2.346
    45   1 H        0.925     0.068     2.112     2.273
    46   1 H        0.923     0.083     1.951     2.184
    47   1 H        0.922     0.007     2.935     2.679
    48   1 H        0.926     0.073     2.054     2.241
    49   1 H        0.924     0.069     2.091     2.261
    50   1 H        0.924     0.070     2.082     2.257
    51   1 H        0.924     0.058     2.218     2.329
    52   1 H        0.924     0.058     2.227     2.334
    53   1 H        0.926     0.057     2.229     2.335
    54   1 H        0.925     0.149     1.398     1.849
    55   1 H        0.922     0.063     2.165     2.301
    56   1 H        0.922     0.063     2.166     2.302
    57   1 H        0.921     0.072     2.064     2.247
    58   1 H        0.925     0.084     1.936     2.176
    59   1 H        0.924     0.049     2.330     2.387
    60   1 H        0.924     0.053     2.278     2.360
    61   1 H        0.926     0.053     2.282     2.362
    62   1 H        0.924     0.078     1.999     2.211
    63   1 H        0.924     0.080     1.976     2.198
    64   1 H        0.925     0.081     1.966     2.193
    65   1 H        0.924     0.038     2.469     2.457
    66   1 H        0.925     0.069     2.094     2.263
    67   1 H        0.925     0.036     2.507     2.476
    68   1 H        0.925     0.053     2.285     2.364
    69   1 H        0.925     0.063     2.169     2.303
    70   1 H        0.925     0.036     2.502     2.474
    71   1 H        0.925     0.056     2.244     2.343
    72   1 H        0.860     0.160     1.334     1.809

 Mol. C6AA /au·bohr⁶  :      47508.701395
 Mol. C8AA /au·bohr⁸  :    1084810.780101
 Mol. α(0) /au        :        334.402310


Wiberg/Mayer (AO) data.
largest (>0.10) Wiberg bond orders for each atom

 ---------------------------------------------------------------------------
     #   Z sym  total        # sym  WBO       # sym  WBO       # sym  WBO
 ---------------------------------------------------------------------------
     1   7 N    3.043 --     2 C    1.960    72 H    0.940
     2   6 C    3.930 --     1 N    1.960     3 C    0.994    47 H    0.898
     3   6 C    3.974 --     2 C    0.994     4 C    0.971    14 C    0.956
                            31 C    0.941
     4   6 C    3.946 --    13 C    1.411     5 C    1.369     3 C    0.971
     5   6 C    3.960 --     6 C    1.399     4 C    1.369    34 H    0.958
     6   6 C    3.903 --     5 C    1.399     9 C    1.219     7 O    1.102
     7   8 O    2.255 --     6 C    1.102     8 C    0.977
     8   6 C    3.930 --     7 O    0.977    36 H    0.976    35 H    0.973
                            37 H    0.973
     9   6 C    3.898 --    12 C    1.390     6 C    1.219    10 O    1.105
    10   8 O    2.253 --     9 C    1.105    11 C    0.976
    11   6 C    3.930 --    39 H    0.977    10 O    0.976    40 H    0.973
                            38 H    0.973
    12   6 C    3.961 --    13 C    1.405     9 C    1.390    41 H    0.963
    13   6 C    3.951 --     4 C    1.411    12 C    1.405    42 H    0.962
    14   6 C    3.973 --    15 C    0.982    44 H    0.972    43 H    0.968
                             3 C    0.956
    15   6 C    3.986 --    16 C    1.060    14 C    0.982    45 H    0.961
                            46 H    0.925
    16   6 C    3.607 --    17 N    1.411    15 C    1.060    48 H    0.957
    17   7 N    3.488 --    16 C    1.411    30 C    0.997    18 C    0.988
    18   6 C    3.957 --    17 N    0.988    19 C    0.969    50 H    0.968
                            49 H    0.963
    19   6 C    3.971 --    20 C    1.000    51 H    0.972    52 H    0.971
                            18 C    0.969
    20   6 C    3.970 --    29 C    1.418    21 C    1.417    19 C    1.000
    21   6 C    3.888 --    20 C    1.417    22 C    1.329    53 H    0.961
    22   6 C    3.922 --    23 C    1.555    21 C    1.329    54 H    0.890
    23   6 C    3.155 --    22 C    1.555    26 C    1.352
    24   8 O    1.235 --    25 C    1.180
    25   6 C    3.873 --    24 O    1.180    55 H    0.898    56 H    0.898
                            57 H    0.892
    26   6 C    3.895 --    23 C    1.352    29 C    1.292    27 O    1.112
    27   8 O    2.269 --    26 C    1.112    28 C    0.975
    28   6 C    3.930 --    58 H    0.976    27 O    0.975    59 H    0.974
                            60 H    0.974
    29   6 C    3.902 --    20 C    1.418    26 C    1.292    61 H    0.952
    30   6 C    3.957 --    17 N    0.997    64 H    0.977    62 H    0.966
                            63 H    0.962
    31   6 C    3.970 --    33 C    1.009    32 C    1.008    65 H    0.959
                             3 C    0.941
    32   6 C    3.977 --    31 C    1.008    67 H    0.981    68 H    0.981
                            66 H    0.973
    33   6 C    3.980 --    31 C    1.009    70 H    0.983    71 H    0.979
                            69 H    0.975
    34   1 H    0.996 --     5 C    0.958
    35   1 H    0.993 --     8 C    0.973
    36   1 H    0.992 --     8 C    0.976
    37   1 H    0.993 --     8 C    0.973
    38   1 H    0.992 --    11 C    0.973
    39   1 H    0.992 --    11 C    0.977
    40   1 H    0.993 --    11 C    0.973
    41   1 H    0.995 --    12 C    0.963
    42   1 H    0.998 --    13 C    0.962
    43   1 H    0.995 --    14 C    0.968
    44   1 H    0.996 --    14 C    0.972
    45   1 H    0.995 --    15 C    0.961
    46   1 H    0.970 --    15 C    0.925
    47   1 H    0.985 --     2 C    0.898
    48   1 H    0.994 --    16 C    0.957
    49   1 H    0.990 --    18 C    0.963
    50   1 H    0.994 --    18 C    0.968
    51   1 H    0.996 --    19 C    0.972
    52   1 H    0.996 --    19 C    0.971
    53   1 H    0.989 --    21 C    0.961
    54   1 H    0.953 --    22 C    0.890
    55   1 H    0.902 --    25 C    0.898
    56   1 H    0.902 --    25 C    0.898
    57   1 H    0.896 --    25 C    0.892
    58   1 H    0.992 --    28 C    0.976
    59   1 H    0.994 --    28 C    0.974
    60   1 H    0.994 --    28 C    0.974
    61   1 H    0.985 --    29 C    0.952
    62   1 H    0.985 --    30 C    0.966
    63   1 H    0.987 --    30 C    0.962
    64   1 H    0.993 --    30 C    0.977
    65   1 H    0.991 --    31 C    0.959
    66   1 H    0.990 --    32 C    0.973
    67   1 H    0.996 --    32 C    0.981
    68   1 H    0.993 --    32 C    0.981
    69   1 H    0.992 --    33 C    0.975
    70   1 H    0.997 --    33 C    0.983
    71   1 H    0.993 --    33 C    0.979
    72   1 H    0.969 --     1 N    0.940
 ---------------------------------------------------------------------------

Topologies differ in total number of bonds
Writing topology from bond orders to xtbtopo.mol

molecular dipole:
                 x           y           z       tot (Debye)
 q only:       -0.986      -0.593      -1.065
   full:       -0.545      -0.608      -1.224       3.741
molecular quadrupole (traceless):
                xx          xy          yy          xz          yz          zz
 q only:       25.016      -2.816       2.711      -0.507     -12.249     -27.726
  q+dip:       24.379       5.226       3.155       1.858     -16.236     -27.535
   full:       24.443       4.556       1.775      -0.645     -15.967     -26.219

           -------------------------------------------------
          |                Geometry Summary                 |
           -------------------------------------------------

      molecular mass/u    :      455.6105846
   center of mass at/Å    :       -0.0017319      -0.0199197       0.0150776
  moments of inertia/u·Å² :        0.2821552E+04   0.1098360E+05   0.1264959E+05
rotational constants/cm⁻¹ :        0.5974595E-02   0.1534800E-02   0.1332663E-02

 * 64 selected distances

     #   Z          #   Z                                           value/Å
     1   7 N        2   6 C                                       1.2476748
     4   6 C        5   6 C                                       1.3963836
     5   6 C        6   6 C                                       1.3853729
     6   6 C        7   8 O                                       1.3479849
     7   8 O        8   6 C                                       1.4084458
     6   6 C        9   6 C                                       1.4219269
     9   6 C       10   8 O                                       1.3469281
    10   8 O       11   6 C                                       1.4090832
     9   6 C       12   6 C                                       1.3860433
     4   6 C       13   6 C                                       1.3867238
    12   6 C       13   6 C                                       1.3889895
    14   6 C       15   6 C                                       1.5389878
    15   6 C       16   6 C                                       1.4802579
    16   6 C       17   7 N                                       1.3263026
    17   7 N       18   6 C                                       1.4450050
    18   6 C       19   6 C                                       1.5407857 (max)
    20   6 C       21   6 C                                       1.3885145
    21   6 C       22   6 C                                       1.3986164
    22   6 C       23   6 C                                       1.3431425
    23   6 C       26   6 C                                       1.3724650
    26   6 C       27   8 O                                       1.3398806
    27   8 O       28   6 C                                       1.4082514
    20   6 C       29   6 C                                       1.3900714
    26   6 C       29   6 C                                       1.4071128
    17   7 N       30   6 C                                       1.4440166
    31   6 C       32   6 C                                       1.5267891
    31   6 C       33   6 C                                       1.5259658
     5   6 C       34   1 H                                       1.0773852 (min)
     8   6 C       35   1 H                                       1.0940455
     8   6 C       36   1 H                                       1.0882125
     8   6 C       37   1 H                                       1.0948273
    11   6 C       38   1 H                                       1.0939013
    11   6 C       39   1 H                                       1.0881395
    11   6 C       40   1 H                                       1.0947307
    12   6 C       41   1 H                                       1.0778053
    13   6 C       42   1 H                                       1.0790316
    14   6 C       43   1 H                                       1.0893961
    14   6 C       44   1 H                                       1.0904691
    15   6 C       45   1 H                                       1.0885722
    15   6 C       46   1 H                                       1.0980777
    16   6 C       48   1 H                                       1.0801804
    18   6 C       49   1 H                                       1.0936931
    18   6 C       50   1 H                                       1.0917013
    19   6 C       51   1 H                                       1.0913497
    19   6 C       52   1 H                                       1.0911227
    21   6 C       53   1 H                                       1.0789519
    22   6 C       54   1 H                                       1.0841143
    25   6 C       55   1 H                                       1.1078460
    25   6 C       56   1 H                                       1.1105038
    25   6 C       57   1 H                                       1.1110164
    28   6 C       58   1 H                                       1.0881696
    28   6 C       59   1 H                                       1.0951172
    28   6 C       60   1 H                                       1.0947116
    29   6 C       61   1 H                                       1.0803360
    30   6 C       62   1 H                                       1.0919934
    30   6 C       63   1 H                                       1.0926323
    30   6 C       64   1 H                                       1.0868999
    31   6 C       65   1 H                                       1.0961047
    32   6 C       66   1 H                                       1.0852673
    32   6 C       67   1 H                                       1.0873425
    32   6 C       68   1 H                                       1.0866665
    33   6 C       69   1 H                                       1.0856425
    33   6 C       70   1 H                                       1.0867142
    33   6 C       71   1 H                                       1.0868476

 * 4 distinct bonds (by element types)

   Z      Z             #   av. dist./Å        max./Å        min./Å
   1 H    6 C          37     1.0902573     1.1110164     1.0773852
   6 C    6 C          17     1.4281264     1.5407857     1.3431425
   6 C    7 N           4     1.3657497     1.4450050     1.2476748
   6 C    8 O           6     1.3767623     1.4090832     1.3398806


optimized geometry written to: xtbopt.xyz


           -------------------------------------------------
          | TOTAL ENERGY              -99.250640146120 Eh   |
          | GRADIENT NORM               0.003544476573 Eh/α |
          | HOMO-LUMO GAP               0.753758744984 eV   |
           -------------------------------------------------

------------------------------------------------------------------------
 * finished run on 2024/04/06 at 11:14:27.934     
------------------------------------------------------------------------
 total:
 * wall-time:     0 d,  0 h,  0 min,  8.377 sec
 *  cpu-time:     0 d,  0 h,  0 min,  8.345 sec
 * ratio c/w:     0.996 speedup
 SCF:
 * wall-time:     0 d,  0 h,  0 min,  0.190 sec
 *  cpu-time:     0 d,  0 h,  0 min,  0.190 sec
 * ratio c/w:     1.000 speedup
 ANC optimizer:
 * wall-time:     0 d,  0 h,  0 min,  8.145 sec
 *  cpu-time:     0 d,  0 h,  0 min,  8.131 sec
 * ratio c/w:     0.998 speedup

