      -----------------------------------------------------------      
     |                   =====================                   |     
     |                           x T B                           |     
     |                   =====================                   |     
     |                         S. Grimme                         |     
     |          Mulliken Center for Theoretical Chemistry        |     
     |                    University of Bonn                     |     
      -----------------------------------------------------------      

   * xtb version 6.6.1 (8d0f1dd) compiled by 'conda@1efc2f54142f' on 2023-08-01

   xtb is free software: you can redistribute it and/or modify it under
   the terms of the GNU Lesser General Public License as published by
   the Free Software Foundation, either version 3 of the License, or
   (at your option) any later version.
   
   xtb is distributed in the hope that it will be useful,
   but WITHOUT ANY WARRANTY; without even the implied warranty of
   MERCHANTABILITY or FITNESS FOR A PARTICULAR PURPOSE.  See the
   GNU Lesser General Public License for more details.
   
   Cite this work as:
   * C. Bannwarth, E. Caldeweyher, S. Ehlert, A. Hansen, P. Pracht,
     J. Seibert, S. Spicher, S. Grimme, WIREs Comput. Mol. Sci., 2020, 11,
     e01493. DOI: 10.1002/wcms.1493
   
   for GFN2-xTB:
   * C. Bannwarth, S. Ehlert and S. Grimme., J. Chem. Theory Comput., 2019,
     15, 1652-1671. DOI: 10.1021/acs.jctc.8b01176
   for GFN1-xTB:
   * S. Grimme, C. Bannwarth, P. Shushkov, J. Chem. Theory Comput., 2017,
     13, 1989-2009. DOI: 10.1021/acs.jctc.7b00118
   for GFN0-xTB:
   * P. Pracht, E. Caldeweyher, S. Ehlert, S. Grimme, ChemRxiv, 2019, preprint.
     DOI: 10.26434/chemrxiv.8326202.v1
   for GFN-FF:
   * S. Spicher and S. Grimme, Angew. Chem. Int. Ed., 2020, 59, 15665-15673.
     DOI: 10.1002/anie.202004239
   
   for ALPB and GBSA implicit solvation:
   * S. Ehlert, M. Stahn, S. Spicher, S. Grimme, J. Chem. Theory Comput.,
     2021, 17, 4250-4261. DOI: 10.1021/acs.jctc.1c00471
   
   for DFT-D4:
   * E. Caldeweyher, C. Bannwarth and S. Grimme, J. Chem. Phys., 2017,
     147, 034112. DOI: 10.1063/1.4993215
   * E. Caldeweyher, S. Ehlert, A. Hansen, H. Neugebauer, S. Spicher,
     C. Bannwarth and S. Grimme, J. Chem. Phys., 2019, 150, 154122.
     DOI: 10.1063/1.5090222
   * E. Caldeweyher, J.-M. Mewes, S. Ehlert and S. Grimme, Phys. Chem. Chem. Phys.
     2020, 22, 8499-8512. DOI: 10.1039/D0CP00502A
   
   for sTDA-xTB:
   * S. Grimme and C. Bannwarth, J. Chem. Phys., 2016, 145, 054103.
     DOI: 10.1063/1.4959605
   
   in the mass-spec context:
   * V. Asgeirsson, C. Bauer and S. Grimme, Chem. Sci., 2017, 8, 4879.
     DOI: 10.1039/c7sc00601b
   * J. Koopman and S. Grimme, ACS Omega 2019, 4, 12, 15120-15133.
     DOI: 10.1021/acsomega.9b02011
   
   for metadynamics refer to:
   * S. Grimme, J. Chem. Theory Comput., 2019, 155, 2847-2862
     DOI: 10.1021/acs.jctc.9b00143
   
   for SPH calculations refer to:
   * S. Spicher and S. Grimme, J. Chem. Theory Comput., 2021, 17, 1701-1714
     DOI: 10.1021/acs.jctc.0c01306
   
   with help from (in alphabetical order)
   P. Atkinson, C. Bannwarth, F. Bohle, G. Brandenburg, E. Caldeweyher
   M. Checinski, S. Dohm, S. Ehlert, S. Ehrlich, I. Gerasimov, C. Hölzer
   A. Katbashev, J. Koopman, C. Lavigne, S. Lehtola, F. März, M. Müller,
   F. Musil, H. Neugebauer, J. Pisarek, C. Plett, P. Pracht, F. Pultar,
   J. Seibert, P. Shushkov, S. Spicher, M. Stahn, M. Steiner, T. Strunk,
   J. Stückrath, T. Rose, and J. Unsleber
   
 * started run on 2024/06/05 at 19:58:09.498     

           -------------------------------------------------
          |                Calculation Setup                |
           -------------------------------------------------

          program call               : xtb struc.xyz --opt loose --input .xc1 --gfn2
          hostname                   : n-62-31-11
          coordinate file            : struc.xyz
          omp threads                :                     1

   ID    Z sym.   atoms
    1    6 C      1, 3, 5-7, 10, 11, 14
    2    7 N      2, 4, 9, 13
    3    8 O      8, 12
    4    1 H      15-25
constraining bond 6 22 to    4.7133300 Å, actual value:    4.0892960 Å

           -------------------------------------------------
          |                 G F N 2 - x T B                 |
           -------------------------------------------------

        Reference                      10.1021/acs.jctc.8b01176
      * Hamiltonian:
        H0-scaling (s, p, d)           1.850000    2.230000    2.230000
        zeta-weighting                 0.500000
      * Dispersion:
        s8                             2.700000
        a1                             0.520000
        a2                             5.000000
        s9                             5.000000
      * Repulsion:
        kExp                           1.500000    1.000000
        rExp                           1.000000
      * Coulomb:
        alpha                          2.000000
        third order                    shell-resolved
        anisotropic                    true
        a3                             3.000000
        a5                             4.000000
        cn-shift                       1.200000
        cn-exp                         4.000000
        max-rad                        5.000000


          ...................................................
          :                      SETUP                      :
          :.................................................:
          :  # basis functions                  67          :
          :  # atomic orbitals                  67          :
          :  # shells                           39          :
          :  # electrons                        74          :
          :  max. iterations                   250          :
          :  Hamiltonian                  GFN2-xTB          :
          :  restarted?                      false          :
          :  GBSA solvation                  false          :
          :  PC potential                    false          :
          :  electronic temp.         5000.0000000     K    :
          :  accuracy                    1.0000000          :
          :  -> integral cutoff          0.2500000E+02      :
          :  -> integral neglect         0.1000000E-07      :
          :  -> SCF convergence          0.1000000E-05 Eh   :
          :  -> wf. convergence          0.1000000E-03 e    :
          :  Broyden damping             0.4000000          :
          ...................................................

 iter      E             dE          RMSdq      gap      omega  full diag
   1    -42.5894031 -0.425894E+02  0.445E+00    3.52       0.0  T
   2    -42.7683054 -0.178902E+00  0.251E+00    3.36       1.0  T
   3    -42.7759211 -0.761567E-02  0.147E+00    3.35       1.0  T
   4    -42.7728404  0.308066E-02  0.553E-01    3.33       1.0  T
   5    -42.7789548 -0.611444E-02  0.112E-01    3.35       1.0  T
   6    -42.7790473 -0.924914E-04  0.614E-02    3.33       1.0  T
   7    -42.7790721 -0.247928E-04  0.258E-02    3.34       1.0  T
   8    -42.7790772 -0.508996E-05  0.938E-03    3.34       2.1  T
   9    -42.7790779 -0.669422E-06  0.448E-03    3.34       4.5  T
  10    -42.7790780 -0.821510E-07  0.115E-03    3.34      17.4  T
  11    -42.7790780 -0.322663E-08  0.553E-04    3.34      36.2  T
  12    -42.7790780 -0.287051E-08  0.180E-04    3.34     111.1  T

   *** convergence criteria satisfied after 12 iterations ***

         #    Occupation            Energy/Eh            Energy/eV
      -------------------------------------------------------------
         1        2.0000           -0.9185990             -24.9964
       ...           ...                  ...                  ...
        31        1.9996           -0.6230278             -16.9534
        32        1.9995           -0.6194601             -16.8564
        33        1.9979           -0.5974976             -16.2587
        34        1.9932           -0.5789629             -15.7544
        35        1.9817           -0.5631863             -15.3251
        36        1.9779           -0.5602245             -15.2445
        37        1.9748           -0.5581234             -15.1873 (HOMO)
        38        0.0652           -0.4353579             -11.8467 (LUMO)
        39        0.0099           -0.4050467             -11.0219
        40        0.0013           -0.3732218             -10.1559
        41        0.0000           -0.2886859              -7.8555
        42                         -0.2065804              -5.6213
       ...                                ...                  ...
        67                          0.5625656              15.3082
      -------------------------------------------------------------
                  HL-Gap            0.1227656 Eh            3.3406 eV
             Fermi-level           -0.4890455 Eh          -13.3076 eV

 SCC (total)                   0 d,  0 h,  0 min,  0.037 sec
 SCC setup                      ...        0 min,  0.000 sec (  0.734%)
 Dispersion                     ...        0 min,  0.000 sec (  0.867%)
 classical contributions        ...        0 min,  0.000 sec (  0.238%)
 integral evaluation            ...        0 min,  0.006 sec ( 15.271%)
 iterations                     ...        0 min,  0.017 sec ( 46.812%)
 molecular gradient             ...        0 min,  0.013 sec ( 35.660%)
 printout                       ...        0 min,  0.000 sec (  0.385%)

         :::::::::::::::::::::::::::::::::::::::::::::::::::::
         ::                     SUMMARY                     ::
         :::::::::::::::::::::::::::::::::::::::::::::::::::::
         :: total energy             -42.943177594703 Eh    ::
         :: gradient norm              1.667562867207 Eh/a0 ::
         :: HOMO-LUMO gap              3.340621582928 eV    ::
         ::.................................................::
         :: SCC energy               -42.779077977399 Eh    ::
         :: -> isotropic ES            0.141123876439 Eh    ::
         :: -> anisotropic ES         -0.005230418907 Eh    ::
         :: -> anisotropic XC          0.011966818540 Eh    ::
         :: -> dispersion             -0.022657731803 Eh    ::
         :: repulsion energy           0.531105277918 Eh    ::
         :: add. restraining          -0.695319054231 Eh    ::
         :: total charge               1.000000000002 e     ::
         :::::::::::::::::::::::::::::::::::::::::::::::::::::

      ----------------------------------------------------------- 
     |                   =====================                   |
     |                        A N C O P T                        |
     |                   =====================                   |
     |               Approximate Normal Coordinate               |
     |                Rational Function Optimizer                |
      ----------------------------------------------------------- 

          ...................................................
          :                      SETUP                      :
          :.................................................:
          :   optimization level             loose          :
          :   max. optcycles                   200          :
          :   ANC micro-cycles                  20          :
          :   degrees of freedom                69          :
          :.................................................:
          :   RF solver                   davidson          :
          :   write xtbopt.log                true          :
          :   linear?                        false          :
          :   energy convergence         0.5000000E-04 Eh   :
          :   grad. convergence          0.4000000E-02 Eh/α :
          :   maxmium RF displ.          1.0000000          :
          :   Hlow (freq-cutoff)         0.1000000E-01      :
          :   Hmax (freq-cutoff)         5.0000000          :
          :   S6 in model hess.         20.0000000          :
          ...................................................

generating ANC from model Hessian ...
Using Lindh-Hessian (1995)
 Shifting diagonal of input Hessian by    1.5804221396375091     
 Lowest  eigenvalues of input Hessian
    0.010000    0.000000    0.000000    0.000000    0.000000    0.000000
    0.000000    1.583608    1.585670    1.588990    1.590442    1.591874
    1.594588    1.596020    1.599293    1.604187    1.613885    1.621430
 Highest eigenvalues
    3.651964    3.744528    3.806481    3.860252    3.996963    4.113124


........................................................................
.............................. CYCLE    1 ..............................
........................................................................

 iter      E             dE          RMSdq      gap      omega  full diag
   1    -42.7790780 -0.427791E+02  0.626E-05    3.34       0.0  T
   2    -42.7790780 -0.124416E-10  0.329E-05    3.34     607.4  T
   3    -42.7790780  0.127898E-12  0.193E-05    3.34    1034.2  T
     SCC iter.                  ...        0 min,  0.005 sec
     gradient                   ...        0 min,  0.014 sec
 * total energy  :   -42.9431776 Eh     change       -0.6650680E-10 Eh
   gradient norm :     1.6675626 Eh/α   predicted     0.0000000E+00 (-100.00%)
   displ. norm   :     0.9890644 α      lambda       -0.1627255E+01
   maximum displ.:     0.9843878 α      in ANC's #1, #52, #58, ...

........................................................................
.............................. CYCLE    2 ..............................
........................................................................

 iter      E             dE          RMSdq      gap      omega  full diag
   1    -42.7529019 -0.427529E+02  0.127E+00    3.21       0.0  T
   2    -42.7566210 -0.371913E-02  0.696E-01    3.20       1.0  T
   3    -42.7564417  0.179303E-03  0.340E-01    3.29       1.0  T
   4    -42.7572007 -0.758969E-03  0.773E-02    3.21       1.0  T
   5    -42.7573120 -0.111377E-03  0.258E-02    3.24       1.0  T
   6    -42.7573149 -0.281970E-05  0.125E-02    3.23       1.6  T
   7    -42.7573157 -0.875921E-06  0.246E-03    3.24       8.1  T
   8    -42.7573158 -0.440978E-07  0.121E-03    3.24      16.5  T
   9    -42.7573158 -0.258523E-08  0.462E-04    3.24      43.3  T
  10    -42.7573158 -0.100149E-08  0.123E-04    3.24     162.8  T
     SCC iter.                  ...        0 min,  0.013 sec
     gradient                   ...        0 min,  0.014 sec
 * total energy  :   -45.3647635 Eh     change       -0.2421586E+01 Eh
   gradient norm :     3.2156615 Eh/α   predicted    -0.1609558E+01 ( -33.53%)
   displ. norm   :     0.9965205 α      lambda       -0.3199064E+01
   maximum displ.:     0.9941279 α      in ANC's #1, #41, #52, ...

........................................................................
.............................. CYCLE    3 ..............................
........................................................................

 iter      E             dE          RMSdq      gap      omega  full diag
   1    -42.5755498 -0.425755E+02  0.125E+00    2.50       0.0  T
   2    -42.5839193 -0.836946E-02  0.846E-01    3.09       1.0  T
   3    -42.5895311 -0.561181E-02  0.434E-01    2.81       1.0  T
   4    -42.5905784 -0.104735E-02  0.140E-01    2.91       1.0  T
   5    -42.5908997 -0.321270E-03  0.315E-02    2.91       1.0  T
   6    -42.5909045 -0.480986E-05  0.172E-02    2.89       1.2  T
   7    -42.5909059 -0.143771E-05  0.531E-03    2.90       3.8  T
   8    -42.5909063 -0.382729E-06  0.182E-03    2.89      11.0  T
   9    -42.5909063 -0.122509E-07  0.795E-04    2.89      25.2  T
  10    -42.5909063 -0.336678E-08  0.285E-04    2.89      70.1  T
     SCC iter.                  ...        0 min,  0.013 sec
     gradient                   ...        0 min,  0.014 sec
 * total energy  :   -49.2528358 Eh     change       -0.3888072E+01 Eh
   gradient norm :     4.7518207 Eh/α   predicted    -0.3188083E+01 ( -18.00%)
   displ. norm   :     0.9867290 α      lambda       -0.4654358E+01
   maximum displ.:     0.9665552 α      in ANC's #1, #58, #64, ...

........................................................................
.............................. CYCLE    4 ..............................
........................................................................

 iter      E             dE          RMSdq      gap      omega  full diag
   1    -42.3072446 -0.423072E+02  0.144E+00    1.82       0.0  T
   2    -42.3240875 -0.168429E-01  0.113E+00    2.90       1.0  T
   3    -42.3431940 -0.191065E-01  0.524E-01    2.32       1.0  T
   4    -42.3428096  0.384409E-03  0.391E-01    2.54       1.0  T
   5    -42.3461001 -0.329056E-02  0.944E-02    2.50       1.0  T
   6    -42.3462285 -0.128401E-03  0.380E-02    2.46       1.0  T
   7    -42.3462391 -0.105761E-04  0.155E-02    2.47       1.3  T
   8    -42.3462423 -0.317869E-05  0.477E-03    2.46       4.2  T
   9    -42.3462424 -0.120114E-06  0.266E-03    2.46       7.5  T
  10    -42.3462424 -0.525847E-07  0.857E-04    2.46      23.3  T
  11    -42.3462425 -0.133660E-07  0.254E-04    2.46      78.8  T
     SCC iter.                  ...        0 min,  0.015 sec
     gradient                   ...        0 min,  0.014 sec
 * total energy  :   -54.7450446 Eh     change       -0.5492209E+01 Eh
   gradient norm :     6.5107612 Eh/α   predicted    -0.4593001E+01 ( -16.37%)
   displ. norm   :     0.9892827 α      lambda       -0.6415016E+01
   maximum displ.:     0.9639678 α      in ANC's #1, #45, #58, ...

........................................................................
.............................. CYCLE    5 ..............................
........................................................................

 iter      E             dE          RMSdq      gap      omega  full diag
   1    -42.1150942 -0.421151E+02  0.173E+00    0.70       0.0  T
   2    -42.0678383  0.472559E-01  0.173E+00    2.28       1.0  T
   3    -42.1458994 -0.780611E-01  0.890E-01    0.81       1.0  T
   4    -42.1573420 -0.114426E-01  0.472E-01    1.31       1.0  T
   5    -42.1625483 -0.520635E-02  0.112E-01    1.10       1.0  T
   6    -42.1628940 -0.345661E-03  0.597E-02    1.14       1.0  T
   7    -42.1629441 -0.501350E-04  0.193E-02    1.14       1.0  T
   8    -42.1629487 -0.457885E-05  0.673E-03    1.13       3.0  T
   9    -42.1629495 -0.801497E-06  0.254E-03    1.13       7.9  T
  10    -42.1629495 -0.358949E-07  0.121E-03    1.13      16.6  T
  11    -42.1629495 -0.192350E-07  0.371E-04    1.13      53.9  T
  12    -42.1629495 -0.187751E-08  0.191E-04    1.13     104.7  T
     SCC iter.                  ...        0 min,  0.016 sec
     gradient                   ...        0 min,  0.014 sec
 * total energy  :   -62.1102289 Eh     change       -0.7365184E+01 Eh
   gradient norm :     8.4409384 Eh/α   predicted    -0.6346822E+01 ( -13.83%)
   displ. norm   :     0.9928922 α      lambda       -0.8366014E+01
   maximum displ.:     0.9678609 α      in ANC's #1, #45, #39, ...

........................................................................
.............................. CYCLE    6 ..............................
........................................................................

 iter      E             dE          RMSdq      gap      omega  full diag
   1    -42.0050182 -0.420050E+02  0.236E+00    0.12       0.0  T
   2    -41.8399570  0.165061E+00  0.267E+00    2.21       1.0  T
   3    -42.1081658 -0.268209E+00  0.780E-01    0.37       1.0  T
   4    -42.1192137 -0.110479E-01  0.438E-01    0.72       1.0  T
   5    -42.1209516 -0.173783E-02  0.267E-01    0.50       1.0  T
   6    -42.1229472 -0.199566E-02  0.873E-02    0.65       1.0  T
   7    -42.1230936 -0.146391E-03  0.314E-02    0.63       1.0  T
   8    -42.1231061 -0.124784E-04  0.146E-02    0.62       1.4  T
   9    -42.1231094 -0.333569E-05  0.546E-03    0.61       3.7  T
  10    -42.1231104 -0.959542E-06  0.156E-03    0.62      12.8  T
  11    -42.1231104 -0.217946E-07  0.968E-04    0.62      20.7  T
  12    -42.1231104 -0.132333E-07  0.412E-04    0.62      48.5  T
     SCC iter.                  ...        0 min,  0.016 sec
     gradient                   ...        0 min,  0.013 sec
 * total energy  :   -70.8361512 Eh     change       -0.8725922E+01 Eh
   gradient norm :     7.5203751 Eh/α   predicted    -0.8306761E+01 (  -4.80%)
   displ. norm   :     0.9732862 α      lambda       -0.7302827E+01
   maximum displ.:     0.8495135 α      in ANC's #1, #39, #42, ...

........................................................................
.............................. CYCLE    7 ..............................
........................................................................

 iter      E             dE          RMSdq      gap      omega  full diag
   1    -42.0753253 -0.420753E+02  0.241E+00    0.17       0.0  T
   2    -41.8916649  0.183660E+00  0.291E+00    1.53       1.0  T
   3    -42.1750377 -0.283373E+00  0.950E-01    0.28       1.0  T
   4    -42.1622808  0.127569E-01  0.904E-01    0.84       1.0  T
   5    -42.1851645 -0.228837E-01  0.441E-01    0.33       1.0  T
   6    -42.1914850 -0.632055E-02  0.126E-01    0.54       1.0  T
   7    -42.1915809 -0.958695E-04  0.761E-02    0.54       1.0  T
   8    -42.1917384 -0.157489E-03  0.165E-02    0.51       1.2  T
   9    -42.1917385 -0.139363E-06  0.775E-03    0.51       2.6  T
  10    -42.1917394 -0.874716E-06  0.388E-03    0.51       5.2  T
  11    -42.1917398 -0.416681E-06  0.126E-03    0.51      15.8  T
  12    -42.1917398  0.719686E-08  0.876E-04    0.51      22.8  T
  13    -42.1917398 -0.217600E-07  0.431E-04    0.51      46.4  T
     SCC iter.                  ...        0 min,  0.017 sec
     gradient                   ...        0 min,  0.014 sec
 * total energy  :   -57.8034207 Eh     change        0.1303273E+02 Eh
   gradient norm :   181.8504278 Eh/α   predicted    -0.7110348E+01 (-154.56%)
   displ. norm   :     0.9943975 α      lambda       -0.1808182E+03
   maximum displ.:     0.9390951 α      in ANC's #1, #45, #52, ...

........................................................................
.............................. CYCLE    8 ..............................
........................................................................

 iter      E             dE          RMSdq      gap      omega  full diag
   1    -42.0843771 -0.420844E+02  0.205E+00    0.10       0.0  T
   2    -41.9351539  0.149223E+00  0.253E+00    1.48       1.0  T
   3    -42.1497060 -0.214552E+00  0.916E-01    0.33       1.0  T
   4    -42.1256779  0.240280E-01  0.101E+00    1.11       1.0  T
   5    -42.1640308 -0.383529E-01  0.211E-01    0.52       1.0  T
   6    -42.1655448 -0.151394E-02  0.897E-02    0.63       1.0  T
   7    -42.1656859 -0.141091E-03  0.301E-02    0.63       1.0  T
   8    -42.1656896 -0.377573E-05  0.152E-02    0.62       1.3  T
   9    -42.1656947 -0.509074E-05  0.560E-03    0.62       3.6  T
  10    -42.1656958 -0.108577E-05  0.160E-03    0.62      12.5  T
  11    -42.1656958 -0.828975E-08  0.806E-04    0.62      24.8  T
  12    -42.1656958 -0.409207E-08  0.494E-04    0.63      40.5  T
     SCC iter.                  ...        0 min,  0.016 sec
     gradient                   ...        0 min,  0.014 sec
 * total energy  :   -68.1211101 Eh     change       -0.1031769E+02 Eh
   gradient norm :     9.6755175 Eh/α   predicted    -0.1798087E+03 (1642.72%)
   displ. norm   :     0.4759392 α      lambda       -0.8552277E+00
   maximum displ.:     0.2233634 α      in ANC's #45, #24, #27, ...

........................................................................
.............................. CYCLE    9 ..............................
........................................................................

 iter      E             dE          RMSdq      gap      omega  full diag
   1    -42.0824302 -0.420824E+02  0.155E+00    1.05       0.0  T
   2    -41.7110186  0.371412E+00  0.316E+00    0.16       1.0  T
   3    -42.1546052 -0.443587E+00  0.795E-01    0.84       1.0  T
   4    -42.1161189  0.384863E-01  0.114E+00    0.14       1.0  T
   5    -42.1601909 -0.440720E-01  0.485E-01    0.62       1.0  T
   6    -42.1626783 -0.248739E-02  0.316E-01    0.53       1.0  T
   7    -42.1665503 -0.387196E-02  0.752E-02    0.63       1.0  T
   8    -42.1666399 -0.896101E-04  0.543E-02    0.64       1.0  T
   9    -42.1666688 -0.289329E-04  0.318E-02    0.64       1.0  T
  10    -42.1666753 -0.648421E-05  0.958E-03    0.64       2.1  T
  11    -42.1666775 -0.219028E-05  0.309E-03    0.64       6.5  T
  12    -42.1666776 -0.126420E-06  0.129E-03    0.64      15.5  T
  13    -42.1666776 -0.102843E-07  0.392E-04    0.64      51.0  T
  14    -42.1666776 -0.317828E-08  0.173E-04    0.64     115.4  T
     SCC iter.                  ...        0 min,  0.019 sec
     gradient                   ...        0 min,  0.013 sec
 * total energy  :   -68.6960704 Eh     change       -0.5749603E+00 Eh
   gradient norm :     9.7081585 Eh/α   predicted    -0.5244873E+00 (  -8.78%)
   displ. norm   :     0.5013466 α      lambda       -0.2355310E+01
   maximum displ.:     0.1562917 α      in ANC's #1, #41, #27, ...

........................................................................
.............................. CYCLE   10 ..............................
........................................................................

 iter      E             dE          RMSdq      gap      omega  full diag
   1    -42.1632574 -0.421633E+02  0.981E-01    0.83       0.0  T
   2    -41.9620354  0.201222E+00  0.220E+00    0.41       1.0  T
   3    -42.1892331 -0.227198E+00  0.535E-01    0.65       1.0  T
   4    -42.1714181  0.178149E-01  0.831E-01    0.24       1.0  T
   5    -42.1916706 -0.202525E-01  0.305E-01    0.54       1.0  T
   6    -42.1928695 -0.119886E-02  0.194E-01    0.52       1.0  T
   7    -42.1942862 -0.141672E-02  0.373E-02    0.55       1.0  T
   8    -42.1943145 -0.283144E-04  0.205E-02    0.56       1.0  T
   9    -42.1943224 -0.782568E-05  0.122E-02    0.56       1.6  T
  10    -42.1943240 -0.163845E-05  0.407E-03    0.56       4.9  T
  11    -42.1943244 -0.435168E-06  0.102E-03    0.56      19.7  T
  12    -42.1943245 -0.155339E-07  0.475E-04    0.56      42.1  T
  13    -42.1943245 -0.268411E-08  0.119E-04    0.56     168.4  T
     SCC iter.                  ...        0 min,  0.017 sec
     gradient                   ...        0 min,  0.013 sec
 * total energy  :   -70.8910094 Eh     change       -0.2194939E+01 Eh
   gradient norm :     8.7645722 Eh/α   predicted    -0.1473657E+01 ( -32.86%)
   displ. norm   :     0.6970044 α      lambda       -0.5750642E+01
   maximum displ.:     0.5947973 α      in ANC's #1, #52, #41, ...

........................................................................
.............................. CYCLE   11 ..............................
........................................................................

 iter      E             dE          RMSdq      gap      omega  full diag
   1    -42.2008041 -0.422008E+02  0.130E+00    0.78       0.0  T
   2    -41.9800692  0.220735E+00  0.248E+00    0.53       1.0  T
   3    -42.2192344 -0.239165E+00  0.678E-01    0.63       1.0  T
   4    -42.2077475  0.114869E-01  0.654E-01    0.37       1.0  T
   5    -42.2227096 -0.149621E-01  0.162E-01    0.53       1.0  T
   6    -42.2234845 -0.774934E-03  0.386E-02    0.50       1.0  T
   7    -42.2234787  0.583503E-05  0.366E-02    0.50       1.0  T
   8    -42.2235135 -0.347881E-04  0.113E-02    0.50       1.8  T
   9    -42.2235166 -0.308366E-05  0.304E-03    0.50       6.6  T
  10    -42.2235166 -0.512686E-07  0.190E-03    0.50      10.5  T
  11    -42.2235167 -0.116736E-06  0.791E-04    0.50      25.3  T
  12    -42.2235168 -0.105325E-07  0.143E-04    0.50     140.1  T
     SCC iter.                  ...        0 min,  0.016 sec
     gradient                   ...        0 min,  0.014 sec
 * total energy  :   -66.6947373 Eh     change        0.4196272E+01 Eh
   gradient norm :    68.3180890 Eh/α   predicted    -0.4272199E+01 (-201.81%)
   displ. norm   :     0.4476057 α      lambda       -0.3054145E+02
   maximum displ.:     0.3914105 α      in ANC's #1, #45, #52, ...

........................................................................
.............................. CYCLE   12 ..............................
........................................................................

 iter      E             dE          RMSdq      gap      omega  full diag
   1    -42.1805868 -0.421806E+02  0.104E+00    0.32       0.0  T
   2    -42.1052608  0.753259E-01  0.164E+00    1.10       1.0  T
   3    -42.1837227 -0.784619E-01  0.630E-01    0.28       1.0  T
   4    -42.1625750  0.211477E-01  0.780E-01    0.66       1.0  T
   5    -42.1925914 -0.300164E-01  0.128E-01    0.48       1.0  T
   6    -42.1929190 -0.327689E-03  0.876E-02    0.49       1.0  T
   7    -42.1931092 -0.190171E-03  0.325E-02    0.48       1.0  T
   8    -42.1931144 -0.514645E-05  0.257E-02    0.48       1.0  T
   9    -42.1931314 -0.170449E-04  0.751E-03    0.48       2.7  T
  10    -42.1931331 -0.164944E-05  0.226E-03    0.48       8.8  T
  11    -42.1931331 -0.361314E-07  0.114E-03    0.49      17.5  T
  12    -42.1931331 -0.341600E-07  0.243E-04    0.48      82.4  T
  13    -42.1931331 -0.477669E-09  0.128E-04    0.48     156.2  T
     SCC iter.                  ...        0 min,  0.017 sec
     gradient                   ...        0 min,  0.014 sec
 * total energy  :   -72.4045099 Eh     change       -0.5709773E+01 Eh
   gradient norm :     5.6148071 Eh/α   predicted    -0.1833025E+02 ( 221.03%)
   displ. norm   :     0.1431443 α      lambda       -0.2160699E+00
   maximum displ.:     0.0484852 α      in ANC's #47, #35, #41, ...

........................................................................
.............................. CYCLE   13 ..............................
........................................................................

 iter      E             dE          RMSdq      gap      omega  full diag
   1    -42.1989617 -0.421990E+02  0.375E-01    0.49       0.0  T
   2    -42.1910138  0.794789E-02  0.562E-01    0.62       1.0  T
   3    -42.2005740 -0.956024E-02  0.178E-01    0.48       1.0  T
   4    -42.1979185  0.265548E-02  0.279E-01    0.65       1.0  T
   5    -42.2006198 -0.270123E-02  0.122E-01    0.49       1.0  T
   6    -42.2010915 -0.471744E-03  0.359E-02    0.53       1.0  T
   7    -42.2011269 -0.354060E-04  0.165E-02    0.53       1.2  T
   8    -42.2011315 -0.461647E-05  0.857E-03    0.53       2.3  T
   9    -42.2011323 -0.801081E-06  0.543E-03    0.53       3.7  T
  10    -42.2011330 -0.635978E-06  0.641E-04    0.53      31.2  T
  11    -42.2011330  0.197026E-09  0.541E-04    0.53      37.0  T
     SCC iter.                  ...        0 min,  0.015 sec
     gradient                   ...        0 min,  0.014 sec
 * total energy  :   -72.5823104 Eh     change       -0.1778005E+00 Eh
   gradient norm :     4.7205958 Eh/α   predicted    -0.1102498E+00 ( -37.99%)
   displ. norm   :     0.4674472 α      lambda       -0.1252390E+01
   maximum displ.:     0.1604880 α      in ANC's #1, #41, #38, ...

........................................................................
.............................. CYCLE   14 ..............................
........................................................................

 iter      E             dE          RMSdq      gap      omega  full diag
   1    -42.2380508 -0.422381E+02  0.918E-01    0.59       0.0  T
   2    -42.2149840  0.230668E-01  0.109E+00    0.50       1.0  T
   3    -42.2363960 -0.214119E-01  0.632E-01    0.71       1.0  T
   4    -42.2336279  0.276806E-02  0.612E-01    0.36       1.0  T
   5    -42.2409058 -0.727787E-02  0.340E-01    0.67       1.0  T
   6    -42.2456040 -0.469819E-02  0.107E-01    0.54       1.0  T
   7    -42.2460069 -0.402922E-03  0.449E-02    0.57       1.0  T
   8    -42.2460449 -0.380168E-04  0.192E-02    0.57       1.0  T
   9    -42.2460478 -0.291417E-05  0.102E-02    0.57       2.0  T
  10    -42.2460512 -0.336780E-05  0.213E-03    0.57       9.4  T
  11    -42.2460512 -0.402136E-07  0.127E-03    0.57      15.8  T
  12    -42.2460512 -0.286939E-07  0.454E-04    0.57      44.1  T
  13    -42.2460513 -0.761396E-08  0.120E-04    0.57     166.6  T
     SCC iter.                  ...        0 min,  0.017 sec
     gradient                   ...        0 min,  0.014 sec
 * total energy  :   -72.5451605 Eh     change        0.3714994E-01 Eh
   gradient norm :     8.4571219 Eh/α   predicted    -0.7630229E+00 (*******%)
   displ. norm   :     0.2061521 α      lambda       -0.1059620E+01
   maximum displ.:     0.1144010 α      in ANC's #1, #35, #47, ...

........................................................................
.............................. CYCLE   15 ..............................
........................................................................

 iter      E             dE          RMSdq      gap      omega  full diag
   1    -42.2504203 -0.422504E+02  0.388E-01    0.51       0.0  T
   2    -42.2453685  0.505183E-02  0.458E-01    0.67       1.0  T
   3    -42.2471302 -0.176171E-02  0.375E-01    0.43       1.0  T
   4    -42.2500194 -0.288924E-02  0.179E-01    0.60       1.0  T
   5    -42.2505334 -0.513962E-03  0.144E-01    0.50       1.0  T
   6    -42.2514034 -0.870082E-03  0.247E-02    0.54       1.0  T
   7    -42.2514203 -0.168154E-04  0.125E-02    0.54       1.6  T
   8    -42.2514224 -0.210285E-05  0.624E-03    0.54       3.2  T
   9    -42.2514222  0.150424E-06  0.515E-03    0.54       3.9  T
  10    -42.2514230 -0.775449E-06  0.731E-04    0.54      27.3  T
  11    -42.2514230 -0.446300E-08  0.453E-04    0.54      44.2  T
     SCC iter.                  ...        0 min,  0.015 sec
     gradient                   ...        0 min,  0.013 sec
 * total energy  :   -72.9143764 Eh     change       -0.3692159E+00 Eh
   gradient norm :     1.7613517 Eh/α   predicted    -0.5523265E+00 (  49.59%)
   displ. norm   :     0.1560258 α      lambda       -0.7116706E-01
   maximum displ.:     0.0529567 α      in ANC's #39, #35, #42, ...

........................................................................
.............................. CYCLE   16 ..............................
........................................................................

 iter      E             dE          RMSdq      gap      omega  full diag
   1    -42.2626241 -0.422626E+02  0.322E-01    0.57       0.0  T
   2    -42.2612425  0.138165E-02  0.318E-01    0.51       1.0  T
   3    -42.2623908 -0.114831E-02  0.229E-01    0.61       1.0  T
   4    -42.2616974  0.693373E-03  0.227E-01    0.47       1.0  T
   5    -42.2632923 -0.159493E-02  0.945E-02    0.58       1.0  T
   6    -42.2636136 -0.321308E-03  0.374E-02    0.54       1.0  T
   7    -42.2636642 -0.505052E-04  0.135E-02    0.55       1.5  T
   8    -42.2636691 -0.492730E-05  0.441E-03    0.55       4.5  T
   9    -42.2636691 -0.542361E-07  0.230E-03    0.55       8.7  T
  10    -42.2636692 -0.900073E-07  0.481E-04    0.55      41.5  T
  11    -42.2636692 -0.143222E-08  0.228E-04    0.55      87.9  T
     SCC iter.                  ...        0 min,  0.015 sec
     gradient                   ...        0 min,  0.014 sec
 * total energy  :   -72.9475680 Eh     change       -0.3319169E-01 Eh
   gradient norm :     0.1782629 Eh/α   predicted    -0.3645010E-01 (   9.82%)
   displ. norm   :     0.1004858 α      lambda       -0.1343051E-01
   maximum displ.:     0.0314134 α      in ANC's #41, #33, #34, ...

........................................................................
.............................. CYCLE   17 ..............................
........................................................................

 iter      E             dE          RMSdq      gap      omega  full diag
   1    -42.2713778 -0.422714E+02  0.268E-01    0.64       0.0  T
   2    -42.2534261  0.179517E-01  0.666E-01    0.31       1.0  T
   3    -42.2733856 -0.199595E-01  0.141E-01    0.61       1.0  T
   4    -42.2735899 -0.204381E-03  0.126E-01    0.54       1.0  T
   5    -42.2739517 -0.361713E-03  0.461E-02    0.56       1.0  T
   6    -42.2739975 -0.458018E-04  0.253E-02    0.56       1.0  T
   7    -42.2740157 -0.182340E-04  0.847E-03    0.57       2.4  T
   8    -42.2740175 -0.176488E-05  0.300E-03    0.57       6.7  T
   9    -42.2740176 -0.174249E-06  0.160E-03    0.57      12.5  T
  10    -42.2740177 -0.531427E-07  0.382E-04    0.57      52.4  T
  11    -42.2740177 -0.306091E-08  0.166E-04    0.57     120.7  T
     SCC iter.                  ...        0 min,  0.015 sec
     gradient                   ...        0 min,  0.014 sec
 * total energy  :   -72.9599759 Eh     change       -0.1240784E-01 Eh
   gradient norm :     0.2138378 Eh/α   predicted    -0.6783253E-02 ( -45.33%)
   displ. norm   :     0.6189004 α      lambda       -0.8390537E-01
   maximum displ.:     0.2594129 α      in ANC's #41, #47, #33, ...

........................................................................
.............................. CYCLE   18 ..............................
........................................................................

 iter      E             dE          RMSdq      gap      omega  full diag
   1    -42.3126307 -0.423126E+02  0.989E-01    0.59       0.0  T
   2    -42.1678097  0.144821E+00  0.205E+00    0.23       1.0  T
   3    -42.3281968 -0.160387E+00  0.593E-01    0.72       1.0  T
   4    -42.3163014  0.118954E-01  0.830E-01    0.40       1.0  T
   5    -42.3357128 -0.194114E-01  0.200E-01    0.52       1.0  T
   6    -42.3367718 -0.105898E-02  0.713E-02    0.55       1.0  T
   7    -42.3368863 -0.114474E-03  0.390E-02    0.56       1.0  T
   8    -42.3369290 -0.427183E-04  0.148E-02    0.56       1.4  T
   9    -42.3369336 -0.455898E-05  0.798E-03    0.56       2.5  T
  10    -42.3369345 -0.987739E-06  0.285E-03    0.56       7.0  T
  11    -42.3369347 -0.190051E-06  0.824E-04    0.56      24.3  T
  12    -42.3369347 -0.579444E-08  0.359E-04    0.56      55.7  T
     SCC iter.                  ...        0 min,  0.016 sec
     gradient                   ...        0 min,  0.013 sec
 * total energy  :   -73.0111245 Eh     change       -0.5114860E-01 Eh
   gradient norm :     1.1785310 Eh/α   predicted    -0.5802353E-01 (  13.44%)
   displ. norm   :     0.2278674 α      lambda       -0.3950544E-01
   maximum displ.:     0.0969877 α      in ANC's #41, #47, #39, ...

........................................................................
.............................. CYCLE   19 ..............................
........................................................................

 iter      E             dE          RMSdq      gap      omega  full diag
   1    -42.3485763 -0.423486E+02  0.386E-01    0.54       0.0  T
   2    -42.3422467  0.632961E-02  0.473E-01    0.58       1.0  T
   3    -42.3484347 -0.618795E-02  0.280E-01    0.48       1.0  T
   4    -42.3492026 -0.767935E-03  0.243E-01    0.64       1.0  T
   5    -42.3506701 -0.146748E-02  0.968E-02    0.54       1.0  T
   6    -42.3508961 -0.226021E-03  0.367E-02    0.57       1.0  T
   7    -42.3509429 -0.467390E-04  0.755E-03    0.56       2.6  T
   8    -42.3509434 -0.512165E-06  0.549E-03    0.56       3.6  T
   9    -42.3509436 -0.194986E-06  0.287E-03    0.56       7.0  T
  10    -42.3509438 -0.225866E-06  0.603E-04    0.56      33.2  T
  11    -42.3509438 -0.472534E-08  0.254E-04    0.56      78.7  T
     SCC iter.                  ...        0 min,  0.015 sec
     gradient                   ...        0 min,  0.013 sec
 * total energy  :   -73.0334069 Eh     change       -0.2228239E-01 Eh
   gradient norm :     0.1668440 Eh/α   predicted    -0.2077843E-01 (  -6.75%)
   displ. norm   :     0.3201828 α      lambda       -0.1853164E-01
   maximum displ.:     0.1359554 α      in ANC's #41, #47, #31, ...

........................................................................
.............................. CYCLE   20 ..............................
........................................................................

 iter      E             dE          RMSdq      gap      omega  full diag
   1    -42.3545669 -0.423546E+02  0.366E-01    0.55       0.0  T
   2    -42.3547947 -0.227865E-03  0.233E-01    0.52       1.0  T
   3    -42.3526488  0.214596E-02  0.288E-01    0.64       1.0  T
   4    -42.3533520 -0.703232E-03  0.240E-01    0.46       1.0  T
   5    -42.3550433 -0.169130E-02  0.804E-02    0.56       1.0  T
   6    -42.3552415 -0.198163E-03  0.185E-02    0.54       1.1  T
   7    -42.3552463 -0.488505E-05  0.988E-03    0.55       2.0  T
   8    -42.3552477 -0.138903E-05  0.793E-03    0.54       2.5  T
   9    -42.3552495 -0.172110E-05  0.930E-04    0.54      21.5  T
  10    -42.3552495 -0.216428E-07  0.339E-04    0.54      59.1  T
  11    -42.3552495 -0.410239E-09  0.156E-04    0.54     128.2  T
     SCC iter.                  ...        0 min,  0.015 sec
     gradient                   ...        0 min,  0.013 sec
 * total energy  :   -73.0444564 Eh     change       -0.1104951E-01 Eh
   gradient norm :     0.4097520 Eh/α   predicted    -0.1021588E-01 (  -7.54%)
   displ. norm   :     0.1615251 α      lambda       -0.1404411E-01
   maximum displ.:     0.0478832 α      in ANC's #31, #34, #33, ...
 * RMSD in coord.:     1.3260821 α      energy gain  -0.3010128E+02 Eh

generating ANC from model Hessian ...
Using Lindh-Hessian (1995)
 Shifting diagonal of input Hessian by    9.0465499963423256E-003
 Lowest  eigenvalues of input Hessian
    0.000000    0.000000    0.000000    0.000000    0.000000    0.000000
    0.010000    0.011086    0.011663    0.013315    0.014915    0.016811
    0.019006    0.020749    0.021937    0.022690    0.026911    0.030749
 Highest eigenvalues
    2.051865    2.110470    2.322944    2.583907   25.205049   27.898702


........................................................................
.............................. CYCLE   21 ..............................
........................................................................

 iter      E             dE          RMSdq      gap      omega  full diag
   1    -42.3518670 -0.423519E+02  0.234E-01    0.47       0.0  T
   2    -42.3501907  0.167626E-02  0.292E-01    0.61       1.0  T
   3    -42.3510707 -0.880011E-03  0.219E-01    0.44       1.0  T
   4    -42.3521641 -0.109342E-02  0.104E-01    0.53       1.0  T
   5    -42.3524257 -0.261553E-03  0.600E-02    0.51       1.0  T
   6    -42.3524922 -0.664775E-04  0.292E-02    0.52       1.0  T
   7    -42.3525211 -0.289676E-04  0.902E-03    0.51       2.2  T
   8    -42.3525226 -0.146409E-05  0.457E-03    0.51       4.4  T
   9    -42.3525228 -0.238206E-06  0.265E-03    0.51       7.6  T
  10    -42.3525230 -0.155656E-06  0.425E-04    0.51      47.0  T
  11    -42.3525230 -0.223173E-08  0.201E-04    0.51      99.7  T
     SCC iter.                  ...        0 min,  0.015 sec
     gradient                   ...        0 min,  0.014 sec
 * total energy  :   -73.0550400 Eh     change       -0.1058364E-01 Eh
   gradient norm :     0.1955171 Eh/α   predicted     0.0000000E+00 (-100.00%)
   displ. norm   :     0.4344092 α      lambda       -0.3522852E-01
   maximum displ.:     0.2195508 α      in ANC's #14, #23, #7, ...

........................................................................
.............................. CYCLE   22 ..............................
........................................................................

 iter      E             dE          RMSdq      gap      omega  full diag
   1    -42.3884926 -0.423885E+02  0.420E-01    0.62       0.0  T
   2    -42.3774384  0.110542E-01  0.657E-01    0.37       1.0  T
   3    -42.3885949 -0.111565E-01  0.295E-01    0.67       1.0  T
   4    -42.3868161  0.177873E-02  0.321E-01    0.45       1.0  T
   5    -42.3906165 -0.380036E-02  0.694E-02    0.58       1.0  T
   6    -42.3907449 -0.128355E-03  0.185E-02    0.57       1.1  T
   7    -42.3907508 -0.592703E-05  0.874E-03    0.57       2.3  T
   8    -42.3907518 -0.104915E-05  0.471E-03    0.57       4.2  T
   9    -42.3907522 -0.374933E-06  0.990E-04    0.57      20.2  T
  10    -42.3907522 -0.166858E-07  0.402E-04    0.57      49.8  T
     SCC iter.                  ...        0 min,  0.014 sec
     gradient                   ...        0 min,  0.014 sec
 * total energy  :   -72.9456850 Eh     change        0.1093550E+00 Eh
   gradient norm :     4.4581505 Eh/α   predicted    -0.2093847E-01 (-119.15%)
   displ. norm   :     0.1723211 α      lambda       -0.2957231E+00
   maximum displ.:     0.0726211 α      in ANC's #23, #45, #63, ...

........................................................................
.............................. CYCLE   23 ..............................
........................................................................

 iter      E             dE          RMSdq      gap      omega  full diag
   1    -42.4171585 -0.424172E+02  0.310E-01    0.58       0.0  T
   2    -42.4131266  0.403192E-02  0.412E-01    0.53       1.0  T
   3    -42.4184860 -0.535940E-02  0.146E-01    0.58       1.0  T
   4    -42.4183665  0.119499E-03  0.111E-01    0.54       1.0  T
   5    -42.4184535 -0.869869E-04  0.961E-02    0.62       1.0  T
   6    -42.4187844 -0.330895E-03  0.151E-02    0.58       1.3  T
   7    -42.4187884 -0.401267E-05  0.724E-03    0.58       2.8  T
   8    -42.4187891 -0.706160E-06  0.457E-03    0.58       4.4  T
   9    -42.4187895 -0.340009E-06  0.106E-03    0.58      18.9  T
  10    -42.4187895 -0.236833E-07  0.310E-04    0.58      64.6  T
  11    -42.4187895 -0.966246E-09  0.136E-04    0.58     146.6  T
     SCC iter.                  ...        0 min,  0.015 sec
     gradient                   ...        0 min,  0.014 sec
 * total energy  :   -73.0861651 Eh     change       -0.1404801E+00 Eh
   gradient norm :     0.1265159 Eh/α   predicted    -0.1522527E+00 (   8.38%)
   displ. norm   :     0.6393745 α      lambda       -0.2157284E-01
   maximum displ.:     0.3529383 α      in ANC's #14, #7, #23, ...

........................................................................
.............................. CYCLE   24 ..............................
........................................................................

 iter      E             dE          RMSdq      gap      omega  full diag
   1    -42.4414005 -0.424414E+02  0.500E-01    0.58       0.0  T
   2    -42.4341503  0.725028E-02  0.582E-01    0.63       1.0  T
   3    -42.4443047 -0.101544E-01  0.242E-01    0.61       1.0  T
   4    -42.4440246  0.280072E-03  0.177E-01    0.54       1.0  T
   5    -42.4446473 -0.622665E-03  0.106E-01    0.66       1.0  T
   6    -42.4450521 -0.404819E-03  0.244E-02    0.60       1.0  T
   7    -42.4450651 -0.130340E-04  0.964E-03    0.60       2.1  T
   8    -42.4450661 -0.949824E-06  0.526E-03    0.61       3.8  T
   9    -42.4450665 -0.455127E-06  0.174E-03    0.61      11.5  T
  10    -42.4450666 -0.692226E-07  0.644E-04    0.61      31.1  T
  11    -42.4450666 -0.590595E-08  0.187E-04    0.61     106.8  T
     SCC iter.                  ...        0 min,  0.015 sec
     gradient                   ...        0 min,  0.013 sec
 * total energy  :   -73.1034381 Eh     change       -0.1727295E-01 Eh
   gradient norm :     0.2201273 Eh/α   predicted    -0.1519606E-01 ( -12.02%)
   displ. norm   :     0.6967376 α      lambda       -0.2243775E-01
   maximum displ.:     0.3637179 α      in ANC's #14, #11, #7, ...

........................................................................
.............................. CYCLE   25 ..............................
........................................................................

 iter      E             dE          RMSdq      gap      omega  full diag
   1    -42.4505356 -0.424505E+02  0.530E-01    0.55       0.0  T
   2    -42.4450360  0.549961E-02  0.511E-01    0.80       1.0  T
   3    -42.4489763 -0.394024E-02  0.423E-01    0.43       1.0  T
   4    -42.4509733 -0.199702E-02  0.329E-01    0.73       1.0  T
   5    -42.4540200 -0.304674E-02  0.637E-02    0.61       1.0  T
   6    -42.4540906 -0.705790E-04  0.298E-02    0.61       1.0  T
   7    -42.4541123 -0.217387E-04  0.991E-03    0.61       2.0  T
   8    -42.4541132 -0.888556E-06  0.654E-03    0.61       3.1  T
   9    -42.4541142 -0.963885E-06  0.158E-03    0.61      12.7  T
  10    -42.4541142 -0.453504E-07  0.632E-04    0.61      31.6  T
  11    -42.4541143 -0.436446E-08  0.219E-04    0.61      91.3  T
     SCC iter.                  ...        0 min,  0.015 sec
     gradient                   ...        0 min,  0.013 sec
 * total energy  :   -73.1197322 Eh     change       -0.1629415E-01 Eh
   gradient norm :     0.4784023 Eh/α   predicted    -0.1666502E-01 (   2.28%)
   displ. norm   :     0.5522355 α      lambda       -0.1589755E-01
   maximum displ.:     0.2600139 α      in ANC's #14, #7, #5, ...

........................................................................
.............................. CYCLE   26 ..............................
........................................................................

 iter      E             dE          RMSdq      gap      omega  full diag
   1    -42.4671198 -0.424671E+02  0.379E-01    0.63       0.0  T
   2    -42.4668932  0.226612E-03  0.258E-01    0.67       1.0  T
   3    -42.4665075  0.385728E-03  0.262E-01    0.58       1.0  T
   4    -42.4656892  0.818289E-03  0.244E-01    0.76       1.0  T
   5    -42.4677609 -0.207165E-02  0.739E-02    0.61       1.0  T
   6    -42.4678940 -0.133165E-03  0.258E-02    0.65       1.0  T
   7    -42.4679174 -0.233720E-04  0.661E-03    0.64       3.0  T
   8    -42.4679179 -0.496969E-06  0.371E-03    0.64       5.4  T
   9    -42.4679181 -0.254469E-06  0.543E-04    0.64      36.9  T
  10    -42.4679181 -0.202220E-08  0.400E-04    0.64      50.0  T
     SCC iter.                  ...        0 min,  0.013 sec
     gradient                   ...        0 min,  0.013 sec
 * total energy  :   -73.1325238 Eh     change       -0.1279161E-01 Eh
   gradient norm :     0.3852550 Eh/α   predicted    -0.1037295E-01 ( -18.91%)
   displ. norm   :     0.5357749 α      lambda       -0.1772905E-01
   maximum displ.:     0.1663187 α      in ANC's #7, #14, #13, ...

........................................................................
.............................. CYCLE   27 ..............................
........................................................................

 iter      E             dE          RMSdq      gap      omega  full diag
   1    -42.4878757 -0.424879E+02  0.636E-01    0.90       0.0  T
   2    -42.4660539  0.218218E-01  0.981E-01    0.49       1.0  T
   3    -42.4956102 -0.295563E-01  0.228E-01    0.83       1.0  T
   4    -42.4932513  0.235888E-02  0.350E-01    0.61       1.0  T
   5    -42.4959504 -0.269910E-02  0.114E-01    0.82       1.0  T
   6    -42.4964852 -0.534774E-03  0.247E-02    0.75       1.0  T
   7    -42.4964964 -0.112314E-04  0.718E-03    0.75       2.8  T
   8    -42.4964965 -0.558336E-07  0.472E-03    0.75       4.2  T
   9    -42.4964969 -0.474703E-06  0.197E-03    0.75      10.2  T
  10    -42.4964970 -0.674902E-07  0.560E-04    0.75      35.7  T
  11    -42.4964970 -0.880014E-09  0.371E-04    0.75      53.8  T
     SCC iter.                  ...        0 min,  0.015 sec
     gradient                   ...        0 min,  0.013 sec
 * total energy  :   -73.1472817 Eh     change       -0.1475787E-01 Eh
   gradient norm :     0.0993277 Eh/α   predicted    -0.1140914E-01 ( -22.69%)
   displ. norm   :     0.6933318 α      lambda       -0.2584585E-01
   maximum displ.:     0.2919373 α      in ANC's #47, #45, #13, ...

........................................................................
.............................. CYCLE   28 ..............................
........................................................................

 iter      E             dE          RMSdq      gap      omega  full diag
   1    -42.5003564 -0.425004E+02  0.138E+00    1.33       0.0  T
   2    -42.3339868  0.166370E+00  0.261E+00    0.41       1.0  T
   3    -42.5451791 -0.211192E+00  0.352E-01    0.98       1.0  T
   4    -42.5449093  0.269787E-03  0.294E-01    0.84       1.0  T
   5    -42.5431831  0.172626E-02  0.274E-01    1.09       1.0  T
   6    -42.5461481 -0.296500E-02  0.505E-02    0.92       1.0  T
   7    -42.5462042 -0.560954E-04  0.125E-02    0.93       1.6  T
   8    -42.5462038  0.412016E-06  0.946E-03    0.93       2.1  T
   9    -42.5462052 -0.144766E-05  0.371E-03    0.93       5.4  T
  10    -42.5462054 -0.204992E-06  0.161E-03    0.93      12.5  T
  11    -42.5462055 -0.492887E-07  0.843E-04    0.93      23.7  T
  12    -42.5462055 -0.123297E-07  0.241E-04    0.93      82.8  T
     SCC iter.                  ...        0 min,  0.016 sec
     gradient                   ...        0 min,  0.013 sec
 * total energy  :   -73.1669651 Eh     change       -0.1968342E-01 Eh
   gradient norm :     0.4402641 Eh/α   predicted    -0.1913506E-01 (  -2.79%)
   displ. norm   :     0.5579089 α      lambda       -0.2845237E-01
   maximum displ.:     0.2931646 α      in ANC's #47, #45, #18, ...

........................................................................
.............................. CYCLE   29 ..............................
........................................................................

 iter      E             dE          RMSdq      gap      omega  full diag
   1    -42.5468295 -0.425468E+02  0.101E+00    1.39       0.0  T
   2    -42.4240245  0.122805E+00  0.225E+00    0.53       1.0  T
   3    -42.5691805 -0.145156E+00  0.332E-01    1.08       1.0  T
   4    -42.5688366  0.343897E-03  0.256E-01    1.02       1.0  T
   5    -42.5696008 -0.764189E-03  0.760E-02    1.07       1.0  T
   6    -42.5696749 -0.740815E-04  0.486E-02    1.04       1.0  T
   7    -42.5697572 -0.823454E-04  0.174E-02    1.06       1.1  T
   8    -42.5697613 -0.411768E-05  0.833E-03    1.06       2.4  T
   9    -42.5697627 -0.138336E-05  0.400E-03    1.06       5.0  T
  10    -42.5697630 -0.321749E-06  0.129E-03    1.06      15.5  T
  11    -42.5697631 -0.254457E-07  0.499E-04    1.06      40.1  T
  12    -42.5697631 -0.278887E-08  0.178E-04    1.06     112.1  T
     SCC iter.                  ...        0 min,  0.016 sec
     gradient                   ...        0 min,  0.013 sec
 * total energy  :   -73.1829207 Eh     change       -0.1595560E-01 Eh
   gradient norm :     0.1861474 Eh/α   predicted    -0.1865423E-01 (  16.91%)
   displ. norm   :     0.3971540 α      lambda       -0.1463851E-01
   maximum displ.:     0.1709486 α      in ANC's #11, #2, #6, ...

........................................................................
.............................. CYCLE   30 ..............................
........................................................................

 iter      E             dE          RMSdq      gap      omega  full diag
   1    -42.5632997 -0.425633E+02  0.360E-01    1.15       0.0  T
   2    -42.5614776  0.182218E-02  0.334E-01    0.94       1.0  T
   3    -42.5619825 -0.504920E-03  0.282E-01    1.20       1.0  T
   4    -42.5634566 -0.147416E-02  0.121E-01    1.10       1.0  T
   5    -42.5637234 -0.266769E-03  0.779E-02    1.07       1.0  T
   6    -42.5638747 -0.151335E-03  0.185E-02    1.08       1.1  T
   7    -42.5638843 -0.959793E-05  0.902E-03    1.08       2.2  T
   8    -42.5638861 -0.180835E-05  0.377E-03    1.08       5.3  T
   9    -42.5638863 -0.184233E-06  0.101E-03    1.08      19.8  T
  10    -42.5638864 -0.186162E-07  0.443E-04    1.08      45.2  T
  11    -42.5638864 -0.167645E-08  0.154E-04    1.08     129.5  T
     SCC iter.                  ...        0 min,  0.015 sec
     gradient                   ...        0 min,  0.013 sec
 * total energy  :   -73.1929744 Eh     change       -0.1005365E-01 Eh
   gradient norm :     0.1120524 Eh/α   predicted    -0.8473744E-02 ( -15.71%)
   displ. norm   :     0.6318551 α      lambda       -0.2563330E-01
   maximum displ.:     0.2059981 α      in ANC's #18, #19, #43, ...

........................................................................
.............................. CYCLE   31 ..............................
........................................................................

 iter      E             dE          RMSdq      gap      omega  full diag
   1    -42.5672888 -0.425673E+02  0.702E-01    0.88       0.0  T
   2    -42.5574455  0.984330E-02  0.727E-01    1.01       1.0  T
   3    -42.5583497 -0.904227E-03  0.698E-01    0.81       1.0  T
   4    -42.5668734 -0.852365E-02  0.292E-01    0.96       1.0  T
   5    -42.5690862 -0.221277E-02  0.852E-02    0.90       1.0  T
   6    -42.5692541 -0.167975E-03  0.545E-02    0.90       1.0  T
   7    -42.5693433 -0.891279E-04  0.175E-02    0.90       1.1  T
   8    -42.5693476 -0.432669E-05  0.765E-03    0.90       2.6  T
   9    -42.5693485 -0.876434E-06  0.199E-03    0.90      10.1  T
  10    -42.5693485 -0.589373E-07  0.804E-04    0.90      24.9  T
  11    -42.5693485 -0.639973E-08  0.304E-04    0.90      65.9  T
     SCC iter.                  ...        0 min,  0.015 sec
     gradient                   ...        0 min,  0.013 sec
 * total energy  :   -73.1993231 Eh     change       -0.6348755E-02 Eh
   gradient norm :     0.1717893 Eh/α   predicted    -0.1793360E-01 ( 182.47%)
   displ. norm   :     0.3018291 α      lambda       -0.1431606E-01
   maximum displ.:     0.1296449 α      in ANC's #11, #3, #27, ...

........................................................................
.............................. CYCLE   32 ..............................
........................................................................

 iter      E             dE          RMSdq      gap      omega  full diag
   1    -42.5625717 -0.425626E+02  0.268E-01    0.86       0.0  T
   2    -42.5599414  0.263029E-02  0.362E-01    0.81       1.0  T
   3    -42.5629223 -0.298089E-02  0.171E-01    0.87       1.0  T
   4    -42.5627759  0.146316E-03  0.158E-01    0.82       1.0  T
   5    -42.5631299 -0.353921E-03  0.973E-02    0.86       1.0  T
   6    -42.5633837 -0.253864E-03  0.361E-02    0.84       1.0  T
   7    -42.5634288 -0.450353E-04  0.461E-03    0.85       4.3  T
   8    -42.5634290 -0.203450E-06  0.239E-03    0.85       8.4  T
   9    -42.5634290 -0.241526E-07  0.842E-04    0.85      23.8  T
  10    -42.5634290 -0.189489E-07  0.286E-04    0.85      69.9  T
     SCC iter.                  ...        0 min,  0.013 sec
     gradient                   ...        0 min,  0.013 sec
 * total energy  :   -73.2069780 Eh     change       -0.7654848E-02 Eh
   gradient norm :     0.0625090 Eh/α   predicted    -0.7810153E-02 (   2.03%)
   displ. norm   :     0.3817047 α      lambda       -0.5610184E-02
   maximum displ.:     0.1619953 α      in ANC's #3, #6, #2, ...

........................................................................
.............................. CYCLE   33 ..............................
........................................................................

 iter      E             dE          RMSdq      gap      omega  full diag
   1    -42.5675483 -0.425675E+02  0.271E-01    0.81       0.0  T
   2    -42.5663093  0.123899E-02  0.284E-01    0.81       1.0  T
   3    -42.5676198 -0.131050E-02  0.206E-01    0.85       1.0  T
   4    -42.5682731 -0.653311E-03  0.996E-02    0.80       1.0  T
   5    -42.5679424  0.330735E-03  0.139E-01    0.85       1.0  T
   6    -42.5684883 -0.545853E-03  0.214E-02    0.82       1.0  T
   7    -42.5685018 -0.135394E-04  0.611E-03    0.82       3.3  T
   8    -42.5685028 -0.103732E-05  0.279E-03    0.82       7.2  T
   9    -42.5685030 -0.115380E-06  0.852E-04    0.82      23.5  T
  10    -42.5685030 -0.106653E-07  0.249E-04    0.82      80.4  T
     SCC iter.                  ...        0 min,  0.013 sec
     gradient                   ...        0 min,  0.013 sec
 * total energy  :   -73.2093655 Eh     change       -0.2387501E-02 Eh
   gradient norm :     0.3689648 Eh/α   predicted    -0.3213794E-02 (  34.61%)
   displ. norm   :     0.4441823 α      lambda       -0.7574531E-02
   maximum displ.:     0.2121423 α      in ANC's #3, #6, #2, ...

........................................................................
.............................. CYCLE   34 ..............................
........................................................................

 iter      E             dE          RMSdq      gap      omega  full diag
   1    -42.5775973 -0.425776E+02  0.257E-01    0.77       0.0  T
   2    -42.5775218  0.755539E-04  0.182E-01    0.81       1.0  T
   3    -42.5765220  0.999776E-03  0.228E-01    0.73       1.0  T
   4    -42.5772936 -0.771556E-03  0.151E-01    0.82       1.0  T
   5    -42.5777298 -0.436265E-03  0.700E-02    0.77       1.0  T
   6    -42.5778789 -0.149061E-03  0.165E-02    0.78       1.2  T
   7    -42.5778863 -0.736555E-05  0.346E-03    0.78       5.8  T
   8    -42.5778864 -0.114468E-06  0.242E-03    0.78       8.3  T
   9    -42.5778865 -0.100872E-06  0.765E-04    0.78      26.2  T
  10    -42.5778865 -0.139579E-07  0.253E-04    0.78      79.0  T
     SCC iter.                  ...        0 min,  0.013 sec
     gradient                   ...        0 min,  0.013 sec
 * total energy  :   -73.2155090 Eh     change       -0.6143513E-02 Eh
   gradient norm :     0.1300013 Eh/α   predicted    -0.4534513E-02 ( -26.19%)
   displ. norm   :     0.7353821 α      lambda       -0.1170428E-01
   maximum displ.:     0.3135615 α      in ANC's #6, #3, #13, ...

........................................................................
.............................. CYCLE   35 ..............................
........................................................................

 iter      E             dE          RMSdq      gap      omega  full diag
   1    -42.5941905 -0.425942E+02  0.471E-01    0.72       0.0  T
   2    -42.5945953 -0.404764E-03  0.290E-01    0.75       1.0  T
   3    -42.5925230  0.207225E-02  0.321E-01    0.64       1.0  T
   4    -42.5926501 -0.127041E-03  0.292E-01    0.82       1.0  T
   5    -42.5949567 -0.230661E-02  0.545E-02    0.73       1.0  T
   6    -42.5950118 -0.551295E-04  0.334E-02    0.72       1.0  T
   7    -42.5950469 -0.350371E-04  0.527E-03    0.72       3.8  T
   8    -42.5950470 -0.145472E-06  0.266E-03    0.73       7.5  T
   9    -42.5950471 -0.544590E-07  0.818E-04    0.72      24.4  T
  10    -42.5950471 -0.754356E-08  0.509E-04    0.73      39.3  T
     SCC iter.                  ...        0 min,  0.013 sec
     gradient                   ...        0 min,  0.014 sec
 * total energy  :   -73.2254682 Eh     change       -0.9959170E-02 Eh
   gradient norm :     0.0733870 Eh/α   predicted    -0.9016912E-02 (  -9.46%)
   displ. norm   :     0.7973131 α      lambda       -0.1479498E-01
   maximum displ.:     0.3231770 α      in ANC's #13, #2, #6, ...

........................................................................
.............................. CYCLE   36 ..............................
........................................................................

 iter      E             dE          RMSdq      gap      omega  full diag
   1    -42.6028947 -0.426029E+02  0.674E-01    0.78       0.0  T
   2    -42.6057517 -0.285707E-02  0.341E-01    0.84       1.0  T
   3    -42.6056356  0.116145E-03  0.250E-01    0.75       1.0  T
   4    -42.6042899  0.134570E-02  0.303E-01    0.91       1.0  T
   5    -42.6064394 -0.214952E-02  0.826E-02    0.78       1.0  T
   6    -42.6065782 -0.138731E-03  0.403E-02    0.82       1.0  T
   7    -42.6066310 -0.528918E-04  0.109E-02    0.81       1.8  T
   8    -42.6066325 -0.142179E-05  0.399E-03    0.81       5.0  T
   9    -42.6066325 -0.508226E-07  0.122E-03    0.81      16.4  T
  10    -42.6066325 -0.145000E-08  0.840E-04    0.81      23.8  T
  11    -42.6066325 -0.117702E-07  0.274E-04    0.81      73.0  T
     SCC iter.                  ...        0 min,  0.015 sec
     gradient                   ...        0 min,  0.014 sec
 * total energy  :   -73.2388870 Eh     change       -0.1341879E-01 Eh
   gradient norm :     0.2111815 Eh/α   predicted    -0.1210019E-01 (  -9.83%)
   displ. norm   :     0.7369524 α      lambda       -0.2548446E-01
   maximum displ.:     0.3268632 α      in ANC's #24, #13, #14, ...

........................................................................
.............................. CYCLE   37 ..............................
........................................................................

 iter      E             dE          RMSdq      gap      omega  full diag
   1    -42.6222702 -0.426223E+02  0.891E-01    1.02       0.0  T
   2    -42.6273482 -0.507798E-02  0.444E-01    1.04       1.0  T
   3    -42.6258085  0.153973E-02  0.354E-01    1.16       1.0  T
   4    -42.6233425  0.246599E-02  0.392E-01    0.90       1.0  T
   5    -42.6279618 -0.461932E-02  0.666E-02    1.08       1.0  T
   6    -42.6280808 -0.118938E-03  0.187E-02    1.06       1.1  T
   7    -42.6280829 -0.211835E-05  0.103E-02    1.06       1.9  T
   8    -42.6280838 -0.920507E-06  0.455E-03    1.05       4.4  T
   9    -42.6280842 -0.384262E-06  0.201E-03    1.06      10.0  T
  10    -42.6280842 -0.550988E-07  0.995E-04    1.06      20.1  T
  11    -42.6280843 -0.112232E-07  0.300E-04    1.06      66.6  T
     SCC iter.                  ...        0 min,  0.015 sec
     gradient                   ...        0 min,  0.013 sec
 * total energy  :   -73.2487477 Eh     change       -0.9860750E-02 Eh
   gradient norm :     0.2192709 Eh/α   predicted    -0.1966258E-01 (  99.40%)
   displ. norm   :     0.4479797 α      lambda       -0.2526236E-01
   maximum displ.:     0.1992366 α      in ANC's #7, #3, #1, ...

........................................................................
.............................. CYCLE   38 ..............................
........................................................................

 iter      E             dE          RMSdq      gap      omega  full diag
   1    -42.5930660 -0.425931E+02  0.454E-01    1.02       0.0  T
   2    -42.5890074  0.405864E-02  0.505E-01    0.85       1.0  T
   3    -42.5930412 -0.403376E-02  0.314E-01    1.09       1.0  T
   4    -42.5947910 -0.174981E-02  0.128E-01    0.94       1.0  T
   5    -42.5949292 -0.138214E-03  0.880E-02    1.01       1.0  T
   6    -42.5951174 -0.188172E-03  0.146E-02    0.99       1.4  T
   7    -42.5951205 -0.313094E-05  0.889E-03    0.99       2.2  T
   8    -42.5951216 -0.114463E-05  0.349E-03    0.99       5.7  T
   9    -42.5951219 -0.225789E-06  0.729E-04    0.99      27.4  T
  10    -42.5951219 -0.485839E-08  0.321E-04    0.99      62.3  T
     SCC iter.                  ...        0 min,  0.013 sec
     gradient                   ...        0 min,  0.013 sec
 * total energy  :   -73.2603134 Eh     change       -0.1156570E-01 Eh
   gradient norm :     0.1676839 Eh/α   predicted    -0.1516609E-01 (  31.13%)
   displ. norm   :     0.4360623 α      lambda       -0.1918527E-01
   maximum displ.:     0.1503437 α      in ANC's #3, #15, #11, ...

........................................................................
.............................. CYCLE   39 ..............................
........................................................................

 iter      E             dE          RMSdq      gap      omega  full diag
   1    -42.5956647 -0.425957E+02  0.395E-01    0.94       0.0  T
   2    -42.5943696  0.129509E-02  0.374E-01    1.08       1.0  T
   3    -42.5956985 -0.132892E-02  0.273E-01    0.91       1.0  T
   4    -42.5966554 -0.956881E-03  0.151E-01    1.04       1.0  T
   5    -42.5970757 -0.420352E-03  0.757E-02    0.96       1.0  T
   6    -42.5972319 -0.156116E-03  0.941E-03    0.99       2.1  T
   7    -42.5972333 -0.141746E-05  0.563E-03    0.98       3.6  T
   8    -42.5972335 -0.274904E-06  0.238E-03    0.99       8.4  T
   9    -42.5972337 -0.114765E-06  0.666E-04    0.99      30.0  T
  10    -42.5972337 -0.400924E-08  0.366E-04    0.99      54.7  T
     SCC iter.                  ...        0 min,  0.014 sec
     gradient                   ...        0 min,  0.013 sec
 * total energy  :   -73.2674299 Eh     change       -0.7116524E-02 Eh
   gradient norm :     0.2871031 Eh/α   predicted    -0.1141667E-01 (  60.42%)
   displ. norm   :     0.4593049 α      lambda       -0.2344618E-01
   maximum displ.:     0.1630546 α      in ANC's #14, #18, #6, ...

........................................................................
.............................. CYCLE   40 ..............................
........................................................................

 iter      E             dE          RMSdq      gap      omega  full diag
   1    -42.6235120 -0.426235E+02  0.510E-01    1.09       0.0  T
   2    -42.6195975  0.391444E-02  0.498E-01    0.88       1.0  T
   3    -42.6226401 -0.304260E-02  0.392E-01    1.17       1.0  T
   4    -42.6259442 -0.330409E-02  0.106E-01    1.03       1.0  T
   5    -42.6259986 -0.543596E-04  0.488E-02    1.05       1.0  T
   6    -42.6260545 -0.559264E-04  0.127E-02    1.04       1.6  T
   7    -42.6260557 -0.117821E-05  0.707E-03    1.04       2.8  T
   8    -42.6260565 -0.829469E-06  0.351E-03    1.04       5.7  T
   9    -42.6260568 -0.224134E-06  0.916E-04    1.04      21.8  T
  10    -42.6260568 -0.770071E-08  0.381E-04    1.04      52.5  T
     SCC iter.                  ...        0 min,  0.013 sec
     gradient                   ...        0 min,  0.013 sec
 * total energy  :   -73.2786970 Eh     change       -0.1126708E-01 Eh
   gradient norm :     0.1686718 Eh/α   predicted    -0.1419621E-01 (  26.00%)
   displ. norm   :     0.5734076 α      lambda       -0.2329153E-01
   maximum displ.:     0.2331296 α      in ANC's #16, #14, #6, ...

........................................................................
.............................. CYCLE   41 ..............................
........................................................................

 iter      E             dE          RMSdq      gap      omega  full diag
   1    -42.6274954 -0.426275E+02  0.524E-01    1.02       0.0  T
   2    -42.6285143 -0.101882E-02  0.323E-01    1.02       1.0  T
   3    -42.6281606  0.353634E-03  0.190E-01    1.06       1.0  T
   4    -42.6278070  0.353636E-03  0.183E-01    0.96       1.0  T
   5    -42.6287925 -0.985509E-03  0.553E-02    1.04       1.0  T
   6    -42.6288883 -0.958428E-04  0.140E-02    1.02       1.4  T
   7    -42.6288908 -0.246578E-05  0.770E-03    1.02       2.6  T
   8    -42.6288915 -0.699665E-06  0.334E-03    1.03       6.0  T
   9    -42.6288917 -0.239948E-06  0.854E-04    1.03      23.4  T
  10    -42.6288917 -0.239714E-08  0.417E-04    1.03      48.0  T
     SCC iter.                  ...        0 min,  0.013 sec
     gradient                   ...        0 min,  0.013 sec
 * total energy  :   -73.2870137 Eh     change       -0.8316637E-02 Eh
   gradient norm :     0.4088702 Eh/α   predicted    -0.1547491E-01 (  86.07%)
   displ. norm   :     0.4365460 α      lambda       -0.1999586E-01
   maximum displ.:     0.1670215 α      in ANC's #8, #1, #6, ...

........................................................................
.............................. CYCLE   42 ..............................
........................................................................

 iter      E             dE          RMSdq      gap      omega  full diag
   1    -42.6371600 -0.426372E+02  0.377E-01    0.97       0.0  T
   2    -42.6354794  0.168065E-02  0.343E-01    1.06       1.0  T
   3    -42.6363603 -0.880913E-03  0.270E-01    0.91       1.0  T
   4    -42.6377684 -0.140816E-02  0.120E-01    1.02       1.0  T
   5    -42.6380637 -0.295247E-03  0.247E-02    0.98       1.0  T
   6    -42.6380771 -0.134397E-04  0.933E-03    0.99       2.1  T
   7    -42.6380780 -0.859261E-06  0.410E-03    0.99       4.9  T
   8    -42.6380782 -0.217120E-06  0.182E-03    0.99      11.0  T
   9    -42.6380783 -0.636550E-07  0.692E-04    0.99      28.9  T
  10    -42.6380783 -0.271361E-08  0.286E-04    0.99      70.0  T
     SCC iter.                  ...        0 min,  0.014 sec
     gradient                   ...        0 min,  0.013 sec
 * total energy  :   -73.2962915 Eh     change       -0.9277852E-02 Eh
   gradient norm :     0.2417498 Eh/α   predicted    -0.1190327E-01 (  28.30%)
   displ. norm   :     0.4935780 α      lambda       -0.1775374E-01
   maximum displ.:     0.2081450 α      in ANC's #8, #27, #3, ...
 * RMSD in coord.:     1.1548232 α      energy gain  -0.2518351E+00 Eh

generating ANC from model Hessian ...
Using Lindh-Hessian (1995)
 Shifting diagonal of input Hessian by    8.5865304235299075E-003
 Lowest  eigenvalues of input Hessian
    0.000000    0.000000    0.000000    0.000000    0.000000    0.000000
    0.010000    0.010604    0.013274    0.014361    0.015247    0.019222
    0.022290    0.023485    0.025010    0.027587    0.032621    0.036998
 Highest eigenvalues
    2.194565    2.297384    2.344377    2.512077   22.995884   27.876475


........................................................................
.............................. CYCLE   43 ..............................
........................................................................

 iter      E             dE          RMSdq      gap      omega  full diag
   1    -42.6409003 -0.426409E+02  0.391E-01    0.96       0.0  T
   2    -42.6381487  0.275160E-02  0.397E-01    1.10       1.0  T
   3    -42.6407369 -0.258822E-02  0.251E-01    0.94       1.0  T
   4    -42.6419136 -0.117672E-02  0.105E-01    1.02       1.0  T
   5    -42.6420871 -0.173485E-03  0.260E-02    1.00       1.0  T
   6    -42.6421027 -0.155971E-04  0.907E-03    1.00       2.2  T
   7    -42.6421035 -0.808322E-06  0.423E-03    1.00       4.7  T
   8    -42.6421037 -0.215270E-06  0.161E-03    1.00      12.4  T
   9    -42.6421037 -0.411900E-07  0.641E-04    1.00      31.2  T
  10    -42.6421037 -0.100636E-08  0.209E-04    1.00      95.8  T
     SCC iter.                  ...        0 min,  0.014 sec
     gradient                   ...        0 min,  0.013 sec
 * total energy  :   -73.2978959 Eh     change       -0.1604429E-02 Eh
   gradient norm :     0.8011475 Eh/α   predicted     0.0000000E+00 (-100.00%)
   displ. norm   :     0.4229544 α      lambda       -0.3100306E+00
   maximum displ.:     0.2169943 α      in ANC's #64, #61, #50, ...

........................................................................
.............................. CYCLE   44 ..............................
........................................................................

 iter      E             dE          RMSdq      gap      omega  full diag
   1    -42.5871002 -0.425871E+02  0.446E-01    0.96       0.0  T
   2    -42.5873254 -0.225148E-03  0.259E-01    0.95       1.0  T
   3    -42.5870605  0.264864E-03  0.204E-01    0.96       1.0  T
   4    -42.5877770 -0.716497E-03  0.364E-02    0.95       1.0  T
   5    -42.5877762  0.826501E-06  0.324E-02    0.97       1.0  T
   6    -42.5878024 -0.262782E-04  0.118E-02    0.96       1.7  T
   7    -42.5878041 -0.169143E-05  0.637E-03    0.96       3.1  T
   8    -42.5878047 -0.528677E-06  0.193E-03    0.96      10.3  T
   9    -42.5878047 -0.846557E-07  0.702E-04    0.96      28.5  T
  10    -42.5878047 -0.361907E-08  0.235E-04    0.96      84.9  T
     SCC iter.                  ...        0 min,  0.014 sec
     gradient                   ...        0 min,  0.014 sec
 * total energy  :   -61.2924253 Eh     change        0.1200547E+02 Eh
   gradient norm :   141.3930068 Eh/α   predicted    -0.1827488E+00 (-101.52%)
   displ. norm   :     0.3306878 α      lambda       -0.4675566E+02
   maximum displ.:     0.2346972 α      in ANC's #64, #61, #62, ...

........................................................................
.............................. CYCLE   45 ..............................
........................................................................

 iter      E             dE          RMSdq      gap      omega  full diag
   1    -42.6535006 -0.426535E+02  0.441E-01    1.06       0.0  T
   2    -42.6532459  0.254698E-03  0.308E-01    0.97       1.0  T
   3    -42.6530309  0.215056E-03  0.285E-01    1.12       1.0  T
   4    -42.6539694 -0.938544E-03  0.194E-01    0.97       1.0  T
   5    -42.6550206 -0.105119E-02  0.226E-02    1.02       1.0  T
   6    -42.6550298 -0.914623E-05  0.106E-02    1.03       1.9  T
   7    -42.6550309 -0.110807E-05  0.429E-03    1.03       4.7  T
   8    -42.6550309 -0.839452E-07  0.156E-03    1.03      12.8  T
   9    -42.6550310 -0.408882E-07  0.441E-04    1.03      45.3  T
  10    -42.6550310  0.136410E-09  0.237E-04    1.03      84.4  T
     SCC iter.                  ...        0 min,  0.014 sec
     gradient                   ...        0 min,  0.013 sec
 * total energy  :   -73.2827496 Eh     change       -0.1199032E+02 Eh
   gradient norm :     1.8987546 Eh/α   predicted    -0.2593431E+02 ( 116.29%)
   displ. norm   :     0.2229653 α      lambda       -0.1404427E-01
   maximum displ.:     0.0814321 α      in ANC's #9, #8, #17, ...

........................................................................
.............................. CYCLE   46 ..............................
........................................................................

 iter      E             dE          RMSdq      gap      omega  full diag
   1    -42.6569553 -0.426570E+02  0.177E-01    1.00       0.0  T
   2    -42.6566650  0.290340E-03  0.141E-01    1.05       1.0  T
   3    -42.6567933 -0.128376E-03  0.140E-01    0.98       1.0  T
   4    -42.6572177 -0.424391E-03  0.408E-02    1.02       1.0  T
   5    -42.6572382 -0.204842E-04  0.130E-02    1.01       1.5  T
   6    -42.6572418 -0.357692E-05  0.401E-03    1.01       5.0  T
   7    -42.6572420 -0.163498E-06  0.224E-03    1.01       8.9  T
   8    -42.6572420 -0.806044E-07  0.608E-04    1.01      32.9  T
   9    -42.6572420 -0.584240E-08  0.170E-04    1.01     117.8  T
     SCC iter.                  ...        0 min,  0.012 sec
     gradient                   ...        0 min,  0.014 sec
 * total energy  :   -73.2951110 Eh     change       -0.1236140E-01 Eh
   gradient norm :     1.5954914 Eh/α   predicted    -0.7370323E-02 ( -40.38%)
   displ. norm   :     0.4003510 α      lambda       -0.4126969E-01
   maximum displ.:     0.1702586 α      in ANC's #17, #14, #8, ...

........................................................................
.............................. CYCLE   47 ..............................
........................................................................

 iter      E             dE          RMSdq      gap      omega  full diag
   1    -42.6595340 -0.426595E+02  0.372E-01    0.95       0.0  T
   2    -42.6584101  0.112395E-02  0.286E-01    1.05       1.0  T
   3    -42.6589812 -0.571146E-03  0.290E-01    0.93       1.0  T
   4    -42.6608096 -0.182839E-02  0.829E-02    0.99       1.0  T
   5    -42.6608637 -0.540837E-04  0.346E-02    0.98       1.0  T
   6    -42.6608897 -0.259554E-04  0.883E-03    0.98       2.3  T
   7    -42.6608906 -0.899918E-06  0.476E-03    0.98       4.2  T
   8    -42.6608909 -0.330755E-06  0.172E-03    0.98      11.7  T
   9    -42.6608909 -0.449681E-07  0.396E-04    0.98      50.5  T
  10    -42.6608909 -0.792873E-09  0.173E-04    0.98     115.9  T
     SCC iter.                  ...        0 min,  0.014 sec
[...]
N           -1.98721923165465        0.98219747324974        0.18809429524699
C           -3.14938636771377        1.84404453803645        0.36264124573689
C           -2.24617520332899       -0.31598305040362       -0.07628477066888
O           -3.33539154561116       -0.80317722763718       -0.15572916856628
N           -1.07067874016663       -1.16089995547730       -0.31735844031798
C           -1.33855417500006       -2.36083257323320       -0.81197517998626
H            4.45991553806573        0.96583329464908        0.96891699339661
H            5.05068757974918       -0.50544617417658        0.14767752859798
H            4.53539716190552        0.92568039839771       -0.78760167303474
H            3.20629081935615       -2.16662111329144       -0.00932412778617
H           -2.80956747895090        2.87737198828136        0.33699966680899
H           -3.86785714559108        1.65430558013740       -0.43332196958454
H           -3.62744896772042        1.63660334715047        1.32058978214738
H            0.82017378010406        0.81398247331546        0.34593569116532
H           -0.57840612684209       -3.04617813876630       -1.13276484300932
H           -2.38018760079484       -2.60834936439919       -0.93990238004006
H            0.99784449506291       -2.56826044418960       -0.08218099429000

 Bond Distances (Angstroems)
 ---------------------------
C1-N2=1.4035         C1-H15=1.0921        C1-H16=1.0958        C1-H17=1.0912        N2-C1=1.4035         N2-C3=1.2579         
C3-N2=1.2579         C3-N4=1.3693         C3-H18=1.0951        N4-C3=1.3693         N4-C5=1.3798         N4-H25=1.0107        
C5-N4=1.3798         C5-C6=1.3928         C5-N13=1.3897        C6-C5=1.3928         C6-C7=1.4940         C6-H22=0.3835        
C7-C6=1.4940         C7-O8=1.2062         C7-N9=1.4023         O8-C7=1.2062         N9-C7=1.4023         N9-C10=1.4574        
N9-C11=1.3499        C10-N9=1.4574        C10-H19=1.0881       C10-H20=1.0889       C10-H21=1.0905       C11-N9=1.3499        
C11-O12=1.1959       C11-N13=1.4676       O12-C11=1.1959       N13-C5=1.3897        N13-C11=1.4676       N13-C14=1.3252       
C14-N13=1.3252       C14-H23=1.0726       C14-H24=1.0783       H15-C1=1.0921        H16-C1=1.0958        H17-C1=1.0912        
H18-C3=1.0951        H19-C10=1.0881       H20-C10=1.0889       H21-C10=1.0905       H22-C6=0.3835        H23-C14=1.0726       
H24-C14=1.0783       H25-N4=1.0107        
 C  H  Rav=1.0176 sigma=0.2115  Rmin=0.3835  Rmax=1.0958    10
 C  C  Rav=1.4434 sigma=0.0506  Rmin=1.3928  Rmax=1.4940     2
 N  H  Rav=1.0107 sigma=0.0000  Rmin=1.0107  Rmax=1.0107     1
 N  C  Rav=1.3803 sigma=0.0581  Rmin=1.2579  Rmax=1.4676    10
 O  C  Rav=1.2010 sigma=0.0052  Rmin=1.1959  Rmax=1.2062     2

 selected bond angles (degree)
 --------------------
H15-C1-N2=108.42               H16-C1-N2=113.65               H16-C1-H15=109.39              H17-C1-N2=108.40               
H17-C1-H15=107.31              H17-C1-H16=109.47              C3-N2-C1=127.52                N4-C3-N2=122.97                
H18-C3-N2=123.95               H18-C3-N4=113.07               C5-N4-C3=125.35                H25-N4-C3=116.10               
H25-N4-C5=118.33               C6-C5-N4=119.38                N13-C5-N4=116.22               N13-C5-C6=124.40               
C7-C6-C5=114.92                H22-C6-C5=127.15               H22-C6-C7=117.92               O8-C7-C6=121.23                
N9-C7-C6=118.27                N9-C7-O8=120.46                C10-N9-C7=117.96               C11-N9-C7=125.99               
C11-N9-C10=116.05              H19-C10-N9=108.04              H20-C10-N9=109.61              H20-C10-H19=110.75             
H21-C10-N9=110.02              H21-C10-H19=109.77             H21-C10-H20=108.65             

 selected dihedral angles (degree)
 ---------------------------------
C3-N2-C1-H15=234.69           C3-N2-C1-H16=356.55           C3-N2-C1-H17=118.50           N4-C3-N2-C1=181.51            
H18-C3-N2-C1=  0.46           C5-N4-C3-N2=356.55            C5-N4-C3-H18=177.50           H25-N4-C3-N2=181.99           
H25-N4-C3-H18=  2.94          C6-C5-N4-C3=351.36            C6-C5-N4-H25=165.81           N13-C5-N4-C3=171.23           
N13-C5-N4-H25=345.68          C7-C6-C5-N4=181.43            C7-C6-C5-N13=  1.57           H22-C6-C5-N4=359.92           
H22-C6-C5-N13=180.06          O8-C7-C6-C5=184.04            O8-C7-C6-H22=  5.41           N9-C7-C6-C5=  6.24            
N9-C7-C6-H22=187.60           C10-N9-C7-C6=174.27           C10-N9-C7-O8=356.45           C11-N9-C7-C6=354.68           
C11-N9-C7-O8=176.86           H19-C10-N9-C7= 13.30          H19-C10-N9-C11=192.93         H20-C10-N9-C7=134.07          
H20-C10-N9-C11=313.70         H21-C10-N9-C7=253.48          H21-C10-N9-C11= 73.10         
           -------------------------------------------------
          |                Final Singlepoint                |
           -------------------------------------------------

          ...................................................
          :                      SETUP                      :
          :.................................................:
          :  # basis functions                  67          :
          :  # atomic orbitals                  67          :
          :  # shells                           39          :
          :  # electrons                        74          :
          :  max. iterations                   250          :
          :  Hamiltonian                  GFN2-xTB          :
          :  restarted?                      false          :
          :  GBSA solvation                  false          :
          :  PC potential                    false          :
          :  electronic temp.         5000.0000000     K    :
          :  accuracy                    1.0000000          :
          :  -> integral cutoff          0.2500000E+02      :
          :  -> integral neglect         0.1000000E-07      :
          :  -> SCF convergence          0.1000000E-05 Eh   :
          :  -> wf. convergence          0.1000000E-03 e    :
          :  Broyden damping             0.4000000          :
          ...................................................

 iter      E             dE          RMSdq      gap      omega  full diag
   1    -42.6902077 -0.426902E+02  0.506E-05    1.13       0.0  T
   2    -42.6902077 -0.109637E-10  0.300E-05    1.13     667.4  T
   3    -42.6902077 -0.575540E-12  0.195E-05    1.13    1023.5  T

   *** convergence criteria satisfied after 3 iterations ***

         #    Occupation            Energy/Eh            Energy/eV
      -------------------------------------------------------------
         1        2.0000           -0.8995235             -24.4773
       ...           ...                  ...                  ...
        31        1.9940           -0.6085932             -16.5607
        32        1.9917           -0.6034587             -16.4209
        33        1.9888           -0.5986321             -16.2896
        34        1.9532           -0.5757000             -15.6656
        35        1.9263           -0.5682938             -15.4641
        36        1.8772           -0.5598091             -15.2332
        37        1.6914           -0.5435685             -14.7913 (HOMO)
        38        0.5740           -0.5022201             -13.6661 (LUMO)
        39        0.0061           -0.4249870             -11.5645
        40        0.0009           -0.3944204             -10.7327
        41        0.0002           -0.3735047             -10.1636
        42        0.0000           -0.3069771              -8.3533
       ...           ...                  ...                  ...
        67                         14.3557281             390.6392
      -------------------------------------------------------------
                  HL-Gap            0.0413483 Eh            1.1251 eV
             Fermi-level           -0.5166290 Eh          -14.0582 eV

 SCC (total)                   0 d,  0 h,  0 min,  0.023 sec
 SCC setup                      ...        0 min,  0.000 sec (  0.871%)
 Dispersion                     ...        0 min,  0.000 sec (  0.819%)
 classical contributions        ...        0 min,  0.000 sec (  0.320%)
 integral evaluation            ...        0 min,  0.004 sec ( 19.490%)
 iterations                     ...        0 min,  0.005 sec ( 20.446%)
 molecular gradient             ...        0 min,  0.013 sec ( 57.481%)
 printout                       ...        0 min,  0.000 sec (  0.525%)

         :::::::::::::::::::::::::::::::::::::::::::::::::::::
         ::                     SUMMARY                     ::
         :::::::::::::::::::::::::::::::::::::::::::::::::::::
         :: total energy             -73.339511195446 Eh    ::
         :: gradient norm              0.003353272205 Eh/a0 ::
         :: HOMO-LUMO gap              1.125145182803 eV    ::
         ::.................................................::
         :: SCC energy               -42.690207708272 Eh    ::
         :: -> isotropic ES            0.134060788193 Eh    ::
         :: -> anisotropic ES         -0.003580600419 Eh    ::
         :: -> anisotropic XC          0.016849081970 Eh    ::
         :: -> dispersion             -0.021311979932 Eh    ::
         :: repulsion energy           2.825179786614 Eh    ::
         :: add. restraining         -33.474481815550 Eh    ::
         :: total charge               1.000000000441 e     ::
         :::::::::::::::::::::::::::::::::::::::::::::::::::::

           -------------------------------------------------
          |                Property Printout                |
           -------------------------------------------------

    * Orbital Energies and Occupations

         #    Occupation            Energy/Eh            Energy/eV
      -------------------------------------------------------------
         1        2.0000           -0.8995235             -24.4773
       ...           ...                  ...                  ...
        25        1.9998           -0.6657624             -18.1163
        26        1.9998           -0.6611610             -17.9911
        27        1.9996           -0.6521063             -17.7447
        28        1.9995           -0.6469881             -17.6054
        29        1.9991           -0.6394531             -17.4004
        30        1.9986           -0.6312744             -17.1779
        31        1.9940           -0.6085932             -16.5607
        32        1.9917           -0.6034587             -16.4209
        33        1.9888           -0.5986321             -16.2896
        34        1.9532           -0.5757000             -15.6656
        35        1.9263           -0.5682938             -15.4641
        36        1.8772           -0.5598091             -15.2332
        37        1.6914           -0.5435685             -14.7913 (HOMO)
        38        0.5740           -0.5022201             -13.6661 (LUMO)
        39        0.0061           -0.4249870             -11.5645
        40        0.0009           -0.3944204             -10.7327
        41        0.0002           -0.3735047             -10.1636
        42        0.0000           -0.3069771              -8.3533
        43                         -0.2151872              -5.8555
        44                         -0.1767008              -4.8083
        45                         -0.1617953              -4.4027
        46                         -0.0725905              -1.9753
        47                         -0.0624913              -1.7005
        48                         -0.0400059              -1.0886
       ...                                ...                  ...
        67                         14.3557281             390.6392
      -------------------------------------------------------------
                  HL-Gap            0.0413483 Eh            1.1251 eV
             Fermi-level           -0.5166290 Eh          -14.0582 eV

     #   Z          covCN         q      C6AA      α(0)
     1   6 C        3.701    -0.053    21.682     6.659
     2   7 N        1.829    -0.129    24.564     7.344
     3   6 C        2.773     0.117    25.408     8.256
     4   7 N        2.701    -0.102    23.252     7.162
     5   6 C        2.882     0.115    25.462     8.272
     6   6 C        2.900    -0.158    32.100     9.290
     7   6 C        2.786     0.268    22.475     7.765
     8   8 O        0.859    -0.306    19.884     5.979
     9   7 N        2.735    -0.063    22.462     7.039
    10   6 C        3.710    -0.067    21.923     6.691
    11   6 C        2.736     0.317    21.618     7.612
    12   8 O        0.859    -0.331    20.343     6.047
    13   7 N        2.737     0.012    21.039     6.812
    14   6 C        2.805    -0.027    28.659     8.770
    15   1 H        0.924     0.115     1.656     2.012
    16   1 H        0.924     0.083     1.944     2.181
    17   1 H        0.924     0.114     1.666     2.018
    18   1 H        0.924     0.078     2.004     2.214
    19   1 H        0.925     0.123     1.586     1.970
    20   1 H        0.925     0.108     1.716     2.049
    21   1 H        0.924     0.106     1.735     2.060
    22   1 H        0.990     0.204     1.075     1.620
    23   1 H        0.926     0.111     1.691     2.033
    24   1 H        0.926     0.152     1.378     1.836
    25   1 H        0.860     0.213     1.042     1.599

 Mol. C6AA /au·bohr⁶  :       6648.349807
 Mol. C8AA /au·bohr⁸  :     153229.444644
 Mol. α(0) /au        :        125.290359


Wiberg/Mayer (AO) data.
largest (>0.10) Wiberg bond orders for each atom

 ---------------------------------------------------------------------------
     #   Z sym  total        # sym  WBO       # sym  WBO       # sym  WBO
 ---------------------------------------------------------------------------
     1   6 C    3.906 --     2 N    1.067    16 H    0.933    15 H    0.932
                            17 H    0.931
     2   7 N    2.986 --     3 C    1.744     1 C    1.067
     3   6 C    3.931 --     2 N    1.744     4 N    1.166    18 H    0.913
     4   7 N    3.467 --     3 C    1.166     5 C    1.145    25 H    0.915
     5   6 C    3.903 --     6 C    1.505     4 N    1.145    13 N    1.093
     6   6 C    3.755 --     5 C    1.505     7 C    1.048    22 H    0.927
     7   6 C    3.919 --     8 O    1.726     9 N    1.059     6 C    1.048
     8   8 O    1.994 --     7 C    1.726     9 N    0.108
     9   7 N    3.549 --    11 C    1.204     7 C    1.059    10 C    0.963
                            12 O    0.155     8 O    0.108
    10   6 C    3.888 --     9 N    0.963    19 H    0.961    20 H    0.961
                            21 H    0.954
    11   6 C    3.935 --    12 O    1.730     9 N    1.204    13 N    0.913
    12   8 O    2.063 --    11 C    1.730     9 N    0.155
    13   7 N    3.614 --    14 C    1.419     5 C    1.093    11 C    0.913
    14   6 C    3.447 --    13 N    1.419    23 H    0.958    24 H    0.948
    15   1 H    0.966 --     1 C    0.932
    16   1 H    0.939 --     1 C    0.933
    17   1 H    0.968 --     1 C    0.931
    18   1 H    0.950 --     3 C    0.913
    19   1 H    0.980 --    10 C    0.961
    20   1 H    0.979 --    10 C    0.961
    21   1 H    0.975 --    10 C    0.954
    22   1 H    0.957 --     6 C    0.927
    23   1 H    0.986 --    14 C    0.958
    24   1 H    0.976 --    14 C    0.948
    25   1 H    0.953 --     4 N    0.915
 ---------------------------------------------------------------------------

Topologies differ in total number of bonds
Writing topology from bond orders to xtbtopo.mol

molecular dipole:
                 x           y           z       tot (Debye)
 q only:        1.426      -1.829      -0.296
   full:        1.664      -2.495      -0.352       7.675
molecular quadrupole (traceless):
                xx          xy          yy          xz          yz          zz
 q only:       22.100      -8.921      -3.447       0.514       3.676     -18.653
  q+dip:       19.820     -12.019      -2.526       0.252       3.134     -17.294
   full:       19.247     -12.162      -4.306       0.108       2.357     -14.941

           -------------------------------------------------
          |                Geometry Summary                 |
           -------------------------------------------------

      molecular mass/u    :      195.1988581
   center of mass at/Å    :       -0.2013082       0.0003271       0.0222207
  moments of inertia/u·Å² :        0.4214794E+03   0.1051137E+04   0.1459858E+04
rotational constants/cm⁻¹ :        0.3999634E-01   0.1603752E-01   0.1154745E-01

 * 23 selected distances

     #   Z          #   Z                                           value/Å
     1   6 C        2   7 N                                       1.4034960
     2   7 N        3   6 C                                       1.2579023
     3   6 C        4   7 N                                       1.3693236
     4   7 N        5   6 C                                       1.3798392
     5   6 C        6   6 C                                       1.3928385
     7   6 C        8   8 O                                       1.2061803
     7   6 C        9   7 N                                       1.4022619
     9   7 N       10   6 C                                       1.4573537 (max)
     9   7 N       11   6 C                                       1.3498991
    11   6 C       12   8 O                                       1.1958520
     5   6 C       13   7 N                                       1.3897206
    13   7 N       14   6 C                                       1.3252327
     1   6 C       15   1 H                                       1.0921407
     1   6 C       16   1 H                                       1.0958165
     1   6 C       17   1 H                                       1.0911603
     3   6 C       18   1 H                                       1.0950889
    10   6 C       19   1 H                                       1.0880718
    10   6 C       20   1 H                                       1.0889255
    10   6 C       21   1 H                                       1.0905234
     6   6 C       22   1 H                                       0.3834775 (min)
    14   6 C       23   1 H                                       1.0725809
    14   6 C       24   1 H                                       1.0782534
     4   7 N       25   1 H                                       1.0106918

 * 5 distinct bonds (by element types)

   Z      Z             #   av. dist./Å        max./Å        min./Å
   1 H    6 C          10     1.0176039     1.0958165     0.3834775
   6 C    6 C           1     1.3928385     1.3928385     1.3928385
   1 H    7 N           1     1.0106918     1.0106918     1.0106918
   6 C    7 N           9     1.3705588     1.4573537     1.2579023
   6 C    8 O           2     1.2010162     1.2061803     1.1958520


optimized geometry written to: xtbopt.xyz


           -------------------------------------------------
          | TOTAL ENERGY              -73.339511195446 Eh   |
          | GRADIENT NORM               0.003353272205 Eh/α |
          | HOMO-LUMO GAP               1.125145182803 eV   |
           -------------------------------------------------

------------------------------------------------------------------------
 * finished run on 2024/06/05 at 19:58:12.322     
------------------------------------------------------------------------
 total:
 * wall-time:     0 d,  0 h,  0 min,  2.824 sec
 *  cpu-time:     0 d,  0 h,  0 min,  2.803 sec
 * ratio c/w:     0.993 speedup
 SCF:
 * wall-time:     0 d,  0 h,  0 min,  0.037 sec
 *  cpu-time:     0 d,  0 h,  0 min,  0.037 sec
 * ratio c/w:     1.000 speedup
 ANC optimizer:
 * wall-time:     0 d,  0 h,  0 min,  2.758 sec
 *  cpu-time:     0 d,  0 h,  0 min,  2.754 sec
 * ratio c/w:     0.999 speedup

