25
 energy: -42.247916538127 gnorm: 0.001719468160 xtb: 6.6.1 (8d0f1dd)
C            3.21837994621255        1.13840470360417        0.01686295887191
N            2.27390085382338        0.05296430288983       -0.00083512918813
C            2.54418370867336       -1.24388304181835       -0.00788053608892
N            1.39183534114091       -1.95326304657645       -0.00723348646083
C            0.35404126548307       -1.06846925140360        0.00016990265951
C            0.90920015012267        0.20088202776794        0.00475035833666
C            0.08116147157556        1.39525760869659       -0.00346274424582
O            0.48669773608148        2.53240804493379       -0.01701389593192
N           -1.27112615391463        1.06618302132017        0.00158784532309
C           -2.22866410179035        2.16537173891234       -0.00023701263850
C           -1.84628961872096       -0.19243585558302        0.00369288968381
O           -3.03255126866293       -0.35812707717336        0.00638634524322
N           -0.96713763729335       -1.29962615554198        0.00080235869318
C           -1.52502092393502       -2.63780889350596       -0.00352755001832
H            3.71538338338869        1.19173043388659        0.98651187108579
H            3.97247514526406        0.99871595204209       -0.75641570924288
H            2.68049012992944        2.07047571799333       -0.15382529461863
H            3.52295005065861       -1.68245439360973       -0.00992855852496
H           -1.67329076563288        3.09960249229709        0.00762992088682
H           -2.85654846548756        2.10522695324826       -0.88854237973997
H           -2.86835902918729        2.09614125727874        0.87886238827714
H           -1.21298222111084       -3.18574171916318        0.88569292596645
H           -1.22506689210898       -3.17520759986343       -0.90337115411527
H           -2.60980758925372       -2.53656026158653        0.00420076796058
H            1.32657699884102       -2.96154841744458       -0.01370546427272
