25
 energy: -42.080412813229 gnorm: 0.041446424128 xtb: 6.6.1 (8d0f1dd)
C            2.55076932141252        1.22324829315483       -0.32204404889370
N            1.68206388990550        0.08357196345237       -0.05707610837757
C            2.26403410718644       -1.11954192997792       -0.17756821981804
N            1.73401941420891       -2.37878937226940       -0.13629305388145
C            0.46665589553030       -2.83054498290770       -0.15310129464567
C            0.40303862867928        0.37479170206492        0.32948519722336
C            0.12853312328709        2.02768229158209        0.90892015671858
O            0.99361004040103        2.34730966170210        1.67937520239438
N           -0.89197103355586        2.60429073985214        0.43396582535616
C           -1.97670504960003        2.28087612637637       -0.36905404763626
C           -0.63211267304807       -0.57624794992869        0.52273651418386
O           -1.71728400904342       -0.29060285064514        0.99593284064031
N           -0.54899895162038       -2.02165050687969        0.04691792673927
C           -1.87058411839662       -2.61673869756411       -0.02987744616867
H            2.85378938058411        1.68849327053298        0.61978013245431
H            3.43538972003663        0.91748226362989       -0.87543109223849
H            2.01269236072971        1.96873754130363       -0.90665449970862
H            3.32508071133416       -1.09794803217033       -0.37921541863413
H           -2.45334874810571        3.22116779404989       -0.66390813383369
H           -1.69550092468834        1.72919023671594       -1.27476132520382
H           -2.70879153520387        1.68899464886961        0.19541540961853
H           -2.33751678029026       -2.62986355047113        0.96030761721717
H           -1.77752401140791       -3.63451971801473       -0.40746656477851
H           -2.50966533161241       -2.02698957816528       -0.69265676193193
H            2.43075808737791       -3.11416082268652       -0.21655718889681
25
 energy: -42.087162255519 gnorm: 0.039845489797 xtb: 6.6.1 (8d0f1dd)
C            2.55328492193066        1.23318237484593       -0.32756249007295
N            1.68978075424787        0.08917324443192       -0.07145864230534
C            2.28051688164357       -1.10491604479009       -0.17868855385937
N            1.73584549902634       -2.35033138455560       -0.12348732006510
C            0.46169738011740       -2.77028913789139       -0.13077097960310
C            0.40579431428792        0.36214594228393        0.30460044958900
C            0.12596210902894        1.94185911860842        0.91017562528755
O            0.99900876275720        2.25353975729441        1.67572747425701
N           -0.88144784146159        2.54645488226385        0.43726453969242
C           -1.97382803554941        2.26239498403166       -0.37185789598226
C           -0.64493987697287       -0.55701562586059        0.52026587900969
O           -1.72502107220670       -0.25696142642790        0.99583897724823
N           -0.56511951857201       -1.98717971395817        0.05518055227677
C           -1.87679790975944       -2.60376612579281       -0.02481802786070
H            2.84845161008618        1.69736473942798        0.61735580691687
H            3.44198596705877        0.92883827076374       -0.87480169362583
H            2.01430127609929        1.97669220513469       -0.91363461353040
H            3.34110011851143       -1.08875676316364       -0.37965281123282
H           -2.43267254569987        3.21623784476725       -0.65427057176072
H           -1.70253452304822        1.71861818366463       -1.28571301055537
H           -2.71812815488668        1.67861224542636        0.18571524401201
H           -2.34602244416530       -2.62142690451254        0.96211202940554
H           -1.76929829733873       -3.62044228528428       -0.39821487978390
H           -2.52005920344702       -2.02618173688544       -0.69098650660932
H            2.41857134241297       -3.09960810221619       -0.20714696294934
25
 energy: -42.093120220621 gnorm: 0.031308003862 xtb: 6.6.1 (8d0f1dd)
C            2.55456069561543        1.25157115103408       -0.33703525052858
N            1.70241180553157        0.10070367049125       -0.08095186437024
C            2.30825703291189       -1.08110432678485       -0.17605061645418
N            1.73805557220531       -2.30939114755586       -0.10435343838367
C            0.45443232278846       -2.67540295168349       -0.10021447087378
C            0.40888346268421        0.34576222967001        0.28858780950203
C            0.14929389855046        1.80716785079047        0.87318319367400
O            0.99245556154508        2.11072261580921        1.69233290899695
N           -0.86566062821188        2.45063598229941        0.43785506136352
C           -1.96864813444893        2.23371553540334       -0.38034663669238
C           -0.66621768215780       -0.53307247082505        0.52243417079941
O           -1.73695876630268       -0.21477256877802        1.00974464080105
N           -0.59193463459295       -1.93426133564248        0.06587869772810
C           -1.88866546532178       -2.58456176400380       -0.01795888805883
H            2.84943891420681        1.71385586267782        0.60878220769379
H            3.44383974789477        0.94745177893998       -0.88273372053908
H            2.01207430001114        1.99393552193867       -0.92087436432635
H            3.36690813968627       -1.07265160459878       -0.38249575340252
H           -2.40090139010090        3.21134485234062       -0.62937358127253
H           -1.71408647936660        1.71499495466453       -1.31490149410775
H           -2.72900319587927        1.65433616402104        0.16125132903077
H           -2.35872799589966       -2.60828264582098        0.96614208218930
H           -1.75748020528743       -3.59917093952302       -0.38645145299868
H           -2.53734856951599       -2.02259736022342       -0.68881035537413
H            2.39545320755517       -3.08269051303461       -0.19246859649764
25
 energy: -42.093961068425 gnorm: 0.018402570799 xtb: 6.6.1 (8d0f1dd)
C            2.55658339825628        1.25902773077497       -0.34977529537590
N            1.70982877108872        0.10311357644766       -0.09331218242681
C            2.31796445607299       -1.07859061771850       -0.18340299030473
N            1.73963967186305       -2.30647186859307       -0.09841511472480
C            0.45653004031014       -2.66525714722865       -0.09057938025026
C            0.41298261686842        0.34549492085755        0.28127362919313
C            0.13719908779446        1.76588407805271        0.89115428818132
O            0.96518156289781        2.08437139759973        1.73130499336745
N           -0.87092710026965        2.43001150452682        0.45159081547183
C           -1.96212771015267        2.23088303746617       -0.38333142461725
C           -0.66920165817825       -0.53154167894368        0.50996959254112
O           -1.73482355847240       -0.20544234555011        1.00549834835159
N           -0.59702559530518       -1.92937794002609        0.06403836036253
C           -1.89343202777747       -2.58121279015738       -0.01353246751625
H            2.85563420411076        1.72077182711117        0.59528415184269
H            3.44409699608024        0.96034578222255       -0.90100167023518
H            2.00973222819270        2.00258166307006       -0.92839439684963
H            3.37707812000452       -1.07325415655620       -0.38812303908308
H           -2.37773686793515        3.21589907713396       -0.62724759881063
H           -1.70628007697526        1.71806774939951       -1.32095923068265
H           -2.73663664187998        1.65591267768685        0.14380493278848
H           -2.36267862028461       -2.59680249770101        0.97161790030374
H           -1.75866714250353       -3.59731188057963       -0.37492537668078
H           -2.54322647744061       -2.02401182600497       -0.68821045995803
H            2.39074383773530       -3.08485173168433       -0.17315476698935
25
 energy: -42.094536852951 gnorm: 0.009090836628 xtb: 6.6.1 (8d0f1dd)
C            2.54573566348812        1.26724006666053       -0.35415804559349
N            1.70985792339342        0.10145938896134       -0.10072257676342
C            2.32060899816135       -1.07979394672413       -0.19055172152212
N            1.74073178735204       -2.31102600672080       -0.09406746941874
C            0.46174889098350       -2.67624056431376       -0.08512480278732
C            0.41219023367768        0.34136184297543        0.28465581538225
C            0.14298374025010        1.75383003422761        0.89062842913293
O            0.95670125867351        2.08586186738684        1.74615719729466
N           -0.86871898063580        2.43274399848198        0.46369528820439
C           -1.94871177465920        2.23994269596276       -0.38183805331316
C           -0.67067272121619       -0.54549359678708        0.50062081793439
O           -1.73606633480645       -0.21242283572903        0.99261428807599
N           -0.59812287786458       -1.94037841361852        0.05800485672968
C           -1.89638622791830       -2.58818501859293       -0.01172605365125
H            2.84521498405701        1.72859274596085        0.59135794455313
H            3.43359646332281        0.98053749233547       -0.91211369884213
H            1.99120123377210        2.00971049386616       -0.92747208964918
H            3.37963218504105       -1.07375438113251       -0.39679852821550
H           -2.35651292277694        3.22773568705566       -0.61929393779833
H           -1.69098733801668        1.73397528316422       -1.32327165357707
H           -2.73139241936686        1.66285053000157        0.13100583532819
H           -2.36481370525176       -2.59084468358168        0.97497094925709
H           -1.76341853314341       -3.60709348057071       -0.36414022403711
H           -2.54583636880086       -2.03349306757975       -0.69007816448241
H            2.39186835638497       -3.08887759008344       -0.15118278434288
25
 energy: -42.094781220117 gnorm: 0.005664738652 xtb: 6.6.1 (8d0f1dd)
C            2.53491934374005        1.27021528370434       -0.35631892460421
N            1.70702562351747        0.09973253313139       -0.10104278115370
C            2.31838028138282       -1.08060723363027       -0.19464435552165
N            1.74146300913064       -2.31478617872075       -0.09080544523090
C            0.46639083502513       -2.69111804123157       -0.08128402332058
C            0.41070811783064        0.33947176832474        0.29401726409374
C            0.14205376623293        1.74816375410119        0.89763923999697
O            0.95795788665266        2.09485098330044        1.74394095379929
N           -0.86658119091478        2.44251595950886        0.47638943490655
C           -1.93790817337023        2.25417330655462       -0.37904484920654
C           -0.67086043916053       -0.55797301421447        0.49275117124856
O           -1.73970813320308       -0.21973013889154        0.97458129490096
N           -0.59553236609919       -1.95142727303142        0.05263215270719
C           -1.89452456204866       -2.59802979781046       -0.01128472893165
H            2.83499138042127        1.73149004675247        0.58903306365367
H            3.42210194711631        0.99092145671288       -0.91979027542552
H            1.97221455246783        2.00998828719163       -0.92564303099311
H            3.37586548869999       -1.07261184580777       -0.40880963581654
H           -2.33936410874312        3.24398673360603       -0.61720059064675
H           -1.67523095484338        1.74809958932733       -1.31922495276621
H           -2.72919394965434        1.67851695602979        0.12279391630188
H           -2.36370003741134       -2.58939975752173        0.97564186948470
H           -1.76428541903293       -3.62076887069002       -0.35406918422236
H           -2.54357668134661       -2.04766689282862       -0.69422051029040
H            2.39682529771112       -3.08976907226103       -0.13486545506480
