25
 energy: 0.000000000000 xtb: 6.6.1 (8d0f1dd)
C            3.23720163006194        1.16630919979326        0.08434469647475
N            2.29877817382611        0.07527477071623        0.03981603040599
C            2.58028210190900       -1.21425402444508        0.03006176031096
N            1.43813958087363       -1.93419271955128        0.00098261760884
C            0.39035688448383       -1.05887472636071       -0.00790371836672
C            0.93510056364412        0.21347819449412        0.01709077491437
C            0.09450143893243        1.40504303904423       -0.00410947031874
O            0.49712751527797        2.54126714362870       -0.00342325688240
N           -1.25076640035757        1.06271879480407       -0.03085478223738
C           -2.21907211982101        2.15522099834493       -0.05001256985998
C           -1.81739487048744       -0.20012725993278       -0.04692818574614
O           -2.99983886758376       -0.37846417018721       -0.07008878229737
N           -0.92618586207120       -1.30210215599479       -0.03682761578324
C           -1.46982264913417       -2.64643102187190       -0.06029820460571
H            3.71247264356769        1.21471455160235        1.06488849150277
H            4.00791497605742        1.03430808813993       -0.67357694370751
H            2.69910007168542        2.09770118228144       -0.09130154882931
H            3.56654120610678       -1.63682992603973        0.04233140067262
H           -1.67107961066214        3.09322851271934       -0.02552706933167
H           -2.82428953597071        2.09428624779827       -0.95318082946668
H           -2.87644029173232        2.07745725625962        0.81450067533302
H           -1.17061996399332       -3.19584890659852        0.83242232437030
H           -1.14560257411436       -3.17511610292205       -0.95688275822323
H           -2.55549792440841       -2.55659984320617       -0.07459039797972
H            1.38130855184625       -2.94313852034425       -0.01389874181052
25
 energy: -1.092800139739 xtb: 6.6.1 (8d0f1dd)
C            3.28500900969806        1.16931379202369        0.05491197662376
N            2.30941895961255        0.10748569112813        0.01389130670574
C            2.58956221532709       -1.22087381506932        0.02372006557750
N            1.41843425001859       -1.92883488294907       -0.00106030319515
C            0.38638548307691       -1.04697145117056       -0.01025101404774
C            0.92283859483688        0.23411343021750        0.00684128116649
C            0.07918112837357        1.40055176064076       -0.00298037366186
O            0.46616121607427        2.56881989495278        0.00183320220393
N           -1.28271689246696        1.04984805782221       -0.02956510598401
C           -2.25151944117410        2.14054454593694       -0.04763956447396
C           -1.83981791529468       -0.20412517284613       -0.04707678149606
O           -3.03540779905274       -0.39269583968322       -0.06948952180802
N           -0.94455421067866       -1.29917578184272       -0.03602808471855
C           -1.47956939706107       -2.64410802698807       -0.05609937928196
H            3.77319578722129        1.19589489701955        1.00633598186333
H            4.21488132406813        1.03286122127405       -0.57221714876935
H            2.74070789800635        2.10775541272648       -0.09311577375822
H            3.56608152408783       -1.64572978343195        0.03887307794092
H           -1.69980841927584        3.07763845181796       -0.02299998092498
H           -2.85845613932469        2.08401492648396       -0.95108301822703
H           -2.90969800189709        2.06592650050438        0.81754880368666
H           -1.17813106783142       -3.19227736890523        0.83851016989218
H           -1.14885613868137       -3.17806530175332       -0.94916075105623
H           -2.56576443349212       -2.55994810273889       -0.07351831375038
H            1.35465713376550       -2.93293445299786       -0.01314685435969
25
 energy: 13.512314430225 xtb: 6.6.1 (8d0f1dd)
C            3.36158913919178        1.16109354649544        0.02095674252577
N            2.32570973026541        0.14481993721860       -0.03111507082181
C            2.58939404276931       -1.21747709208675        0.01153022618947
N            1.39380975744459       -1.90805465485331       -0.00428149344821
C            0.38033386053826       -1.02387093681581       -0.01492605613809
C            0.91146452174638        0.26724413570943       -0.01335635066915
C            0.05625414733557        1.39703694116476       -0.00373181542194
O            0.40661334602506        2.58817735414463        0.01241695411457
N           -1.32725498796851        1.03793484311973       -0.02805437438499
C           -2.30140166594367        2.12245216019118       -0.04412043684022
C           -1.86469471452937       -0.20892381771483       -0.04658680592959
O           -3.06416905474578       -0.41486414693982       -0.06895627305505
N           -0.96398983556423       -1.29022990633659       -0.03424052231150
C           -1.48886407027670       -2.63862266834329       -0.04900073834009
H            3.85441792434958        1.16002852351421        0.95719336067112
H            4.47825625481674        1.01305161709818       -0.44370337982316
H            2.82859261753248        2.11238228860971       -0.10860025698604
H            3.55600013384813       -1.64648705660142        0.03191558771120
H           -1.75186871850313        3.06135489491908       -0.01933994801424
H           -2.91179301353205        2.06634429245698       -0.94657968258844
H           -2.96150534230044        2.04641862760466        0.82066478374090
H           -1.19078318486197       -3.18512495708720        0.84938553561329
H           -1.15300303528043       -3.18172110804462       -0.93646326245162
H           -2.57659387134849       -2.56357701506975       -0.07235305521819
H            1.32570068692777       -2.91035720018113       -0.01161977197670
25
 energy: 25.736253010972 xtb: 6.6.1 (8d0f1dd)
C            3.44253470425842        1.14122429413001        0.00619037059884
N            2.34415564893531        0.16660543981569       -0.06644765829736
C            2.58247486274953       -1.20722286715145       -0.00347359819548
N            1.38083977033165       -1.88541535962427       -0.00826362267066
C            0.37569432084149       -0.99997364677620       -0.02165766010391
C            0.91063489447809        0.29699410647639       -0.03260339488387
C            0.03359177362366        1.40863107016610       -0.00600827819845
O            0.34968943677920        2.60779236992610        0.02157141242213
N           -1.36151149859467        1.03667536968832       -0.02824146468620
C           -2.35040573499883        2.10774865597212       -0.04299644603341
C           -1.88451677197727       -0.21294373291449       -0.04739523913513
O           -3.08238408062090       -0.43519267242552       -0.07011421564671
N           -0.97226472392011       -1.27970272638376       -0.03347896535622
C           -1.49168749134542       -2.63197432110037       -0.04086643090893
H            3.91292245352396        1.11029933615879        0.95200791110461
H            4.65107360748524        0.98260455943566       -0.37968858472798
H            2.94187842490767        2.11283917384809       -0.11402892965939
H            3.54522875522143       -1.64347859130500        0.02307356874534
H           -1.81369366980721        3.05327561731588       -0.01785807346669
H           -2.96345119751982        2.04429988639913       -0.94409206307338
H           -3.01224490624026        2.02289267780137        0.82055940754692
H           -1.20141681064963       -3.17328684326312        0.86341089136436
H           -1.15316341474398       -3.18311761075942       -0.92245866506040
H           -2.58083228440047       -2.56220478517406       -0.07113449026508
H            1.30906859961923       -2.88834079808394       -0.00897188526562
25
 energy: 30.370615093318 xtb: 6.6.1 (8d0f1dd)
C            3.47998944473883        1.12737647054338        0.00411989255827
N            2.35299661881125        0.17253643583047       -0.08401644410520
C            2.57577714740591       -1.19856487500682       -0.01445293201333
N            1.37856470220439       -1.87318995108463       -0.01069663698712
C            0.37271460661725       -0.98700491148598       -0.02626881575891
C            0.91119840133310        0.31110330020573       -0.04277087820585
C            0.02310519146246        1.41955264210721       -0.00841150444162
O            0.32100087813702        2.61664475395229        0.02595378046221
N           -1.37487780335432        1.03875575586208       -0.02955574398177
C           -2.37343833423579        2.10139051579845       -0.04383378059679
C           -1.89326393250955       -0.21487588045552       -0.04776039186835
O           -3.08819400257030       -0.44340922959359       -0.07094779771413
N           -0.97330471328169       -1.27409371308216       -0.03317036680387
C           -1.49055603047382       -2.62850687996838       -0.03523915878365
H            3.93312284434130        1.07061470630014        0.95492783978469
H            4.72057824801719        0.96928416741231       -0.36211597158087
H            3.00121772624247        2.11062678582069       -0.10667630844495
H            3.53881617714593       -1.63806021199147        0.01756967907332
H           -1.84868578446039        3.05307004351991       -0.01855248727579
H           -2.98763881392812        2.03081490444441       -0.94404307765313
H           -3.03554538635409        2.00902317780672        0.81923638455492
H           -1.20613355018125       -3.16444908833434        0.87371280959421
H           -1.15035413489601       -3.18380318527175       -0.91287712706729
H           -2.58015153560836       -2.55892894255881       -0.07010025120766
H            1.30527670333291       -2.87687818859825       -0.00699681539000
25
 energy: 30.585752496279 xtb: 6.6.1 (8d0f1dd)
C            3.48321439633612        1.12445438963706        0.00621308888981
N            2.35478252117123        0.17167986023202       -0.08929427705363
C            2.57284378405072       -1.19489065795277       -0.01829195760837
N            1.37975927148712       -1.87023399802381       -0.01042629584654
C            0.37148735477378       -0.98408303492315       -0.02740537627133
C            0.91114004732221        0.31350322837839       -0.04550633195483
C            0.02266032038812        1.42349981495737       -0.01026963838768
O            0.31479711764639        2.61824083353358        0.02761278975606
N           -1.37501927135654        1.03913083710803       -0.03089581809543
C           -2.37546590644320        2.10022104746465       -0.04485187446019
C           -1.89440273574413       -0.21559936213362       -0.04789485248853
O           -3.08792250682413       -0.44379654259474       -0.07098826725230
N           -0.97253052887849       -1.27330291601822       -0.03279094615114
C           -1.48963905169984       -2.62821330188038       -0.03345329069927
H            3.93534221451834        1.05312988003219        0.95505472409361
H            4.72620222972217        0.97218900514605       -0.36591419889808
H            3.00858754220058        2.10876745724127       -0.09759278736630
H            3.53681452907259       -1.63477097671126        0.01805225302950
H           -1.85415049861352        3.05341247739971       -0.01960766484686
H           -2.98985681431542        2.02801917377533       -0.94482944663467
H           -3.03721696941457        2.00635426028128        0.81840094569782
H           -1.20720274188763       -3.16213235755524        0.87694224139560
H           -1.14846295776634       -3.18435103613891       -0.90966217802922
H           -2.57925677892758       -2.55807917088287       -0.07001357038786
H            1.30571010111834       -2.87412030819989       -0.00555337428288
25
 energy: 30.477249564352 xtb: 6.6.1 (8d0f1dd)
C            3.48111197188639        1.12428651306035        0.00891747678113
N            2.35611082501763        0.17068754150710       -0.09566074649821
C            2.57064732461248       -1.19206414423432       -0.02143998803778
N            1.38090938081945       -1.86850864657458       -0.00891679847356
C            0.37049796262904       -0.98250877555700       -0.02777306493261
C            0.91072467970764        0.31476645278804       -0.04809854391262
C            0.02423955069337        1.42626521265814       -0.01217621926949
O            0.31118460795801        2.61993001147858        0.02931443009746
N           -1.37355189997445        1.03851859243385       -0.03242101377024
C           -2.37444110470133        2.09946979904711       -0.04616113581315
C           -1.89467295283406       -0.21636930727405       -0.04788670187307
O           -3.08738918569708       -0.44348034141264       -0.07073650420846
N           -0.97190928076954       -1.27347562855494       -0.03189572178525
C           -1.48901048984345       -2.62865441268497       -0.03215450691668
H            3.93784218835268        1.03544780243959        0.95344651806356
H            4.72440030959962        0.97964969211220       -0.37358938170236
H            3.00745964423413        2.10858191163848       -0.08542656281817
H            3.53526129858828       -1.63223735116986        0.02138679174396
H           -1.85448636841662        3.05315762860839       -0.02096682426486
H           -2.98897204221043        2.02706013775703       -0.94600234235269
H           -3.03588786662992        2.00567107381751        0.81735468406654
H           -1.20784019786779       -3.16149902180749        0.87898165234695
H           -1.14689883161016       -3.18509387248173       -0.90746057747552
H           -2.57859697727015       -2.55818761335793       -0.06995109201891
H            1.30548212166258       -2.87238465206480       -0.00364993082865
25
 energy: 30.634955880785 xtb: 6.6.1 (8d0f1dd)
C            3.47865393482133        1.12540214090888        0.01045564643095
N            2.35672777617331        0.17072825972882       -0.10069583323483
C            2.57023320997207       -1.19131865023807       -0.02305208327892
N            1.38116501068152       -1.86808449637068       -0.00746164001075
C            0.37021712680335       -0.98226858254606       -0.02756381371020
C            0.91024865346539        0.31519067012352       -0.04976528331543
C            0.02561412898238        1.42684144505402       -0.01299314959688
O            0.31046338991315        2.62074211522806        0.02972292035195
N           -1.37303852620789        1.03788680770017       -0.03316740581960
C           -2.37358746416997        2.09929577532983       -0.04692794313133
C           -1.89469803862422       -0.21664004609135       -0.04773956694858
O           -3.08743188720352       -0.44343899144164       -0.07041056687498
N           -0.97192123420068       -1.27388606390048       -0.03100595875286
C           -1.48892496764887       -2.62907540101134       -0.03157436333517
H            3.94005744512059        1.02611931897737        0.95142296067835
H            4.72410094392143        0.98542713450237       -0.37782644657106
H            3.00418897095365        2.10952466150712       -0.07749152732112
H            3.53476900550505       -1.63167416872099        0.02454496038683
H           -1.85327337322019        3.05282365436750       -0.02178342121109
H           -2.98816480463215        2.02722068307749       -0.94674175614107
H           -3.03495809303758        2.00607908094151        0.81671663230685
H           -1.20791477304266       -3.16199029845187        0.87955387117164
H           -1.14654346631481       -3.18544197276432       -0.90683163293092
H           -2.57847626606449       -2.55858272366259       -0.06960050733871
H            1.30470796599015       -2.87185175007520       -0.00275019565574
25
 energy: 31.114956760594 xtb: 6.6.1 (8d0f1dd)
C            3.47578119794017        1.12694591332021        0.01194552454447
N            2.35688766167623        0.17125957696387       -0.10637086468184
C            2.57052216446768       -1.19117688086832       -0.02465696186895
N            1.38120576259654       -1.86800702034271       -0.00573613065038
C            0.37018524795166       -0.98258231436258       -0.02710689197407
C            0.90955841530897        0.31526254496014       -0.05138818647541
C            0.02672531086914        1.42664042400489       -0.01358125009759
O            0.31080973972380        2.62099928689423        0.02922905850036
N           -1.37326993166729        1.03744421898527       -0.03367172173881
C           -2.37317313423033        2.09945646842233       -0.04753612566375
C           -1.89470155813809       -0.21663577388132       -0.04749764891778
O           -3.08768903176993       -0.44366864546320       -0.07001214269451
N           -0.97216138400198       -1.27434709785186       -0.02992415206329
C           -1.48902193169165       -2.62942559000769       -0.03104177300422
H            3.94208646976938        1.01805204072084        0.94897233327059
H            4.72667223528651        0.99120536901015       -0.38075738717740
H            3.00020082646032        2.11095316131135       -0.07005048514287
H            3.53469447019332       -1.63151034092868        0.02797997065551
H           -1.85187719363500        3.05258232250019       -0.02251608035433
H           -2.98773522347466        2.02774680762236       -0.94735093015032
H           -3.03448330872181        2.00692394530086        0.81621806960358
H           -1.20770017414405       -3.16282849767251        0.87978770816594
H           -1.14671152430991       -3.18557673110571       -0.90660913843495
H           -2.57854920671516       -2.55901514797388       -0.06884316647634
H            1.30395876819246       -2.87166943738618       -0.00244773102633
25
 energy: 31.658250899693 xtb: 6.6.1 (8d0f1dd)
C            3.47406616766415        1.12770711076909        0.01267113170974
N            2.35636671128744        0.17176432642131       -0.10898091918735
C            2.57097267194907       -1.19128756091022       -0.02552637617758
N            1.38117688494758       -1.86812725238832       -0.00475111879144
C            0.37025878330862       -0.98309473196157       -0.02675230698625
C            0.90905137701579        0.31496653108179       -0.05190938256394
C            0.02674362757402        1.42616566598226       -0.01380856159520
O            0.31149678306221        2.62066309633291        0.02839004680136
N           -1.37392887239282        1.03750801845015       -0.03370938900665
C           -2.37340537466772        2.09976393040950       -0.04766457444854
C           -1.89472978374545       -0.21645080098467       -0.04736567834738
O           -3.08786708518636       -0.44397104626541       -0.06988286209181
N           -0.97237196934741       -1.27451675395001       -0.02936318897079
C           -1.48918004432643       -2.62948791889252       -0.03078484515470
H            3.94276320857589        1.01490527825700        0.94749254698021
H            4.73092626179706        0.99347939388199       -0.38114891439625
H            2.99828543407623        2.11180864382365       -0.06725570400668
H            3.53490944016668       -1.63130573198763        0.02952550573466
H           -1.85144654249125        3.05261026995179       -0.02277972261511
H           -2.98792179483905        2.02814707212663       -0.94749000808925
H           -3.03467231559455        2.00751909034241        0.81612770951059
H           -1.20745729567887       -3.16325224834025        0.87977886909580
H           -1.14710440934910       -3.18548223301678       -0.90665765591086
H           -2.57871937979326       -2.55920204053739       -0.06823677877624
H            1.30400218392385       -2.87180150642365       -0.00288392656903
25
 energy: 32.517935883294 xtb: 6.6.1 (8d0f1dd)
C            3.47196538836556        1.12828038138401        0.01325516536081
N            2.35513753132110        0.17234223205403       -0.11036118459868
C            2.57137956788279       -1.19131216719680       -0.02640531030286
N            1.38112017632661       -1.86833120941356       -0.00378388240231
C            0.37025557343412       -0.98380908039795       -0.02635472213154
C            0.90844210417523        0.31436540242337       -0.05188273520100
C            0.02607542408557        1.42555723376824       -0.01404521724807
O            0.31230492753098        2.61999055520124        0.02730878899515
N           -1.37482489094939        1.03781501190186       -0.03352883189832
C           -2.37391864466029        2.10016130367356       -0.04761256800108
C           -1.89483236358028       -0.21620383805818       -0.04728172620198
O           -3.08803711589526       -0.44431128667643       -0.06992681118380
N           -0.97262908231260       -1.27458255391501       -0.02894193366153
C           -1.48943930979906       -2.62946859858110       -0.03057406768664
H            3.94328542368704        1.01264027084588        0.94570594668940
H            4.73829218659828        0.99481667813750       -0.38087105760330
H            2.99664184954074        2.11266418001738       -0.06570913968312
H            3.53521028375444       -1.63069589792695        0.03068843722997
H           -1.85142723792175        3.05277286793375       -0.02290483456500
H           -2.98837808292050        2.02853708772769       -0.94745345746450
H           -3.03514249409325        2.00809932354128        0.81619167311014
H           -1.20723959306845       -3.16350071112358        0.87973398766268
H           -1.14763836242868       -3.18531115983246       -0.90674313713865
H           -2.57900625213074       -2.55938431734061       -0.06762513226674
H            1.30461766099413       -2.87210310597508       -0.00384435366175
25
 energy: 33.920505627456 xtb: 6.6.1 (8d0f1dd)
C            3.46880417881324        1.12882233085628        0.01371985665651
N            2.35314676208432        0.17297431504600       -0.11016598546567
C            2.57143524522069       -1.19106165308820       -0.02738301127329
N            1.38093681795377       -1.86857816364532       -0.00278492281395
C            0.36996599339513       -0.98462338382806       -0.02596796038463
C            0.90764774384856        0.31352823843848       -0.05138990540680
C            0.02472505530550        1.42492318290081       -0.01438993547514
O            0.31291928945043        2.61906641892170        0.02621343304965
N           -1.37572910145930        1.03820334874980       -0.03315920490901
C           -2.37452291916581        2.10053549040238       -0.04743136445819
C           -1.89511664445376       -0.21603240131713       -0.04723634884001
O           -3.08828587805173       -0.44456020873750       -0.07011657481960
N           -0.97302939421855       -1.27461259507661       -0.02868205236509
C           -1.48986157215254       -2.62949706873919       -0.03040978496592
H            3.94438296619332        1.01043151933341        0.94275745637342
H            4.75046076759335        0.99591491857112       -0.38057233900083
H            2.99455067196193        2.11362489516544       -0.06464578403628
H            3.53535896930580       -1.62949728772900        0.03195637155603
H           -1.85171739454237        3.05299977621484       -0.02291473496677
H           -2.98893127072026        2.02885907290603       -0.94729546939958
H           -3.03572083492798        2.00861307745884        0.81636462408674
H           -1.20718997479314       -3.16360267969516        0.87971405284032
H           -1.14823283224824       -3.18519406017331       -0.90678017737603
H           -2.57945622580807       -2.55969399360399       -0.06713084825422
H            1.30567424935200       -2.87251448715956       -0.00523549420437
25
 energy: 40.000039071586 xtb: 6.6.1 (8d0f1dd)
C            3.45501010349252        1.13123896590589        0.01509458843121
N            2.34572310611049        0.17517135510233       -0.10745989592171
C            2.57049746833521       -1.18956555081285       -0.03090195730540
N            1.37983111974427       -1.86934073864071        0.00059649328939
C            0.36812964720382       -0.98725151201974       -0.02504260716611
C            0.90435466643272        0.31071653659012       -0.05019030756505
C            0.01962241971700        1.42298195670703       -0.01596669204686
O            0.31388754470719        2.61593247582101        0.02295691855357
N           -1.37846833923710        1.03911249409790       -0.03184999594423
C           -2.37630428151138        2.10155847089419       -0.04673429612926
C           -1.89662650447576       -0.21593116759480       -0.04701530096902
O           -3.08958534465926       -0.44511060065092       -0.07052773766882
N           -0.97490628900359       -1.27497991479079       -0.02806633040901
C           -1.49166621073068       -2.63005433034757       -0.02987042932391
H            3.95026630664354        1.00074525411480        0.92900646168064
H            4.80338799907041        1.00161210897127       -0.38024509818163
H            2.98470170071110        2.11738773375546       -0.05963696916405
H            3.53500920798922       -1.62449924953765        0.03781122245957
H           -1.85265107044667        3.05361889320056       -0.02283966681269
H           -2.99059536487604        2.02981683217732       -0.94666274200487
H           -3.03737297454506        2.01023851101580        0.81709433940791
H           -1.20747442016522       -3.16400867379683        0.87982139820594
H           -1.15028423612414       -3.18527993978859       -0.90667605098637
H           -2.58131903698787       -2.56126226689856       -0.06567659887268
H            1.30904745054155       -2.87381904130261       -0.00998484940925
25
 energy: 57.246420829304 xtb: 6.6.1 (8d0f1dd)
C            3.40736619597544        1.14017117108522        0.02029985922252
N            2.32189238861363        0.18273900394822       -0.10412465685046
C            2.56763336289709       -1.18455084112331       -0.04323363858661
N            1.37618553583982       -1.87156473612029        0.01283007664061
C            0.36210882891471       -0.99601454297466       -0.02213939576049
C            0.89273449571363        0.30176940730443       -0.04882017512902
C            0.00414849031786        1.41656969383545       -0.02176046697140
O            0.31696105968573        2.60589571338381        0.01205059551160
N           -1.38809744411164        1.04176310816457       -0.02810346269591
C           -2.38217691789750        2.10510529958596       -0.04467959058691
C           -1.90159961109833       -0.21556722293907       -0.04600690361945
O           -3.09407315399100       -0.44736090501996       -0.07104592230628
N           -0.98131062471633       -1.27659875977612       -0.02535876264891
C           -1.49756486721389       -2.63213533282632       -0.02762853251515
H            3.96949389317265        0.96302195702280        0.88145565986924
H            4.98236615592754        1.02430771194698       -0.37810140605812
H            2.94959885430994        2.13064847778048       -0.03878652655305
H            3.53365136137824       -1.60806338838796        0.05905776665424
H           -1.85483171338723        3.05546235152763       -0.02293618101483
H           -2.99612926469063        2.03337031703501       -0.94473506029706
H           -3.04254724692148        2.01608714481364        0.81946644475647
H           -1.20806700300633       -3.16596043034454        0.88044639610450
H           -1.15719230248749       -3.18575005754513       -0.90612306378312
H           -2.58739683558664       -2.56664043928947       -0.06009345929112
H            1.31906103029849       -2.87767609891529       -0.02489569794400
25
 energy: 68.992071444718 xtb: 6.6.1 (8d0f1dd)
C            3.27963046411854        1.15795499424120        0.03472535634809
N            2.26245720978400        0.19472082293055       -0.07462141460603
C            2.56037672055400       -1.17491769189720       -0.06259870656409
N            1.36682652833958       -1.87822872063375        0.03839410126601
C            0.34944727871806       -1.01639221905544       -0.01777979781743
C            0.86818269831279        0.27860239547453       -0.04177788937087
C           -0.02864053772361        1.40363714081251       -0.03023012722899
O            0.32904751355721        2.58321694443125       -0.00360618659379
N           -1.40407531842650        1.04971437460465       -0.01914593712050
C           -2.39102211018789        2.11292073685969       -0.03886765771248
C           -1.90810372335728       -0.21316420966658       -0.04510484539538
O           -3.09963351258233       -0.44944608039445       -0.07155951961983
N           -0.99324954460210       -1.27932987743972       -0.02296197690109
C           -1.50751536883695       -2.63566132761345       -0.02571677988977
H            4.00127215795460        0.91274215975328        0.76812040904380
H            5.37348624212628        1.05107580094476       -0.36459738286708
H            2.86705842979316        2.15970788105968       -0.01625818254764
H            3.52920899487441       -1.57545855987085        0.08903660649527
H           -1.85652411183933        3.05997628639369       -0.02053163332632
H           -3.00300513107991        2.03977868651114       -0.93971924122435
H           -3.04927018911578        2.02500427031402        0.82565266705414
H           -1.20728375141572       -3.16837791242574        0.87974027886088
H           -1.16759163313161       -3.18593184561560       -0.90723057189742
H           -2.59723064030845       -2.57586416657572       -0.05233996469203
H            1.33836600241111       -2.88725128097036       -0.05398770754579
25