25
 energy: -41.983636208311 gnorm: 0.001865027539 xtb: 6.6.1 (8d0f1dd)
C            2.62325943187003        1.48252419984661        0.88526170818850
N            1.74066915933743        0.57864050917523        0.79718626452004
C            4.12213101648608       -2.06109445188295       -1.17645634890402
N            1.15692974188424       -2.04075455240320        0.35796695522397
C           -0.40686987127737       -0.42111397344721        0.16523973448215
C            0.47155497530720        0.64660859874433        0.42815615690661
C           -0.30660653306269        1.90550915865397        0.30262065593210
O            0.10136532527847        3.03555974362555        0.43225785256164
N           -1.59396596540758        1.52358301673841       -0.02326763377188
C           -2.67692386322976        2.44627953650794       -0.23093698690483
C           -1.73252095851289        0.14531461581042       -0.12560402334729
O           -2.76730587031769       -0.41647408890288       -0.41533808401959
N           -0.06710407616127       -1.73544516419149        0.16457766716397
C           -1.08160441796678       -2.75440688760441       -0.01916148630556
H            3.56909110851693        1.23065357723102        1.34175777610055
H            4.53194130490705       -1.13002340558655       -1.51161126197530
H            2.47628965148126        2.50216521913956        0.52377337159720
H            4.52895620910536       -3.05072785360019       -1.22002469916820
H           -2.26289182993504        3.44757742839815       -0.34542593525518
H           -3.23630926742892        2.15804270095793       -1.12267880390330
H           -3.36004581974681        2.43163747214525        0.62279637611711
H           -1.28013249913254       -3.24808843227297        0.93600346190666
H           -0.72505020102483       -3.50361652884306       -0.72825716320908
H           -2.00969379487968       -2.31515968248621       -0.38486830323125
H            1.34526855801515       -3.03895221415442        0.37720436719742
