25
 energy: -44.217764397925 gnorm: 5.612698046327 xtb: 6.6.1 (8d0f1dd)
C            3.21786164340000        1.13591514650000        0.01837059260000
N            2.27034809790000        0.05199982890000        0.00038279530000
C            2.54167221030000       -1.23971668410000       -0.00834188300000
N            1.39367826450000       -1.95088267900000       -0.00850347120000
C            0.35269634020000       -1.06748964300000        0.00059917290000
C            0.90759959010000        0.20069750900000        0.00663590170000
C            0.07590235260000        1.39864294500000       -0.00284827040000
O            0.48715076820000        2.53168346660000       -0.01725767220000
N           -1.27221500230000        1.06666939660000        0.00165480230000
C           -2.23229981500000        2.16656245330000       -0.00245172030000
C           -1.84872931540000       -0.19179276200000        0.00496135950000
O           -3.03273030250000       -0.36103538130000        0.00858583760000
N           -0.96599111670000       -1.30060631840000        0.00174701630000
C           -1.52030655580000       -2.64076660390000       -0.00239033190000
H            3.71480285180000        1.18589984860000        0.98803183970000
H            3.97079415090000        0.99383197990000       -0.75543416370000
H            2.68321036910000        2.07051068580000       -0.15067179540000
H            3.52469367910000       -1.66989040330000       -0.01523639120000
H           -1.67672429040000        3.10039111610000        0.00486339690000
H           -2.85755792270000        2.10547813320000       -0.89185337000000
H           -2.87119733260000        2.09858159720000        0.87661144540000
H           -1.20589108080000       -3.18768007210000        0.88663215920000
H           -1.21982032550000       -3.17678505510000       -0.90288069810000
H           -2.60531402170000       -2.54255916880000        0.00649952960000
H            1.32879827740000       -2.95942079410000       -0.01653446370000
25
 energy: -53.306001923139 gnorm: 12.285550322925 xtb: 6.6.1 (8d0f1dd)
C            3.21724012738595        1.13616801377049        0.01838024021187
N            2.27233921240267        0.04704189310213        0.00033509195518
C            2.54363137542167       -1.24021325945234       -0.00835211815573
N            1.39332407275479       -1.94105271009000       -0.00842021485696
C            0.35130262343157       -1.07713668798929        0.00054012919370
C            0.95439769087035       -0.16206973939456        0.00384600944433
C            0.07918455198662        1.39048040151742       -0.00280452773620
O            0.48774794416593        2.53051487584384       -0.01723977093907
N           -1.27210229798380        1.06662221321135        0.00165581615654
C           -2.23220755152400        2.16655666837044       -0.00245070919935
C           -1.84860796283685       -0.19178048536973        0.00495942593177
O           -3.03281831878566       -0.36101810297450        0.00858568744160
N           -0.96648558595679       -1.30063721219988        0.00174980491203
C           -1.52038680701692       -2.64073894889825       -0.00238889266341
H            3.71479548005798        1.18591140044774        0.98802221409001
H            3.97077720849471        0.99385521852805       -0.75541900143198
H            2.68316270542972        2.07050842588924       -0.15067589255526
H            3.52477538337061       -1.66995142871699       -0.01523668814316
H           -1.67671442456507        3.10040308534762        0.00486219975061
H           -2.85756662534550        2.10547905156848       -0.89185757781231
H           -2.87120648422147        2.09858310147684        0.87661383422251
H           -1.20589068401667       -3.18768093937296        0.88663200898306
H           -1.21981941047664       -3.17678677529334       -0.90287837164624
H           -2.60532194519000       -2.54256329471415        0.00649988594205
H            1.27688123624682       -2.58225622300766       -0.01378696519558
25
 energy: -67.633026920156 gnorm: 19.578112970646 xtb: 6.6.1 (8d0f1dd)
C            3.21650995616938        1.13649173624110        0.01839520869878
N            2.27431971391925        0.04266426106746        0.00029924939588
C            2.54573221306579       -1.24113787856664       -0.00836480860516
N            1.40141668801501       -1.89859708009663       -0.00805718665277
C            0.34225349075119       -1.09628575823141        0.00045127951899
C            1.01140107453326       -0.53398079434013        0.00097259949193
C            0.08118516799872        1.38443584629051       -0.00277970944561
O            0.48813858984468        2.52865540725753       -0.01721393855329
N           -1.27152738746470        1.06667659395452        0.00165527298302
C           -2.23226057043987        2.16651273898312       -0.00245085641549
C           -1.84849836091987       -0.19212092627788        0.00495774134104
O           -3.03280828101500       -0.36107711905163        0.00858428440473
N           -0.96752298192052       -1.30082162845828        0.00175119810565
C           -1.52037041702963       -2.64080405821221       -0.00238763842899
H            3.71470493167561        1.18600773306549        0.98801496702248
H            3.97067583254993        0.99395757515927       -0.75540996675267
H            2.68306426697752        2.07059543678067       -0.15068120713803
H            3.52491602595521       -1.67005676369869       -0.01523747309107
H           -1.67684050123499        3.10035067231978        0.00486049801656
H           -2.85763989196655        2.10537747916442       -0.89186139407678
H           -2.87128059445073        2.09848254663099        0.87661334933580
H           -1.20578974201550       -3.18773893690300        0.88663603200727
H           -1.21971761227477       -3.17684596646798       -0.90288091554884
H           -2.60523401962303       -2.54267109385436        0.00649947348108
H            1.21560392299961       -2.21983148115601       -0.01119444119449
25
 energy: -87.423142497895 gnorm: 25.062609115694 xtb: 6.6.1 (8d0f1dd)
C            3.21534376919201        1.13838797453700        0.01844232827962
N            2.27483047511713        0.04237483746670        0.00028080713417
C            2.55041305468834       -1.24089448500136       -0.00836464447227
N            1.51796164037728       -1.70251320414689       -0.00611550183175
C            0.30284201293694       -1.12851394870362        0.00042810969667
C            1.09518558241388       -0.89292136989285       -0.00187163060348
C            0.08130053997116        1.38151245943156       -0.00277125563568
O            0.48698776037143        2.52811881156935       -0.01720921155264
N           -1.27193744959551        1.06580851873221        0.00164309903811
C           -2.23359539278104        2.16530622112191       -0.00246932079146
C           -1.84851647141260       -0.19279189418363        0.00494520084508
O           -3.03258868946071       -0.36282345511886        0.00856520001172
N           -0.96784817137347       -1.30201075651933        0.00174739688097
C           -1.51909315003459       -2.64180891566901       -0.00239170473275
H            3.71397268252299        1.18790367980643        0.98804446835583
H            3.97002878380455        0.99596858767469       -0.75540253697212
H            2.68188698592466        2.07197807501189       -0.15067421027346
H            3.52586452128743       -1.66847613787113       -0.01521710809247
H           -1.67854791340629        3.09938027647251        0.00484233161928
H           -2.85880725988705        2.10378581069061       -0.89189051371883
H           -2.87245572011334        2.09688891821618        0.87659522134926
H           -1.20415189564556       -3.18846640000244        0.88664084597835
H           -1.21807402521349       -3.17758488066264       -0.90288777267689
H           -2.60392472902978       -2.54414420103095        0.00648805570307
H            1.05335457344562       -2.01622598032834       -0.01022603563833
25
 energy: -113.662655901595 gnorm: 25.599552490126 xtb: 6.6.1 (8d0f1dd)
C            3.21575112106260        1.13701556619825        0.01845676755360
N            2.27577190263459        0.03982569873846        0.00023558099643
C            2.56023503840512       -1.24109719592019       -0.00841429181006
N            1.56928797431526       -1.70880948244614       -0.00595324975409
C            0.24724153723867       -1.14135719931906        0.00059033981369
C            1.11997323370755       -1.25021232162608       -0.00484147909632
C            0.08283369678804        1.37910596803780       -0.00275881239486
O            0.48859067666976        2.52712764734220       -0.01719623780577
N           -1.27113860853923        1.06638375838943        0.00165271429310
C           -2.23248895013033        2.16662339743431       -0.00244932521557
C           -1.84885381721881       -0.19111677205352        0.00495685332470
O           -3.03282447324186       -0.36119980980849        0.00858469234568
N           -0.97029110502914       -1.30169153331185        0.00175420207827
C           -1.52061007600607       -2.64104138094822       -0.00238638848854
H            3.71463312735266        1.18596495956432        0.98802546348056
H            3.97055986639923        0.99388931515039       -0.75543179054854
H            2.68303886610280        2.07059317968668       -0.15069054208871
H            3.52553880070762       -1.67052300156808       -0.01524706865517
H           -1.67682909390710        3.10034785829123        0.00485995496916
H           -2.85763051695720        2.10540356250203       -0.89187294804219
H           -2.87127229214331        2.09851166126277        0.87662291268518
H           -1.20583053771677       -3.18776116623479        0.88665172932363
H           -1.21975755403460       -3.17686848535346       -0.90289404705667
H           -2.60527350105173       -2.54267693392064        0.00650001399837
H            1.01977619869226       -1.63819874848734       -0.00758342600591
25
 energy: -119.178921991771 gnorm: 13.869109748569 xtb: 6.6.1 (8d0f1dd)
C            3.21823448056956        1.13117925145228        0.01840195888370
N            2.27628915334245        0.03936631403883        0.00021109348676
C            2.57379089551117       -1.24202493151474       -0.00850679650918
N            1.71218876887881       -1.80506552199755       -0.00603436219202
C            0.17461527560868       -1.13687930372325        0.00094516671509
C            1.01778248050842       -1.54573088338226       -0.00758130208414
C            0.08359787095410        1.38315621870458       -0.00278483556293
O            0.49325039933663        2.52604684973942       -0.01719072183864
N           -1.26862423134532        1.06883978747206        0.00168556929792
C           -2.22842015891321        2.17109483538759       -0.00238999442675
C           -1.84945025690694       -0.18702324968659        0.00500019536924
O           -3.03357078362609       -0.35534049102284        0.00865195922820
N           -0.97610566156330       -1.29958575201047        0.00177828808459
C           -1.52560530332593       -2.63811611406491       -0.00236116405377
H            3.71703259831816        1.17925788166656        0.98796759851226
H            3.97257052417845        0.98670608485321       -0.75552824791708
H            2.68709459289290        2.06579376220464       -0.15073953955713
H            3.52348907492538       -1.67704682817012       -0.01533304804995
H           -1.67088952313559        3.10372336527513        0.00491095350577
H           -2.85355439057208        2.11098393803833       -0.89181261754007
H           -2.86717187210729        2.10411202730786        0.87670630233085
H           -1.21161250490610       -3.18528502115790        0.88667592449690
H           -1.22555694861758       -3.17435945422148       -0.90288434488292
H           -2.60989647778309       -2.53759677339433        0.00654870945205
H            1.03095351187783       -1.26796745019404       -0.00516512684874
25
 energy: -104.003342431165 gnorm: 324.632070800676 xtb: 6.6.1 (8d0f1dd)
C            3.21840217282157        1.12919757051846        0.01835361243268
N            2.27958491050657        0.03762491149464        0.00021996004457
C            2.60485141206530       -1.22824882011511       -0.00858986916129
N            1.87214994454302       -1.88561495974969       -0.00569696542632
C            0.10829598072403       -1.11876198124263        0.00146332059835
C            0.93007101321636       -1.39382387213227       -0.00715607698463
C            0.08512851791469        1.37978793683064       -0.00278417305478
O            0.49520859985318        2.52303872671400       -0.01714683684713
N           -1.26653545265065        1.06939123720500        0.00170035227603
C           -2.22715925639115        2.17259898887190       -0.00236594416092
C           -1.85007956294909       -0.18617059977254        0.00501407499027
O           -3.03430087236960       -0.35333974669998        0.00867236970140
N           -0.98979281265582       -1.29893417251377        0.00180261136261
C           -1.52779316414718       -2.63730312625243       -0.00235626227050
H            3.71779931058652        1.17722935611563        0.98797111302284
H            3.97326334714808        0.98457088647721       -0.75555720743516
H            2.68827498789993        2.06429788958717       -0.15075370197003
H            3.52483922365922       -1.67898852478078       -0.01537150881765
H           -1.66912258509826        3.10480266569225        0.00493455939214
H           -2.85230229586261        2.11268557237320       -0.89180643200350
H           -2.86591313210878        2.10581631845273        0.87675297687802
H           -1.21336331425032       -3.18450447460989        0.88665700079496
H           -1.22731173594552       -3.17356460656479       -0.90286974751117
H           -2.61141264982080       -2.53614138401465        0.00655718363153
H            0.99764892741131       -1.36740725028429       -0.00647279158233
25
 energy: -118.956288436303 gnorm: 21.000404959549 xtb: 6.6.1 (8d0f1dd)
C            3.21964995372134        1.12537523519635        0.01829911200645
N            2.28122662151103        0.03560728051850        0.00021370361879
C            2.61953596709148       -1.22261210710628       -0.00867233686951
N            1.95345063607321       -1.93431721661070       -0.00558728270028
C            0.07898104801013       -1.10540954394987        0.00172339205815
C            0.81207015215275       -1.26264930730810       -0.00695633922694
C            0.08683356073833        1.37913652701168       -0.00277094832705
O            0.49848345626827        2.52129134696012       -0.01709875101018
N           -1.26447888290880        1.07088988824702        0.00173582530659
C           -2.22450425483906        2.17544242755632       -0.00230004329359
C           -1.85038808560617       -0.18410072855385        0.00504284065271
O           -3.03495808204725       -0.34948131363498        0.00871425552314
N           -0.99829821454269       -1.29755677800002        0.00181353580722
C           -1.53116553174491       -2.63539560223857       -0.00236751488030
H            3.71933307041815        1.17299717023566        0.98794037383128
H            3.97457455503119        0.98008144447138       -0.75559466443452
H            2.69080106141982        2.06123530499599       -0.15075783477267
H            3.52416594868335       -1.68296583226904       -0.01544696318166
H           -1.66539881558270        3.10697186446087        0.00500564477453
H           -2.84971760779715        2.11621555411144       -0.89172970600442
H           -2.86331111962206        2.10933985866257        0.87682253999955
H           -1.21699595384866       -3.18293801957483        0.88662789740338
H           -1.23095720388730       -3.17195556207651       -0.90288600228688
H           -2.61438588898227       -2.53297775550341        0.00656251088484
H            1.04588512438996       -1.47398559400174       -0.00716162697862
25
 energy: -119.172750816429 gnorm: 20.136594742090 xtb: 6.6.1 (8d0f1dd)
C            3.21956154616611        1.12761271527729        0.01840006023935
N            2.27801183359206        0.04679180579486        0.00026736155733
C            2.62923424558874       -1.20716331468809       -0.00871433765398
N            1.84239523811606       -1.87961609025040       -0.00556550247684
C           -0.02226675468672       -1.08887161559251        0.00287281579301
C            1.01698463565959       -1.58636067236445       -0.01032798588180
C            0.08005969149371        1.39298496286863       -0.00281407358936
O            0.49549264653601        2.52316799595212       -0.01705352131421
N           -1.26551209991209        1.06975293203198        0.00175944767451
C           -2.22645554477271        2.17363775147349       -0.00226702885051
C           -1.85106552301381       -0.18547184398819        0.00501769831780
O           -3.03490378788677       -0.35180841259398        0.00867714047963
N           -1.00743451467225       -1.29887232766734        0.00179395809803
C           -1.52911353808062       -2.63693762091566       -0.00244737382417
H            3.71831666605779        1.17574369308807        0.98803334530246
H            3.97371561801033        0.98304273343080       -0.75557794386288
H            2.68922728493682        2.06322070964257       -0.15066612785147
H            3.52708655402364       -1.68026343155631       -0.01546161987387
H           -1.66791469543669        3.10559220085687        0.00507098007755
H           -2.85140442683568        2.11391498136103       -0.89169512368084
H           -2.86500754620760        2.10697574356931        0.87684165931982
H           -1.21457098467039       -3.18396745872927        0.88653262694399
H           -1.22852244389756       -3.17295428651749       -0.90299149699809
H           -2.61250105980979       -2.53510844959849        0.00646621093540
H            1.06701847380180       -1.25680415928484       -0.00497955098087
25
 energy: -119.269644219184 gnorm: 46.579367792248 xtb: 6.6.1 (8d0f1dd)
C            3.22074660695992        1.12482129259440        0.01828455762596
N            2.27877093006089        0.05282006307863        0.00033120805172
C            2.66550672073092       -1.18364284399535       -0.00874353120636
N            1.91643655645003       -1.94310368181104       -0.00508365926365
C           -0.10339127715936       -1.06354435780125        0.00393731258641
C            0.97298875875215       -1.45388271985687       -0.00834084059173
C            0.07727413167504        1.40082952629608       -0.00296117166462
O            0.49727812397315        2.52161655218328       -0.01717849288869
N           -1.26346079284599        1.07051833736517        0.00169841023297
C           -2.22485165007951        2.17564272130450       -0.00238149046071
C           -1.85299669298253       -0.18359284380498        0.00503018785243
O           -3.03614548584259       -0.34898601923251        0.00869623879942
N           -1.04186350871864       -1.30157423809897        0.00187189061925
C           -1.53231429037219       -2.63624367006120       -0.00231319284266
H            3.71937774004333        1.17299254192050        0.98802275175361
H            3.97466726902619        0.98000358946311       -0.75567588257280
H            2.69096534322277        2.06118974203112       -0.15077957939784
H            3.53017400816269       -1.68281950548919       -0.01540121696526
H           -1.66548719298287        3.10703895339866        0.00490735626845
H           -2.84967886387865        2.11620548884629       -0.89183096925651
H           -2.86328758716951        2.10937360279160        0.87675178037706
H           -1.21696191532843       -3.18281419472375        0.88666212944852
H           -1.23090409304103       -3.17188303547217       -0.90279404546830
H           -2.61463513698019       -2.53316813502127        0.00659621602030
H            1.11222381242443       -1.38955862430479       -0.00813434915699
25
 energy: -120.680590841957 gnorm: 26.423191247099 xtb: 6.6.1 (8d0f1dd)
C            3.21824297905155        1.12486243996974        0.01757770543778
N            2.29066978658053        0.04116076344702        0.00039431663844
C            2.72147714702291       -1.13810581620826       -0.00800932204184
N            1.96214661392014       -2.03667570840988       -0.00325397941885
C           -0.02302840244842       -1.02664949484449        0.00539002214205
C            0.92703351966712       -1.44329806007878        0.00991001445047
C            0.08562157497339        1.37481660387204       -0.00379696965459
O            0.50027276416158        2.51316978218670       -0.01865233712877
N           -1.25966868824594        1.07001687942702        0.00090210511827
C           -2.22451507408690        2.17616104710585       -0.00393082156803
C           -1.85869365996939       -0.18346621644236        0.00496416805925
O           -3.03909152205606       -0.34727220839117        0.00865799006336
N           -1.14338846708518       -1.31750988160999        0.00246404418254
C           -1.53626893958962       -2.63797675253475       -0.00084610854734
H            3.71956562477149        1.17351244521029        0.98754381602129
H            3.97510402426320        0.97954468653519       -0.75605930359873
H            2.69094225350347        2.06101297753661       -0.15195108978336
H            3.54076151226058       -1.68275506533147       -0.01424593449047
H           -1.66546352049409        3.10731412771921        0.00281651435915
H           -2.84945587831256        2.11580673003749       -0.89342123524530
H           -2.86318703275134        2.11006782832504        0.87522985125526
H           -1.21706122133583       -3.18195170839063        0.88837532587261
H           -1.23088022598337       -3.17213174201270       -0.90086534142845
H           -2.61552653864196       -2.53369159727675        0.00792727738820
H            1.05482288492469       -1.32772351824095       -0.02594909018294
25
 energy: -118.779274133719 gnorm: 22.831617572425 xtb: 6.6.1 (8d0f1dd)
C            3.21823096116242        1.12323558649088        0.01531442031879
N            2.29873426363095        0.05346926273003        0.00080141445628
C            2.82395316395905       -1.05747777804767       -0.00505165719505
N            2.00877807093909       -2.17581143618962        0.00242125722549
C            0.11760289324556       -0.96117613583431        0.00919800924062
C            0.90496106690226       -1.53129178233675        0.07910184772804
C            0.07969116428260        1.37951044889623       -0.00732712235545
O            0.50338249040580        2.50626150905974       -0.02445262533223
N           -1.25415854278462        1.06960921530330       -0.00207295582526
C           -2.22376603358254        2.17819055594595       -0.00963614685944
C           -1.87287263780780       -0.17864801400530        0.00477493146143
O           -3.04599580296790       -0.34257509852063        0.00853158730192
N           -1.37133114781504       -1.35841358793193        0.00465798732883
C           -1.54601450654339       -2.64202959540851        0.00456568258894
H            3.72045485383508        1.17375484157282        0.98573962467835
H            3.97651728148167        0.97570443650872       -0.75774730325285
H            2.69249941726112        2.05925371838798       -0.15627104449282
H            3.56300650601903       -1.68474633000545       -0.00995815781063
H           -1.66382450341488        3.10864921183784       -0.00488122311689
H           -2.84785103705607        2.11556916870977       -0.89917553116082
H           -2.86201886673546        2.11388721450533        0.86955932516349
H           -1.21885371617599       -3.17864173761422        0.89492263131273
H           -1.23223322375030       -3.17289283432531       -0.89391788907738
H           -2.61876798420301       -2.53363765725450        0.01287404509136
H            1.01030738381237       -1.22151464087438       -0.09079948951746
25
 energy: -121.463384572409 gnorm: 8.574325706359 xtb: 6.6.1 (8d0f1dd)
C            3.21905567360076        1.12397005517186        0.01659306279988
N            2.29797159961040        0.05898288877116        0.00067546489855
C            2.80864978584064       -1.07447296100926       -0.00717549515519
N            2.02881130764395       -2.15264133672034       -0.00021579729683
C           -0.02086712866105       -0.94500922839705        0.00666562354752
C            0.93828247155648       -1.50975782949274        0.03562427674108
C            0.07659599201808        1.38642725260447       -0.00524722369597
O            0.50305578761438        2.50435968346043       -0.02072571606177
N           -1.25348408616280        1.06945970316692       -0.00018151396546
C           -2.22353095571627        2.17810988570267       -0.00601343148593
C           -1.87332246480530       -0.17875578807095        0.00491287824224
O           -3.05004131283815       -0.34066809656107        0.00867411161889
N           -1.30862169959225       -1.34150183607018        0.00312388984920
C           -1.54681579090629       -2.64466347041555        0.00114535208901
H            3.72054652390325        1.17247029680019        0.98696207259811
H            3.97634660656815        0.97699946859738       -0.75679758511865
H            2.69242605696888        2.05962617358197       -0.15361450202225
H            3.56621456407041       -1.68564174419853       -0.01286319360713
H           -1.66394076720556        3.10868361052860       -0.00000784770550
H           -2.84804482343834        2.11676356991614       -0.89558201499992
H           -2.86192095675824        2.11253593933251        0.87322590968640
H           -1.21858669275213       -3.18000458776709        0.89081462996176
H           -1.23227037532061       -3.17172083998399       -0.89828046982060
H           -2.61958587034774       -2.53464052950600        0.00979120813479
H            1.05350806920934       -1.29067173784156       -0.05033207133221
25
 energy: -121.152399156453 gnorm: 15.226034526081 xtb: 6.6.1 (8d0f1dd)
C            3.21600249734249        1.12777810125094        0.01625618394746
N            2.31535782249233        0.03842045104856        0.00071038128722
C            2.83064334351333       -1.05579982816472       -0.00709296712412
N            2.04817839371454       -2.21761444598907        0.00085512520394
C            0.02529274366274       -0.92559662668446        0.00874817312600
C            0.88393377112208       -1.40977531212617        0.04045795251800
C            0.08858090632249        1.34403245072527       -0.00539011484374
O            0.50726571621444        2.49040231210622       -0.02101140485554
N           -1.24891871169474        1.06884771522967       -0.00042760199177
C           -2.22326798703883        2.17757629492459       -0.00649964727591
C           -1.88357488041924       -0.17941070331367        0.00477727255113
O           -3.06100737530080       -0.33548610909251        0.00868356587337
N           -1.31663417315032       -1.33344144897203        0.00328285555756
C           -1.55300621613084       -2.65178195019049        0.00152793502854
H            3.72020882931293        1.17433784268652        0.98683812152987
H            3.97636898678339        0.97890695968557       -0.75673351708777
H            2.69136687688716        2.06094603054790       -0.15399177062508
H            3.58522754049417       -1.68533488324438       -0.01261682916219
H           -1.66547249335119        3.10835337433438       -0.00066723682261
H           -2.84878637852691        2.11538631021893       -0.89619400585583
H           -2.86272440552089        2.11147969068506        0.87282143029256
H           -1.21704324663767       -3.18011979210528        0.89140810672272
H           -1.23070290688303       -3.17225237430801       -0.89782512609308
H           -2.62137221498519       -2.53856835519141        0.01016197816396
H            1.00451507587755       -1.29304716246140       -0.05690724216469
25
 energy: -121.702926802042 gnorm: 1.082295803703 xtb: 6.6.1 (8d0f1dd)
C            3.22140931828074        1.12771538783635        0.01584412026796
N            2.30224469836233        0.07187507912153        0.00091671326612
C            2.81405255203359       -1.07820057148588       -0.00638393320064
N            2.01930038495556       -2.16005843012680        0.00222075252897
C           -0.07867296525577       -0.91906760738443        0.00882285764952
C            0.96169689548404       -1.48099124825728        0.05812790981320
C            0.06715430166655        1.39504963570230       -0.00650777008747
O            0.50535769660884        2.49661931013286       -0.02252066086337
N           -1.25049645163170        1.06943353492124       -0.00115830101157
C           -2.22283159300231        2.17866238705081       -0.00784176003485
C           -1.88879330636260       -0.17394516728154        0.00475607647142
O           -3.06726654322654       -0.33134965599019        0.00870771425184
N           -1.30289374620349       -1.33197676247422        0.00376686311410
C           -1.55630537564040       -2.65523991442160        0.00281672177437
H            3.72066427457847        1.17319800854136        0.98623169043224
H            3.97675807606880        0.97664152578873       -0.75714777282480
H            2.69290228028792        2.05971333595529       -0.15504866380766
H            3.59067951342650       -1.68816216029235       -0.01169226873613
H           -1.66401637420106        3.10914787093796       -0.00248723642332
H           -2.84761917897438        2.11632128088366       -0.89747830741586