      -----------------------------------------------------------      
     |                   =====================                   |     
     |                           x T B                           |     
     |                   =====================                   |     
     |                         S. Grimme                         |     
     |          Mulliken Center for Theoretical Chemistry        |     
     |                    University of Bonn                     |     
      -----------------------------------------------------------      

   * xtb version 6.6.1 (8d0f1dd) compiled by 'conda@1efc2f54142f' on 2023-08-01

   xtb is free software: you can redistribute it and/or modify it under
   the terms of the GNU Lesser General Public License as published by
   the Free Software Foundation, either version 3 of the License, or
   (at your option) any later version.
   
   xtb is distributed in the hope that it will be useful,
   but WITHOUT ANY WARRANTY; without even the implied warranty of
   MERCHANTABILITY or FITNESS FOR A PARTICULAR PURPOSE.  See the
   GNU Lesser General Public License for more details.
   
   Cite this work as:
   * C. Bannwarth, E. Caldeweyher, S. Ehlert, A. Hansen, P. Pracht,
     J. Seibert, S. Spicher, S. Grimme, WIREs Comput. Mol. Sci., 2020, 11,
     e01493. DOI: 10.1002/wcms.1493
   
   for GFN2-xTB:
   * C. Bannwarth, S. Ehlert and S. Grimme., J. Chem. Theory Comput., 2019,
     15, 1652-1671. DOI: 10.1021/acs.jctc.8b01176
   for GFN1-xTB:
   * S. Grimme, C. Bannwarth, P. Shushkov, J. Chem. Theory Comput., 2017,
     13, 1989-2009. DOI: 10.1021/acs.jctc.7b00118
   for GFN0-xTB:
   * P. Pracht, E. Caldeweyher, S. Ehlert, S. Grimme, ChemRxiv, 2019, preprint.
     DOI: 10.26434/chemrxiv.8326202.v1
   for GFN-FF:
   * S. Spicher and S. Grimme, Angew. Chem. Int. Ed., 2020, 59, 15665-15673.
     DOI: 10.1002/anie.202004239
   
   for ALPB and GBSA implicit solvation:
   * S. Ehlert, M. Stahn, S. Spicher, S. Grimme, J. Chem. Theory Comput.,
     2021, 17, 4250-4261. DOI: 10.1021/acs.jctc.1c00471
   
   for DFT-D4:
   * E. Caldeweyher, C. Bannwarth and S. Grimme, J. Chem. Phys., 2017,
     147, 034112. DOI: 10.1063/1.4993215
   * E. Caldeweyher, S. Ehlert, A. Hansen, H. Neugebauer, S. Spicher,
     C. Bannwarth and S. Grimme, J. Chem. Phys., 2019, 150, 154122.
     DOI: 10.1063/1.5090222
   * E. Caldeweyher, J.-M. Mewes, S. Ehlert and S. Grimme, Phys. Chem. Chem. Phys.
     2020, 22, 8499-8512. DOI: 10.1039/D0CP00502A
   
   for sTDA-xTB:
   * S. Grimme and C. Bannwarth, J. Chem. Phys., 2016, 145, 054103.
     DOI: 10.1063/1.4959605
   
   in the mass-spec context:
   * V. Asgeirsson, C. Bauer and S. Grimme, Chem. Sci., 2017, 8, 4879.
     DOI: 10.1039/c7sc00601b
   * J. Koopman and S. Grimme, ACS Omega 2019, 4, 12, 15120-15133.
     DOI: 10.1021/acsomega.9b02011
   
   for metadynamics refer to:
   * S. Grimme, J. Chem. Theory Comput., 2019, 155, 2847-2862
     DOI: 10.1021/acs.jctc.9b00143
   
   for SPH calculations refer to:
   * S. Spicher and S. Grimme, J. Chem. Theory Comput., 2021, 17, 1701-1714
     DOI: 10.1021/acs.jctc.0c01306
   
   with help from (in alphabetical order)
   P. Atkinson, C. Bannwarth, F. Bohle, G. Brandenburg, E. Caldeweyher
   M. Checinski, S. Dohm, S. Ehlert, S. Ehrlich, I. Gerasimov, C. Hölzer
   A. Katbashev, J. Koopman, C. Lavigne, S. Lehtola, F. März, M. Müller,
   F. Musil, H. Neugebauer, J. Pisarek, C. Plett, P. Pracht, F. Pultar,
   J. Seibert, P. Shushkov, S. Spicher, M. Stahn, M. Steiner, T. Strunk,
   J. Stückrath, T. Rose, and J. Unsleber
   
 * started run on 2024/04/06 at 11:16:01.387     

           -------------------------------------------------
          |                Calculation Setup                |
           -------------------------------------------------

          program call               : xtb struc.xyz --opt loose --input .xc1 --gfn2
          hostname                   : n-62-30-23
          coordinate file            : struc.xyz
          omp threads                :                     1

   ID    Z sym.   atoms
    1    7 N      1, 17
    2    6 C      2-6, 8, 9, 11-16, 18-23, 25, 26, 28-33
    3    8 O      7, 10, 24, 27
    4    1 H      34-72
constraining bond 7 36 to    2.6333300 Å, actual value:    1.9963770 Å

           -------------------------------------------------
          |                 G F N 2 - x T B                 |
           -------------------------------------------------

        Reference                      10.1021/acs.jctc.8b01176
      * Hamiltonian:
        H0-scaling (s, p, d)           1.850000    2.230000    2.230000
        zeta-weighting                 0.500000
      * Dispersion:
        s8                             2.700000
        a1                             0.520000
        a2                             5.000000
        s9                             5.000000
      * Repulsion:
        kExp                           1.500000    1.000000
        rExp                           1.000000
      * Coulomb:
        alpha                          2.000000
        third order                    shell-resolved
        anisotropic                    true
        a3                             3.000000
        a5                             4.000000
        cn-shift                       1.200000
        cn-exp                         4.000000
        max-rad                        5.000000


          ...................................................
          :                      SETUP                      :
          :.................................................:
          :  # basis functions                 171          :
          :  # atomic orbitals                 171          :
          :  # shells                          105          :
          :  # electrons                       180          :
          :  max. iterations                   250          :
          :  Hamiltonian                  GFN2-xTB          :
          :  restarted?                      false          :
          :  GBSA solvation                  false          :
          :  PC potential                    false          :
          :  electronic temp.         5000.0000000     K    :
          :  accuracy                    1.0000000          :
          :  -> integral cutoff          0.2500000E+02      :
          :  -> integral neglect         0.1000000E-07      :
          :  -> SCF convergence          0.1000000E-05 Eh   :
          :  -> wf. convergence          0.1000000E-03 e    :
          :  Broyden damping             0.4000000          :
          ...................................................

 iter      E             dE          RMSdq      gap      omega  full diag
   1   -100.5973919 -0.100597E+03  0.374E+00    3.20       0.0  T
   2   -100.7362642 -0.138872E+00  0.221E+00    1.08       1.0  T
   3   -100.7049001  0.313641E-01  0.141E+00    3.29       1.0  T
   4   -100.7721690 -0.672689E-01  0.526E-01    1.50       1.0  T
   5   -100.7894292 -0.172602E-01  0.190E-01    1.98       1.0  T
   6   -100.7911978 -0.176856E-02  0.792E-02    1.77       1.0  T
   7   -100.7914750 -0.277198E-03  0.375E-02    1.83       1.0  T
   8   -100.7914914 -0.164582E-04  0.140E-02    1.83       1.0  T
   9   -100.7914976 -0.616739E-05  0.474E-03    1.82       2.5  T
  10   -100.7914988 -0.118227E-05  0.172E-03    1.82       6.8  T
  11   -100.7914989 -0.139928E-06  0.766E-04    1.82      15.4  T
  12   -100.7914989 -0.773143E-08  0.318E-04    1.82      37.0  T

   *** convergence criteria satisfied after 12 iterations ***

         #    Occupation            Energy/Eh            Energy/eV
      -------------------------------------------------------------
         1        2.0000           -0.8078051             -21.9815
       ...           ...                  ...                  ...
        84        1.9966           -0.5157491             -14.0342
        85        1.9959           -0.5128261             -13.9547
        86        1.9840           -0.4911498             -13.3649
        87        1.9795           -0.4872543             -13.2589
        88        1.9640           -0.4782114             -13.0128
        89        1.8920           -0.4602041             -12.5228
        90        1.8557           -0.4553147             -12.3897 (HOMO)
        91        0.3166           -0.3884132             -10.5693 (LUMO)
        92        0.0218           -0.3434697              -9.3463
        93        0.0041           -0.3169887              -8.6257
        94        0.0034           -0.3139726              -8.5436
        95        0.0029           -0.3112618              -8.4699
       ...           ...                  ...                  ...
       171                          0.5822580              15.8440
      -------------------------------------------------------------
                  HL-Gap            0.0669015 Eh            1.8205 eV
             Fermi-level           -0.4148687 Eh          -11.2892 eV

 SCC (total)                   0 d,  0 h,  0 min,  0.191 sec
 SCC setup                      ...        0 min,  0.002 sec (  0.788%)
 Dispersion                     ...        0 min,  0.002 sec (  1.303%)
 classical contributions        ...        0 min,  0.001 sec (  0.355%)
 integral evaluation            ...        0 min,  0.018 sec (  9.567%)
 iterations                     ...        0 min,  0.098 sec ( 51.367%)
 molecular gradient             ...        0 min,  0.069 sec ( 36.280%)
 printout                       ...        0 min,  0.001 sec (  0.332%)

         :::::::::::::::::::::::::::::::::::::::::::::::::::::
         ::                     SUMMARY                     ::
         :::::::::::::::::::::::::::::::::::::::::::::::::::::
         :: total energy             -99.476571579916 Eh    ::
         :: gradient norm              0.173836199283 Eh/a0 ::
         :: HOMO-LUMO gap              1.820481192090 eV    ::
         ::.................................................::
         :: SCC energy              -100.791498925389 Eh    ::
         :: -> isotropic ES            0.109302908418 Eh    ::
         :: -> anisotropic ES          0.005415138735 Eh    ::
         :: -> anisotropic XC          0.042392697176 Eh    ::
         :: -> dispersion             -0.075527661009 Eh    ::
         :: repulsion energy           1.386151658689 Eh    ::
         :: add. restraining          -0.072440665721 Eh    ::
         :: total charge               1.000000000108 e     ::
         :::::::::::::::::::::::::::::::::::::::::::::::::::::

      ----------------------------------------------------------- 
     |                   =====================                   |
     |                        A N C O P T                        |
     |                   =====================                   |
     |               Approximate Normal Coordinate               |
     |                Rational Function Optimizer                |
      ----------------------------------------------------------- 

          ...................................................
          :                      SETUP                      :
          :.................................................:
          :   optimization level             loose          :
          :   max. optcycles                   200          :
          :   ANC micro-cycles                  20          :
          :   degrees of freedom               210          :
          :.................................................:
          :   RF solver                   davidson          :
          :   write xtbopt.log                true          :
          :   linear?                        false          :
          :   energy convergence         0.5000000E-04 Eh   :
          :   grad. convergence          0.4000000E-02 Eh/α :
          :   maxmium RF displ.          1.0000000          :
          :   Hlow (freq-cutoff)         0.1000000E-01      :
          :   Hmax (freq-cutoff)         5.0000000          :
          :   S6 in model hess.         20.0000000          :
          ...................................................

generating ANC from model Hessian ...
Using Lindh-Hessian (1995)
 Shifting diagonal of input Hessian by    9.9422654917488158E-003
 Lowest  eigenvalues of input Hessian
    0.000000    0.000000    0.000000    0.000000    0.000000    0.000000
    0.010000    0.010024    0.010103    0.010224    0.010454    0.010648
    0.010849    0.010957    0.011163    0.011773    0.011871    0.012746
 Highest eigenvalues
    2.035906    2.041027    2.051523    2.177863    2.184441    2.185579


........................................................................
.............................. CYCLE    1 ..............................
........................................................................

 iter      E             dE          RMSdq      gap      omega  full diag
   1   -100.7914989 -0.100791E+03  0.114E-04    1.82       0.0  T
   2   -100.7914989 -0.678995E-10  0.713E-05    1.82     165.2  T
   3   -100.7914989  0.665210E-10  0.496E-05    1.82     237.5  T
     SCC iter.                  ...        0 min,  0.026 sec
     gradient                   ...        0 min,  0.069 sec
 * total energy  :   -99.4765716 Eh     change       -0.4035485E-08 Eh
   gradient norm :     0.1738398 Eh/α   predicted     0.0000000E+00 (-100.00%)
   displ. norm   :     0.8625148 α      lambda       -0.1230965E+00
   maximum displ.:     0.3247946 α      in ANC's #32, #25, #21, ...

........................................................................
.............................. CYCLE    2 ..............................
........................................................................

 iter      E             dE          RMSdq      gap      omega  full diag
   1   -100.7334869 -0.100733E+03  0.512E-01    1.71       0.0  T
   2   -100.7348113 -0.132439E-02  0.310E-01    1.85       1.0  T
   3   -100.7334917  0.131964E-02  0.186E-01    1.64       1.0  T
   4   -100.7351775 -0.168576E-02  0.673E-02    1.86       1.0  T
   5   -100.7355367 -0.359289E-03  0.281E-02    1.75       1.0  T
   6   -100.7356032 -0.664225E-04  0.837E-03    1.78       1.4  T
   7   -100.7356045 -0.134581E-05  0.410E-03    1.78       2.9  T
   8   -100.7356055 -0.940405E-06  0.151E-03    1.78       7.8  T
   9   -100.7356055 -0.358026E-07  0.903E-04    1.78      13.0  T
  10   -100.7356055 -0.167391E-07  0.373E-04    1.78      31.6  T
     SCC iter.                  ...        0 min,  0.081 sec
     gradient                   ...        0 min,  0.075 sec
 * total energy  :   -99.5942103 Eh     change       -0.1176387E+00 Eh
   gradient norm :     0.1468274 Eh/α   predicted    -0.1073411E+00 (  -8.75%)
   displ. norm   :     0.9050834 α      lambda       -0.1151994E+00
   maximum displ.:     0.3245645 α      in ANC's #25, #32, #21, ...

........................................................................
.............................. CYCLE    3 ..............................
........................................................................

 iter      E             dE          RMSdq      gap      omega  full diag
   1   -100.5604665 -0.100560E+03  0.854E-01    0.85       0.0  T
   2   -100.5439546  0.165119E-01  0.816E-01    2.24       1.0  T
   3   -100.5800620 -0.361074E-01  0.416E-01    1.05       1.0  T
   4   -100.5884010 -0.833900E-02  0.172E-01    1.55       1.0  T
   5   -100.5896981 -0.129716E-02  0.664E-02    1.38       1.0  T
   6   -100.5899144 -0.216302E-03  0.230E-02    1.41       1.0  T
   7   -100.5899190 -0.459669E-05  0.107E-02    1.41       1.1  T
   8   -100.5899258 -0.680366E-05  0.397E-03    1.41       3.0  T
   9   -100.5899269 -0.107390E-05  0.171E-03    1.40       6.9  T
  10   -100.5899271 -0.144303E-06  0.101E-03    1.40      11.7  T
  11   -100.5899271 -0.331271E-07  0.381E-04    1.40      31.0  T
  12   -100.5899271 -0.749228E-08  0.184E-04    1.40      64.2  T
     SCC iter.                  ...        0 min,  0.096 sec
     gradient                   ...        0 min,  0.069 sec
 * total energy  :   -99.7277192 Eh     change       -0.1335090E+00 Eh
   gradient norm :     0.2595194 Eh/α   predicted    -0.1047841E+00 ( -21.52%)
   displ. norm   :     0.8778846 α      lambda       -0.1729797E+00
   maximum displ.:     0.3084863 α      in ANC's #25, #24, #21, ...

........................................................................
.............................. CYCLE    4 ..............................
........................................................................

 iter      E             dE          RMSdq      gap      omega  full diag
   1   -100.5975921 -0.100598E+03  0.714E-01    0.76       0.0  T
   2   -100.5572541  0.403380E-01  0.817E-01    2.04       1.0  T
   3   -100.5963632 -0.391091E-01  0.443E-01    0.75       1.0  T
   4   -100.6009676 -0.460445E-02  0.265E-01    1.32       1.0  T
   5   -100.6089196 -0.795201E-02  0.354E-02    1.09       1.0  T
   6   -100.6089342 -0.145525E-04  0.212E-02    1.09       1.0  T
   7   -100.6089552 -0.210370E-04  0.669E-03    1.07       1.8  T
   8   -100.6089581 -0.291557E-05  0.302E-03    1.08       3.9  T
   9   -100.6089585 -0.372272E-06  0.150E-03    1.08       7.9  T
  10   -100.6089586 -0.696622E-07  0.755E-04    1.08      15.6  T
  11   -100.6089586 -0.376316E-07  0.250E-04    1.08      47.1  T
     SCC iter.                  ...        0 min,  0.088 sec
     gradient                   ...        0 min,  0.069 sec
 * total energy  :   -98.0840973 Eh     change        0.1643622E+01 Eh
   gradient norm :    11.6915800 Eh/α   predicted    -0.1531467E+00 (-109.32%)
   displ. norm   :     0.4812662 α      lambda       -0.5616598E+01
   maximum displ.:     0.1748664 α      in ANC's #139, #129, #159, ...

........................................................................
.............................. CYCLE    5 ..............................
........................................................................

 iter      E             dE          RMSdq      gap      omega  full diag
   1   -100.5920114 -0.100592E+03  0.424E-01    1.10       0.0  T
   2   -100.5956727 -0.366130E-02  0.306E-01    1.10       1.0  T
   3   -100.5990005 -0.332783E-02  0.148E-01    1.05       1.0  T
   4   -100.5947771  0.422339E-02  0.203E-01    1.33       1.0  T
   5   -100.5992637 -0.448654E-02  0.477E-02    1.05       1.0  T
   6   -100.5994501 -0.186383E-03  0.144E-02    1.09       1.0  T
   7   -100.5994635 -0.134161E-04  0.619E-03    1.09       1.9  T
   8   -100.5994632  0.281781E-06  0.348E-03    1.09       3.4  T
   9   -100.5994640 -0.776098E-06  0.106E-03    1.09      11.1  T
  10   -100.5994640 -0.315504E-07  0.646E-04    1.09      18.3  T
  11   -100.5994640 -0.157555E-07  0.380E-04    1.09      31.0  T
     SCC iter.                  ...        0 min,  0.088 sec
     gradient                   ...        0 min,  0.069 sec
 * total energy  :   -99.7787269 Eh     change       -0.1694630E+01 Eh
   gradient norm :     0.1720280 Eh/α   predicted    -0.3458749E+01 ( 104.10%)
   displ. norm   :     0.5042956 α      lambda       -0.3421918E-01
   maximum displ.:     0.1955947 α      in ANC's #49, #37, #32, ...

........................................................................
.............................. CYCLE    6 ..............................
........................................................................

 iter      E             dE          RMSdq      gap      omega  full diag
   1   -100.6308233 -0.100631E+03  0.320E-01    0.87       0.0  T
   2   -100.6108571  0.199662E-01  0.455E-01    1.60       1.0  T
   3   -100.6299904 -0.191333E-01  0.236E-01    0.84       1.0  T
   4   -100.6337512 -0.376083E-02  0.670E-02    1.06       1.0  T
   5   -100.6341632 -0.411980E-03  0.187E-02    1.04       1.0  T
   6   -100.6341811 -0.178873E-04  0.935E-03    1.04       1.3  T
   7   -100.6341842 -0.313202E-05  0.436E-03    1.03       2.7  T
   8   -100.6341845 -0.252396E-06  0.233E-03    1.04       5.1  T
   9   -100.6341845 -0.380258E-07  0.151E-03    1.04       7.8  T
  10   -100.6341848 -0.220280E-06  0.352E-04    1.03      33.5  T
  11   -100.6341848 -0.151807E-08  0.178E-04    1.03      66.1  T
     SCC iter.                  ...        0 min,  0.088 sec
     gradient                   ...        0 min,  0.069 sec
 * total energy  :   -99.8098185 Eh     change       -0.3109154E-01 Eh
   gradient norm :     0.1051504 Eh/α   predicted    -0.2146114E-01 ( -30.97%)
   displ. norm   :     0.4527236 α      lambda       -0.1864593E-01
   maximum displ.:     0.1562533 α      in ANC's #49, #95, #21, ...

........................................................................
.............................. CYCLE    7 ..............................
........................................................................

 iter      E             dE          RMSdq      gap      omega  full diag
   1   -100.6512765 -0.100651E+03  0.249E-01    0.98       0.0  T
   2   -100.6492527  0.202386E-02  0.196E-01    1.18       1.0  T
   3   -100.6397957  0.945696E-02  0.337E-01    0.70       1.0  T
   4   -100.6513394 -0.115436E-01  0.691E-02    1.07       1.0  T
   5   -100.6518245 -0.485119E-03  0.190E-02    1.03       1.0  T
   6   -100.6518473 -0.228594E-04  0.916E-03    1.02       1.3  T
   7   -100.6518516 -0.431077E-05  0.410E-03    1.02       2.9  T
   8   -100.6518519 -0.264932E-06  0.179E-03    1.02       6.6  T
   9   -100.6518520 -0.118115E-06  0.105E-03    1.02      11.2  T
  10   -100.6518521 -0.688706E-07  0.461E-04    1.02      25.6  T
  11   -100.6518521 -0.103483E-07  0.125E-04    1.02      94.4  T
     SCC iter.                  ...        0 min,  0.088 sec
     gradient                   ...        0 min,  0.069 sec
 * total energy  :   -99.8088186 Eh     change        0.9998766E-03 Eh
   gradient norm :     0.2931053 Eh/α   predicted    -0.1123375E-01 (*******%)
   displ. norm   :     0.3143651 α      lambda       -0.2624995E-01
   maximum displ.:     0.1506035 α      in ANC's #37, #32, #31, ...

........................................................................
.............................. CYCLE    8 ..............................
........................................................................

 iter      E             dE          RMSdq      gap      omega  full diag
   1   -100.6509940 -0.100651E+03  0.224E-01    1.23       0.0  T
   2   -100.6150710  0.359230E-01  0.579E-01    0.49       1.0  T
   3   -100.6543983 -0.393273E-01  0.886E-02    1.10       1.0  T
   4   -100.6545274 -0.129113E-03  0.569E-02    1.02       1.0  T
   5   -100.6547026 -0.175193E-03  0.302E-02    1.03       1.0  T
   6   -100.6547486 -0.460449E-04  0.552E-03    1.04       2.1  T
   7   -100.6547504 -0.176507E-05  0.172E-03    1.04       6.8  T
   8   -100.6547505 -0.109539E-06  0.777E-04    1.04      15.2  T
   9   -100.6547505 -0.925820E-08  0.437E-04    1.04      27.0  T
     SCC iter.                  ...        0 min,  0.074 sec
     gradient                   ...        0 min,  0.069 sec
 * total energy  :   -99.8186434 Eh     change       -0.9824778E-02 Eh
   gradient norm :     0.1032065 Eh/α   predicted    -0.1442206E-01 (  46.79%)
   displ. norm   :     0.1827761 α      lambda       -0.3946318E-02
   maximum displ.:     0.0829108 α      in ANC's #10, #1, #12, ...

........................................................................
.............................. CYCLE    9 ..............................
........................................................................

 iter      E             dE          RMSdq      gap      omega  full diag
   1   -100.6519369 -0.100652E+03  0.763E-02    1.01       0.0  T
   2   -100.6510717  0.865136E-03  0.111E-01    1.15       1.0  T
   3   -100.6520985 -0.102680E-02  0.471E-02    1.00       1.0  T
   4   -100.6522160 -0.117457E-03  0.311E-02    1.07       1.0  T
   5   -100.6522655 -0.495359E-04  0.153E-02    1.05       1.0  T
   6   -100.6522782 -0.126319E-04  0.444E-03    1.04       2.7  T
   7   -100.6522796 -0.139873E-05  0.155E-03    1.04       7.6  T
   8   -100.6522798 -0.189930E-06  0.596E-04    1.04      19.8  T
   9   -100.6522798 -0.682743E-08  0.304E-04    1.04      38.8  T
     SCC iter.                  ...        0 min,  0.073 sec
     gradient                   ...        0 min,  0.070 sec
 * total energy  :   -99.8214647 Eh     change       -0.2821364E-02 Eh
   gradient norm :     0.1107874 Eh/α   predicted    -0.2039081E-02 ( -27.73%)
   displ. norm   :     0.3530663 α      lambda       -0.3580294E-02
   maximum displ.:     0.1634922 α      in ANC's #10, #1, #9, ...

........................................................................
.............................. CYCLE   10 ..............................
........................................................................

 iter      E             dE          RMSdq      gap      omega  full diag
   1   -100.6535535 -0.100654E+03  0.761E-02    1.06       0.0  T
   2   -100.6534724  0.810801E-04  0.526E-02    1.00       1.0  T
   3   -100.6527925  0.679827E-03  0.928E-02    1.15       1.0  T
   4   -100.6536614 -0.868841E-03  0.187E-02    1.04       1.0  T
   5   -100.6536699 -0.856538E-05  0.893E-03    1.05       1.3  T
   6   -100.6536755 -0.559537E-05  0.385E-03    1.05       3.1  T
   7   -100.6536768 -0.121226E-05  0.132E-03    1.05       8.9  T
   8   -100.6536769 -0.108017E-06  0.618E-04    1.05      19.1  T
   9   -100.6536769 -0.114569E-07  0.188E-04    1.05      62.6  T
     SCC iter.                  ...        0 min,  0.072 sec
     gradient                   ...        0 min,  0.070 sec
 * total energy  :   -99.8242593 Eh     change       -0.2794538E-02 Eh
   gradient norm :     0.1261381 Eh/α   predicted    -0.2013302E-02 ( -27.96%)
   displ. norm   :     0.4730640 α      lambda       -0.4277138E-02
   maximum displ.:     0.2088719 α      in ANC's #10, #1, #9, ...

........................................................................
.............................. CYCLE   11 ..............................
........................................................................

 iter      E             dE          RMSdq      gap      omega  full diag
   1   -100.6536414 -0.100654E+03  0.128E-01    1.16       0.0  T
   2   -100.6470114  0.663005E-02  0.251E-01    0.81       1.0  T
   3   -100.6539843 -0.697293E-02  0.753E-02    1.14       1.0  T
   4   -100.6543207 -0.336377E-03  0.191E-02    1.07       1.0  T
   5   -100.6543337 -0.129830E-04  0.871E-03    1.07       1.4  T
   6   -100.6543374 -0.369393E-05  0.500E-03    1.07       2.4  T
   7   -100.6543388 -0.147167E-05  0.217E-03    1.07       5.4  T
   8   -100.6543392 -0.336079E-06  0.748E-04    1.07      15.8  T
   9   -100.6543392 -0.255204E-07  0.221E-04    1.07      53.3  T
     SCC iter.                  ...        0 min,  0.073 sec
     gradient                   ...        0 min,  0.069 sec
 * total energy  :   -99.8276235 Eh     change       -0.3364219E-02 Eh
   gradient norm :     0.1220577 Eh/α   predicted    -0.2617167E-02 ( -22.21%)
   displ. norm   :     0.4373737 α      lambda       -0.4222649E-02
   maximum displ.:     0.1717726 α      in ANC's #10, #1, #9, ...

........................................................................
.............................. CYCLE   12 ..............................
........................................................................

 iter      E             dE          RMSdq      gap      omega  full diag
   1   -100.6540349 -0.100654E+03  0.153E-01    1.23       0.0  T
   2   -100.6405918  0.134431E-01  0.354E-01    0.74       1.0  T
   3   -100.6551641 -0.145723E-01  0.717E-02    1.15       1.0  T
   4   -100.6552572 -0.930450E-04  0.274E-02    1.10       1.0  T
   5   -100.6553173 -0.601159E-04  0.132E-02    1.10       1.0  T
   6   -100.6553282 -0.109343E-04  0.629E-03    1.10       1.9  T
   7   -100.6553306 -0.237897E-05  0.216E-03    1.10       5.5  T
   8   -100.6553309 -0.300622E-06  0.787E-04    1.10      15.0  T
   9   -100.6553309 -0.342384E-07  0.238E-04    1.10      49.5  T
     SCC iter.                  ...        0 min,  0.073 sec
     gradient                   ...        0 min,  0.069 sec
 * total energy  :   -99.8307116 Eh     change       -0.3088083E-02 Eh
   gradient norm :     0.0954986 Eh/α   predicted    -0.2515213E-02 ( -18.55%)
   displ. norm   :     0.3250923 α      lambda       -0.3339093E-02
   maximum displ.:     0.1422503 α      in ANC's #1, #10, #9, ...

........................................................................
.............................. CYCLE   13 ..............................
........................................................................

 iter      E             dE          RMSdq      gap      omega  full diag
   1   -100.6596302 -0.100660E+03  0.105E-01    1.20       0.0  T
   2   -100.6557580  0.387221E-02  0.193E-01    0.92       1.0  T
   3   -100.6598298 -0.407183E-02  0.626E-02    1.17       1.0  T
   4   -100.6600276 -0.197824E-03  0.178E-02    1.12       1.0  T
   5   -100.6600478 -0.201425E-04  0.757E-03    1.12       1.6  T
   6   -100.6600514 -0.362353E-05  0.321E-03    1.12       3.7  T
   7   -100.6600516 -0.225418E-06  0.201E-03    1.12       5.9  T
   8   -100.6600519 -0.279116E-06  0.586E-04    1.12      20.1  T
   9   -100.6600519 -0.135122E-07  0.174E-04    1.12      67.9  T
     SCC iter.                  ...        0 min,  0.073 sec
     gradient                   ...        0 min,  0.069 sec
 * total energy  :   -99.8333473 Eh     change       -0.2635683E-02 Eh
   gradient norm :     0.0713579 Eh/α   predicted    -0.1845997E-02 ( -29.96%)
   displ. norm   :     0.4001784 α      lambda       -0.4311852E-02
   maximum displ.:     0.1633461 α      in ANC's #1, #38, #32, ...

........................................................................
.............................. CYCLE   14 ..............................
........................................................................

 iter      E             dE          RMSdq      gap      omega  full diag
   1   -100.6687912 -0.100669E+03  0.103E-01    1.14       0.0  T
   2   -100.6687727  0.184538E-04  0.646E-02    1.10       1.0  T
   3   -100.6678043  0.968403E-03  0.102E-01    1.24       1.0  T
   4   -100.6686807 -0.876384E-03  0.404E-02    1.09       1.0  T
   5   -100.6688612 -0.180467E-03  0.672E-03    1.13       1.8  T
   6   -100.6688643 -0.311293E-05  0.360E-03    1.13       3.3  T
   7   -100.6688650 -0.751479E-06  0.152E-03    1.13       7.8  T
   8   -100.6688651 -0.603534E-07  0.635E-04    1.13      18.6  T
   9   -100.6688651 -0.110294E-07  0.253E-04    1.13      46.6  T
     SCC iter.                  ...        0 min,  0.073 sec
     gradient                   ...        0 min,  0.070 sec
 * total energy  :   -99.8366118 Eh     change       -0.3264505E-02 Eh
   gradient norm :     0.0601088 Eh/α   predicted    -0.2501190E-02 ( -23.38%)
   displ. norm   :     0.4271020 α      lambda       -0.3318155E-02
   maximum displ.:     0.1757916 α      in ANC's #1, #32, #38, ...

........................................................................
.............................. CYCLE   15 ..............................
........................................................................

 iter      E             dE          RMSdq      gap      omega  full diag
   1   -100.6725229 -0.100673E+03  0.113E-01    1.10       0.0  T
   2   -100.6719168  0.606152E-03  0.105E-01    1.22       1.0  T
   3   -100.6711739  0.742896E-03  0.118E-01    1.00       1.0  T
   4   -100.6725780 -0.140407E-02  0.362E-02    1.15       1.0  T
   5   -100.6726686 -0.906202E-04  0.947E-03    1.13       1.2  T
   6   -100.6726762 -0.761060E-05  0.405E-03    1.13       2.9  T
   7   -100.6726769 -0.692924E-06  0.151E-03    1.12       7.8  T
   8   -100.6726769 -0.462056E-07  0.716E-04    1.13      16.5  T
   9   -100.6726769 -0.111838E-07  0.263E-04    1.13      44.8  T
     SCC iter.                  ...        0 min,  0.073 sec
     gradient                   ...        0 min,  0.069 sec
 * total energy  :   -99.8391032 Eh     change       -0.2491398E-02 Eh
   gradient norm :     0.0663325 Eh/α   predicted    -0.1961726E-02 ( -21.26%)
   displ. norm   :     0.4265662 α      lambda       -0.2880379E-02
   maximum displ.:     0.1662291 α      in ANC's #1, #32, #16, ...

........................................................................
.............................. CYCLE   16 ..............................
........................................................................

 iter      E             dE          RMSdq      gap      omega  full diag
   1   -100.6742079 -0.100674E+03  0.119E-01    1.08       0.0  T
   2   -100.6730917  0.111619E-02  0.123E-01    1.24       1.0  T
   3   -100.6729697  0.122001E-03  0.119E-01    0.99       1.0  T
   4   -100.6743115 -0.134175E-02  0.266E-02    1.13       1.0  T
   5   -100.6743702 -0.586732E-04  0.801E-03    1.12       1.5  T
   6   -100.6743752 -0.506917E-05  0.334E-03    1.11       3.5  T
   7   -100.6743756 -0.338963E-06  0.117E-03    1.11      10.1  T
   8   -100.6743756 -0.432173E-07  0.527E-04    1.11      22.4  T
   9   -100.6743756 -0.920166E-08  0.262E-04    1.11      45.1  T
     SCC iter.                  ...        0 min,  0.073 sec
     gradient                   ...        0 min,  0.069 sec
 * total energy  :   -99.8412769 Eh     change       -0.2173690E-02 Eh
   gradient norm :     0.0541909 Eh/α   predicted    -0.1702251E-02 ( -21.69%)
   displ. norm   :     0.5088530 α      lambda       -0.3284361E-02
   maximum displ.:     0.1911514 α      in ANC's #1, #32, #16, ...

........................................................................
.............................. CYCLE   17 ..............................
........................................................................

 iter      E             dE          RMSdq      gap      omega  full diag
   1   -100.6709928 -0.100671E+03  0.171E-01    1.06       0.0  T
   2   -100.6698507  0.114212E-02  0.140E-01    1.22       1.0  T
   3   -100.6657636  0.408712E-02  0.225E-01    0.87       1.0  T
   4   -100.6710264 -0.526281E-02  0.470E-02    1.13       1.0  T
   5   -100.6712263 -0.199891E-03  0.996E-03    1.10       1.2  T
   6   -100.6712341 -0.784896E-05  0.488E-03    1.10       2.4  T
   7   -100.6712348 -0.723534E-06  0.220E-03    1.09       5.4  T
   8   -100.6712352 -0.316304E-06  0.901E-04    1.10      13.1  T
   9   -100.6712352 -0.532907E-07  0.394E-04    1.10      29.9  T
     SCC iter.                  ...        0 min,  0.073 sec
     gradient                   ...        0 min,  0.069 sec
 * total energy  :   -99.8417906 Eh     change       -0.5136990E-03 Eh
   gradient norm :     0.1232521 Eh/α   predicted    -0.2067398E-02 ( 302.45%)
   displ. norm   :     0.2318607 α      lambda       -0.6085844E-02
   maximum displ.:     0.0721068 α      in ANC's #21, #8, #7, ...

........................................................................
.............................. CYCLE   18 ..............................
........................................................................

 iter      E             dE          RMSdq      gap      omega  full diag
   1   -100.6745418 -0.100675E+03  0.815E-02    1.05       0.0  T
   2   -100.6741262  0.415598E-03  0.796E-02    1.15       1.0  T
   3   -100.6738227  0.303496E-03  0.884E-02    0.99       1.0  T
   4   -100.6745820 -0.759299E-03  0.235E-02    1.09       1.0  T
   5   -100.6746213 -0.392955E-04  0.446E-03    1.08       2.6  T
   6   -100.6746216 -0.318515E-06  0.259E-03    1.08       4.5  T
   7   -100.6746220 -0.333070E-06  0.125E-03    1.08       9.4  T
   8   -100.6746220 -0.628459E-07  0.593E-04    1.08      19.9  T
   9   -100.6746221 -0.278943E-07  0.169E-04    1.08      69.9  T
     SCC iter.                  ...        0 min,  0.073 sec
     gradient                   ...        0 min,  0.069 sec
 * total energy  :   -99.8448211 Eh     change       -0.3030556E-02 Eh
   gradient norm :     0.0415389 Eh/α   predicted    -0.3206511E-02 (   5.81%)
   displ. norm   :     0.2241623 α      lambda       -0.1792769E-02
   maximum displ.:     0.0811669 α      in ANC's #1, #32, #5, ...

........................................................................
.............................. CYCLE   19 ..............................
........................................................................

 iter      E             dE          RMSdq      gap      omega  full diag
   1   -100.6774274 -0.100677E+03  0.698E-02    1.04       0.0  T
   2   -100.6770524  0.375047E-03  0.738E-02    1.14       1.0  T
   3   -100.6770303  0.220784E-04  0.671E-02    1.00       1.0  T
   4   -100.6774824 -0.452086E-03  0.142E-02    1.08       1.0  T
   5   -100.6774944 -0.120152E-04  0.432E-03    1.07       2.7  T
   6   -100.6774951 -0.679152E-06  0.165E-03    1.07       7.2  T
   7   -100.6774951 -0.287573E-07  0.131E-03    1.07       9.0  T
   8   -100.6774952 -0.122654E-06  0.382E-04    1.07      30.9  T
   9   -100.6774952 -0.685078E-08  0.133E-04    1.07      88.7  T
     SCC iter.                  ...        0 min,  0.073 sec
     gradient                   ...        0 min,  0.069 sec
 * total energy  :   -99.8463420 Eh     change       -0.1520936E-02 Eh
   gradient norm :     0.0309157 Eh/α   predicted    -0.9414319E-03 ( -38.10%)
   displ. norm   :     0.4872841 α      lambda       -0.3141474E-02
   maximum displ.:     0.1669794 α      in ANC's #1, #32, #5, ...

........................................................................
.............................. CYCLE   20 ..............................
........................................................................

 iter      E             dE          RMSdq      gap      omega  full diag
   1   -100.6789841 -0.100679E+03  0.158E-01    0.98       0.0  T
   2   -100.6756163  0.336785E-02  0.199E-01    1.26       1.0  T
   3   -100.6778699 -0.225368E-02  0.134E-01    0.92       1.0  T
   4   -100.6793524 -0.148245E-02  0.345E-02    1.07       1.0  T
   5   -100.6794408 -0.884583E-04  0.922E-03    1.05       1.3  T
   6   -100.6794462 -0.533806E-05  0.458E-03    1.05       2.6  T
   7   -100.6794478 -0.165985E-05  0.174E-03    1.05       6.8  T
   8   -100.6794479 -0.850415E-07  0.809E-04    1.05      14.6  T
   9   -100.6794480 -0.332787E-07  0.292E-04    1.05      40.4  T
     SCC iter.                  ...        0 min,  0.073 sec
     gradient                   ...        0 min,  0.069 sec
 * total energy  :   -99.8482944 Eh     change       -0.1952404E-02 Eh
   gradient norm :     0.0363249 Eh/α   predicted    -0.1943705E-02 (  -0.45%)
   displ. norm   :     0.2868922 α      lambda       -0.9629813E-03
   maximum displ.:     0.0920666 α      in ANC's #1, #5, #32, ...
 * RMSD in coord.:     0.5711455 α      energy gain  -0.3717229E+00 Eh

generating ANC from model Hessian ...
Using Lindh-Hessian (1995)
 Shifting diagonal of input Hessian by    9.9519544848735500E-003
 Lowest  eigenvalues of input Hessian
    0.000000    0.000000    0.000000    0.000000    0.000000    0.000000
    0.010000    0.010032    0.010113    0.010236    0.010359    0.010574
    0.010620    0.010785    0.010895    0.011651    0.011736    0.012474
 Highest eigenvalues
    1.978036    2.048874    2.096252    2.162589    2.172615    2.182657


........................................................................
.............................. CYCLE   21 ..............................
........................................................................

 iter      E             dE          RMSdq      gap      omega  full diag
   1   -100.6811543 -0.100681E+03  0.760E-02    1.02       0.0  T
   2   -100.6806349  0.519418E-03  0.820E-02    1.12       1.0  T
   3   -100.6806459 -0.110257E-04  0.778E-02    0.96       1.0  T
   4   -100.6811834 -0.537469E-03  0.205E-02    1.05       1.0  T
   5   -100.6812229 -0.394619E-04  0.473E-03    1.04       2.5  T
   6   -100.6812250 -0.208076E-05  0.184E-03    1.04       6.4  T
   7   -100.6812251 -0.188931E-06  0.567E-04    1.04      20.8  T
   8   -100.6812252 -0.122503E-07  0.211E-04    1.04      55.7  T
     SCC iter.                  ...        0 min,  0.065 sec
     gradient                   ...        0 min,  0.069 sec
 * total energy  :   -99.8490321 Eh     change       -0.7376055E-03 Eh
   gradient norm :     0.0240974 Eh/α   predicted     0.0000000E+00 (-100.00%)
   displ. norm   :     0.1032550 α      lambda       -0.6029184E-03
   maximum displ.:     0.0484429 α      in ANC's #12, #10, #18, ...

........................................................................
.............................. CYCLE   22 ..............................
........................................................................

 iter      E             dE          RMSdq      gap      omega  full diag
   1   -100.6818138 -0.100682E+03  0.308E-02    1.05       0.0  T
   2   -100.6817814  0.324065E-04  0.266E-02    1.02       1.0  T
   3   -100.6816789  0.102506E-03  0.361E-02    1.08       1.0  T
   4   -100.6818186 -0.139705E-03  0.725E-03    1.04       1.6  T
   5   -100.6818223 -0.373283E-05  0.249E-03    1.04       4.7  T
   6   -100.6818228 -0.468874E-06  0.111E-03    1.04      10.6  T
   7   -100.6818229 -0.117258E-06  0.305E-04    1.04      38.7  T
   8   -100.6818229 -0.452502E-09  0.146E-04    1.04      80.8  T
     SCC iter.                  ...        0 min,  0.065 sec
     gradient                   ...        0 min,  0.069 sec
 * total energy  :   -99.8493577 Eh     change       -0.3256716E-03 Eh
   gradient norm :     0.0205992 Eh/α   predicted    -0.3046797E-03 (  -6.45%)
   displ. norm   :     0.1691306 α      lambda       -0.4851020E-03
   maximum displ.:     0.0848607 α      in ANC's #12, #10, #18, ...

........................................................................
.............................. CYCLE   23 ..............................
........................................................................

 iter      E             dE          RMSdq      gap      omega  full diag
   1   -100.6811203 -0.100681E+03  0.432E-02    1.05       0.0  T
   2   -100.6811218 -0.149105E-05  0.268E-02    1.04       1.0  T
   3   -100.6809745  0.147241E-03  0.373E-02    1.08       1.0  T
   4   -100.6810841 -0.109611E-03  0.202E-02    1.03       1.0  T
   5   -100.6811286 -0.445021E-04  0.350E-03    1.05       3.4  T
   6   -100.6811298 -0.116753E-05  0.140E-03    1.05       8.4  T
   7   -100.6811300 -0.157847E-06  0.460E-04    1.05      25.6  T
   8   -100.6811300 -0.158533E-08  0.231E-04    1.05      51.1  T
     SCC iter.                  ...        0 min,  0.065 sec
     gradient                   ...        0 min,  0.069 sec
 * total energy  :   -99.8497221 Eh     change       -0.3643594E-03 Eh
   gradient norm :     0.0109532 Eh/α   predicted    -0.2495146E-03 ( -31.52%)
   displ. norm   :     0.2679696 α      lambda       -0.4544572E-03
   maximum displ.:     0.1426568 α      in ANC's #12, #10, #18, ...

........................................................................
.............................. CYCLE   24 ..............................
........................................................................

 iter      E             dE          RMSdq      gap      omega  full diag
   1   -100.6801064 -0.100680E+03  0.575E-02    1.05       0.0  T
   2   -100.6801119 -0.557216E-05  0.341E-02    1.05       1.0  T
   3   -100.6800370  0.748995E-04  0.269E-02    1.08       1.0  T
   4   -100.6800499 -0.128988E-04  0.240E-02    1.02       1.0  T
   5   -100.6801153 -0.653383E-04  0.301E-03    1.05       3.9  T
   6   -100.6801160 -0.686469E-06  0.167E-03    1.05       7.1  T
   7   -100.6801162 -0.223832E-06  0.574E-04    1.05      20.5  T
   8   -100.6801162 -0.232893E-08  0.307E-04    1.05      38.4  T
     SCC iter.                  ...        0 min,  0.065 sec
     gradient                   ...        0 min,  0.075 sec
 * total energy  :   -99.8500260 Eh     change       -0.3039065E-03 Eh
   gradient norm :     0.0086103 Eh/α   predicted    -0.2435752E-03 ( -19.85%)
   displ. norm   :     0.2055886 α      lambda       -0.2190861E-03
   maximum displ.:     0.1091224 α      in ANC's #12, #10, #18, ...

........................................................................
.............................. CYCLE   25 ..............................
........................................................................

 iter      E             dE          RMSdq      gap      omega  full diag
   1   -100.6799678 -0.100680E+03  0.378E-02    1.05       0.0  T
   2   -100.6799354  0.323728E-04  0.275E-02    1.07       1.0  T
   3   -100.6796359  0.299476E-03  0.553E-02    0.99       1.0  T
   4   -100.6799707 -0.334823E-03  0.520E-03    1.05       2.3  T
   5   -100.6799734 -0.269599E-05  0.992E-04    1.05      11.9  T
   6   -100.6799735 -0.364328E-07  0.536E-04    1.05      22.0  T
   7   -100.6799735 -0.413314E-08  0.246E-04    1.05      47.9  T
     SCC iter.                  ...        0 min,  0.057 sec
     gradient                   ...        0 min,  0.069 sec
 * total energy  :   -99.8501906 Eh     change       -0.1645773E-03 Eh
   gradient norm :     0.0097655 Eh/α   predicted    -0.1142126E-03 ( -30.60%)
   displ. norm   :     0.2346647 α      lambda       -0.2342938E-03
   maximum displ.:     0.1138708 α      in ANC's #12, #10, #7, ...

........................................................................
.............................. CYCLE   26 ..............................
........................................................................

 iter      E             dE          RMSdq      gap      omega  full diag
   1   -100.6805209 -0.100681E+03  0.432E-02    1.04       0.0  T
   2   -100.6803526  0.168302E-03  0.455E-02    1.09       1.0  T
   3   -100.6803306  0.219927E-04  0.466E-02    1.00       1.0  T
   4   -100.6805394 -0.208735E-03  0.474E-03    1.05       2.5  T
   5   -100.6805411 -0.175913E-05  0.149E-03    1.05       7.9  T
   6   -100.6805413 -0.167883E-06  0.637E-04    1.05      18.5  T
   7   -100.6805413 -0.202288E-07  0.315E-04    1.05      37.5  T
     SCC iter.                  ...        0 min,  0.057 sec
     gradient                   ...        0 min,  0.069 sec
 * total energy  :   -99.8503539 Eh     change       -0.1633346E-03 Eh
   gradient norm :     0.0070741 Eh/α   predicted    -0.1236033E-03 ( -24.33%)
   displ. norm   :     0.1675449 α      lambda       -0.1258233E-03
   maximum displ.:     0.0771113 α      in ANC's #7, #12, #10, ...

........................................................................
.............................. CYCLE   27 ..............................
........................................................................

 iter      E             dE          RMSdq      gap      omega  full diag
   1   -100.6812113 -0.100681E+03  0.354E-02    1.03       0.0  T
   2   -100.6810804  0.130978E-03  0.393E-02    1.09       1.0  T
   3   -100.6810996 -0.192584E-04  0.366E-02    1.01       1.0  T
   4   -100.6812252 -0.125595E-03  0.455E-03    1.05       2.6  T
   5   -100.6812267 -0.150201E-05  0.122E-03    1.05       9.6  T
   6   -100.6812268 -0.803514E-07  0.513E-04    1.05      23.0  T
   7   -100.6812268 -0.124421E-07  0.340E-04    1.05      34.7  T
     SCC iter.                  ...        0 min,  0.057 sec
     gradient                   ...        0 min,  0.069 sec
 * total energy  :   -99.8504407 Eh     change       -0.8683698E-04 Eh
   gradient norm :     0.0032093 Eh/α   predicted    -0.6468148E-04 ( -25.51%)
   displ. norm   :     0.1356813 α      lambda       -0.6770304E-04
   maximum displ.:     0.0753766 α      in ANC's #7, #4, #22, ...

........................................................................
.............................. CYCLE   28 ..............................
........................................................................

 iter      E             dE          RMSdq      gap      omega  full diag
   1   -100.6814608 -0.100681E+03  0.302E-02    1.04       0.0  T
   2   -100.6814047  0.560832E-04  0.280E-02    1.07       1.0  T
   3   -100.6813325  0.721885E-04  0.364E-02    1.01       1.0  T
   4   -100.6814648 -0.132269E-03  0.577E-03    1.05       2.0  T
   5   -100.6814678 -0.301604E-05  0.120E-03    1.04       9.8  T
   6   -100.6814679 -0.120544E-06  0.478E-04    1.04      24.7  T
   7   -100.6814679 -0.103454E-07  0.261E-04    1.04      45.1  T
     SCC iter.                  ...        0 min,  0.057 sec
     gradient                   ...        0 min,  0.069 sec
 * total energy  :   -99.8504910 Eh     change       -0.5022071E-04 Eh
   gradient norm :     0.0028282 Eh/α   predicted    -0.3449002E-04 ( -31.32%)
   displ. norm   :     0.1384289 α      lambda       -0.5807956E-04
   maximum displ.:     0.0830645 α      in ANC's #7, #4, #25, ...

........................................................................
.............................. CYCLE   29 ..............................
........................................................................

 iter      E             dE          RMSdq      gap      omega  full diag
   1   -100.6815095 -0.100682E+03  0.303E-02    1.04       0.0  T
   2   -100.6814892  0.203368E-04  0.221E-02    1.06       1.0  T
   3   -100.6813132  0.175979E-03  0.428E-02    1.00       1.0  T
   4   -100.6815079 -0.194636E-03  0.727E-03    1.05       1.6  T
   5   -100.6815132 -0.537446E-05  0.130E-03    1.04       9.1  T
   6   -100.6815134 -0.157229E-06  0.457E-04    1.04      25.8  T
   7   -100.6815134 -0.913484E-08  0.189E-04    1.04      62.4  T
     SCC iter.                  ...        0 min,  0.057 sec
     gradient                   ...        0 min,  0.069 sec
 * total energy  :   -99.8505349 Eh     change       -0.4391802E-04 Eh
   gradient norm :     0.0032748 Eh/α   predicted    -0.2959680E-04 ( -32.61%)
   displ. norm   :     0.1436768 α      lambda       -0.5084714E-04
   maximum displ.:     0.0881696 α      in ANC's #7, #4, #25, ...

   *** GEOMETRY OPTIMIZATION CONVERGED AFTER 29 ITERATIONS ***

------------------------------------------------------------------------
 total energy gain   :        -0.3739633 Eh     -234.6655 kcal/mol
 total RMSD          :         0.5973395 a0        0.3161 Å
 total power (kW/mol):       -33.8565691 (step) -201.7515 (real)
------------------------------------------------------------------------

 ANCopt (total)                0 d,  0 h,  0 min,  4.867 sec
 optimizer setup                ...        0 min,  0.000 sec (  0.006%)
 model hessian                  ...        0 min,  0.107 sec (  2.189%)
 ANC generation                 ...        0 min,  0.013 sec (  0.268%)
 coordinate transformation      ...        0 min,  0.002 sec (  0.041%)
 single point calculation       ...        0 min,  4.701 sec ( 96.598%)
 optimization log               ...        0 min,  0.007 sec (  0.153%)
 hessian update                 ...        0 min,  0.002 sec (  0.041%)
 rational function              ...        0 min,  0.018 sec (  0.377%)

================
 final structure:
================
72
 xtb: 6.6.1 (8d0f1dd)
N           -1.85886067902132        2.76944943356316        2.26107811283560
C           -1.84311709108522        2.00176453304960        1.27305089393414
C           -2.96634567606839        1.87436146218959        0.27799510789713
C           -3.49762680064175        0.45264494888921        0.28794666683437
C           -4.33200270973911        0.00792228430750       -0.73820572786151
C           -4.84475904763282       -1.26890623321376       -0.70090639961631
O           -5.69804356216708       -1.77440472000128       -1.76176461401360
C           -6.55411149870178       -0.85965336265613       -2.50621495583465
C           -4.57976006527961       -2.15793186084062        0.34754438050934
O           -5.18205229734081       -3.37414476714777        0.25024947153306
C           -4.97217323048179       -4.31621788837683        1.28265965062055
C           -3.75108589987052       -1.71223881883503        1.36879596904953
C           -3.22426098614591       -0.42734114321741        1.32872042982052
C           -2.34872286337804        2.20844382698220       -1.10494585622641
C           -1.40460214820946        1.13124351156513       -1.66897011979044
C           -0.08641977891828        1.09266294545362       -0.99638538725459
N            0.56285203519110       -0.01269352080687       -0.62075626150808
C            1.94920434740064        0.05480888929353       -0.22837671354059
C            2.89055762006467       -0.38322762514029       -1.36775877136950
C            4.31808421608847       -0.15051408799087       -0.96121167099517
C            4.94294687595116        1.05227309288126       -1.24156617772901
C            6.24624424968426        1.28755937814884       -0.83042504485712
C            6.94780933633751        0.32340643626153       -0.12286645692729
O            8.21208689372049        0.44574150497197        0.32977197407982
C            8.91606407095358        1.63890521019676        0.07491358621934
C            6.31491883558437       -0.91464091878135        0.16936892588434
O            7.07057582068325       -1.79775311302933        0.85734237996674
C            6.53502032516984       -3.06026757278066        1.17053461688517
C            5.01259021020443       -1.12770142983367       -0.25118357966723
C           -0.04735722644585       -1.31726094014559       -0.69173628133570
C           -4.16581848284471        2.82865743972753        0.56257643996754
C           -4.82049444671776        2.52068257105893        1.90771307153403
C           -3.78250926501821        4.30522414339214        0.50781786001479
H           -4.60277837182723        0.64694212343674       -1.56270778240827
H           -7.16420442272629       -0.23997154313370       -1.86195527553125
H           -6.12538042040260       -2.35787248081008       -1.46640328841417
H           -5.98099005752911       -0.32311235356894       -3.24780082671910
H           -5.34061537042635       -3.94168606474870        2.24060033966828
H           -5.54153069344812       -5.19649717221422        0.99274791858186
H           -3.91470975133175       -4.57814804431018        1.36794231152260
H           -3.52232466112626       -2.34930427857605        2.20684175478336
H           -2.60799159561733       -0.10219923718370        2.15233660393749
H           -3.15599466880952        2.36401869026064       -1.81995664687020
H           -1.80051404742604        3.14675985525344       -1.02050355479246
H           -1.89364896966149        0.15893611164162       -1.64800910943031
H           -1.22979242370674        1.39109733287367       -2.72121399730961
H           -0.97689000430063        1.37577701388630        0.99456021543286
H            0.46379535047228        2.01797102613356       -0.92210182431616
H            2.11012396841659       -0.58483339833565        0.64386240543902
H            2.19281573837629        1.08136103387790        0.05246980482005
H            2.65649719294010        0.20318332812753       -2.25786052947684
H            2.72670158037129       -1.43749831124261       -1.59447605828566
H            4.41981743493964        1.81680739896715       -1.79581187051981
H            6.70846228046440        2.23076471899000       -1.07087184277923
H            8.42195932131227        2.50152087558571        0.53272268066591
H            9.03468814027412        1.81295494176829       -0.99884880074804
H            9.89581698977920        1.50230915277021        0.52844688863907
H            7.32333047527951       -3.58798597597947        1.70385426572279
H            5.65622303347080       -2.97487592790383        1.81833455089643
H            6.27165958738399       -3.62065284277185        0.26782590058020
H            4.52444499586502       -2.06651601671239       -0.04064904947121
H           -0.19623803761323       -1.63371490822357       -1.72711152682714
H           -1.01494537539333       -1.31270056541971       -0.18340386506066
H            0.59806851176963       -2.04019915504921       -0.19902984203765
H           -4.90527400999690        2.63918693636652       -0.22479583140262
H           -4.12386065230230        2.72553011785690        2.71371089606130
H           -5.13649264775832        1.48167669398973        1.96754177839714
H           -5.69588780880632        3.15077448906107        2.03852103718897
H           -3.00066241513591        4.51662610901815        1.22989666774700
H           -3.44975404825254        4.60250924290552       -0.48274782179251
H           -4.65117237368306        4.90722323249826        0.76026432514523
H           -1.02506725815839        2.79712376427536        2.84023832250577

 Bond Distances (Angstroems)
 ---------------------------
N1-C2=1.2513         N1-H72=1.0156        C2-N1=1.2513         C2-C3=1.5060         C2-H47=1.1044        C3-C2=1.5060         
C3-C4=1.5178         C3-C14=1.5510        C3-C31=1.5590        C4-C3=1.5178         C4-C5=1.3953         C4-C13=1.3901        
C5-C4=1.3953         C5-C6=1.3764         C5-H34=1.0777        C6-C5=1.3764         C6-O7=1.4523         C6-C9=1.3999         
O7-C6=1.4523         O7-C8=1.4573         O7-H36=0.7812        C8-O7=1.4573         C8-H35=1.0823        C8-H37=1.0800        
C9-C6=1.3999         C9-O10=1.3607        C9-C12=1.3886        O10-C9=1.3607        O10-C11=1.4133       C11-O10=1.4133       
C11-H38=1.0926       C11-H39=1.0877       C11-H40=1.0928       C12-C9=1.3886        C12-C13=1.3893       C12-H41=1.0773       
C13-C4=1.3901        C13-C12=1.3893       C13-H42=1.0788       C14-C3=1.5510        C14-C15=1.5394       C14-H43=1.0896       
C14-H44=1.0900       C15-C14=1.5394       C15-C16=1.4804       C15-H45=1.0886       C15-H46=1.0979       C16-C15=1.4804       
C16-N17=1.3358       C16-H48=1.0791       N17-C16=1.3358       N17-C18=1.4424       N17-C30=1.4420       C18-N17=1.4424       
C18-C19=1.5415       C18-H49=1.0935       C18-H50=1.0918       C19-C18=1.5415       C19-C20=1.5024       C19-H51=1.0913       
C19-H52=1.0908       C20-C19=1.5024       C20-C21=1.3841       C20-C29=1.3933       C21-C20=1.3841       C21-C22=1.3867       
C21-H53=1.0795       C22-C21=1.3867       C22-C23=1.3865       C22-H54=1.0775       C23-C22=1.3865       C23-O24=1.3484       
C23-C26=1.4208       O24-C23=1.3484       O24-C25=1.4086       C25-O24=1.4086       C25-H55=1.0945       C25-H56=1.0942       
C25-H57=1.0882       C26-C23=1.4208       C26-O27=1.3506       C26-C29=1.3850       O27-C26=1.3506       O27-C28=1.4067       
C28-O27=1.4067       C28-H58=1.0883       C28-H59=1.0951       C28-H60=1.0947       C29-C20=1.3933       C29-C26=1.3850       
C29-H61=1.0789       C30-N17=1.4420       C30-H62=1.0928       C30-H63=1.0930       C30-H64=1.0872       C31-C3=1.5590        
C31-C32=1.5274       C31-C33=1.5265       C31-H65=1.0967       C32-C31=1.5274       C32-H66=1.0848       C32-H67=1.0876       
C32-H68=1.0865       C33-C31=1.5265       C33-H69=1.0851       C33-H70=1.0864       C33-H71=1.0866       H34-C5=1.0777        
H35-C8=1.0823        H36-O7=0.7812        H37-C8=1.0800        H38-C11=1.0926       H39-C11=1.0877       H40-C11=1.0928       
H41-C12=1.0773       H42-C13=1.0788       H43-C14=1.0896       H44-C14=1.0900       H45-C15=1.0886       H46-C15=1.0979       
H47-C2=1.1044        H48-C16=1.0791       H49-C18=1.0935       H50-C18=1.0918       H51-C19=1.0913       H52-C19=1.0908       
H53-C21=1.0795       H54-C22=1.0775       H55-C25=1.0945       H56-C25=1.0942       H57-C25=1.0882       H58-C28=1.0883       
H59-C28=1.0951       H60-C28=1.0947       H61-C29=1.0789       H62-C30=1.0928       H63-C30=1.0930       H64-C30=1.0872       
H65-C31=1.0967       H66-C32=1.0848       H67-C32=1.0876       H68-C32=1.0865       H69-C33=1.0851       H70-C33=1.0864       
H71-C33=1.0866       H72-N1=1.0156        
 C  H  Rav=1.0882 sigma=0.0065  Rmin=1.0773  Rmax=1.1044    37
 C  C  Rav=1.4522 sigma=0.0688  Rmin=1.3764  Rmax=1.5590    22
 N  H  Rav=1.0156 sigma=0.0000  Rmin=1.0156  Rmax=1.0156     1
 N  C  Rav=1.3679 sigma=0.0801  Rmin=1.2513  Rmax=1.4424     4
 O  H  Rav=0.7812 sigma=0.0000  Rmin=0.7812  Rmax=0.7812     1
 O  C  Rav=1.3997 sigma=0.0402  Rmin=1.3484  Rmax=1.4573     8

 selected bond angles (degree)
 --------------------
H72-N1-C2=117.17               C3-C2-N1=124.35                H47-C2-N1=123.83               H47-C2-C3=111.74               
C4-C3-C2=109.63                C14-C3-C2=105.90               C14-C3-C4=110.30               C31-C3-C2=113.67               
C31-C3-C4=107.63               C31-C3-C14=109.71              C5-C4-C3=120.20                C13-C4-C3=121.94               
C13-C4-C5=117.80               C6-C5-C4=119.90                H34-C5-C4=121.59               H34-C5-C6=118.50               
O7-C6-C5=121.46                C9-C6-C5=122.61                C9-C6-O7=115.93                C8-O7-C6=119.99                
H36-O7-C6=107.77               H36-O7-C8=109.91               H35-C8-O7=112.73               H37-C8-O7=110.54               
H37-C8-H35=115.05              O10-C9-C6=115.49               C12-C9-C6=117.38               C12-C9-O10=127.13              
C11-O10-C9=118.54              

 selected dihedral angles (degree)
 ---------------------------------
C3-C2-N1-H72=182.55           H47-C2-N1-H72=358.98          C4-C3-C2-N1=241.12            C4-C3-C2-H47= 64.32           
C14-C3-C2-N1=122.13           C14-C3-C2-H47=305.32          C31-C3-C2-N1=  1.62           C31-C3-C2-H47=184.81          
C5-C4-C3-C2=193.99            C5-C4-C3-C14=310.23           C5-C4-C3-C31= 69.90           C13-C4-C3-C2= 16.69           
C13-C4-C3-C14=132.93          C13-C4-C3-C31=252.60          C6-C5-C4-C3=182.07            C6-C5-C4-C13=359.49           
H34-C5-C4-C3=  1.14           H34-C5-C4-C13=178.55          O7-C6-C5-C4=181.05            O7-C6-C5-H34=  1.96           
C9-C6-C5-C4=  0.90            C9-C6-C5-H34=181.81           C8-O7-C6-C5=329.75            C8-O7-C6-C9=149.89            
H36-O7-C6-C5=203.03           H36-O7-C6-C9= 23.17           H35-C8-O7-C6=308.39           H35-C8-O7-H36= 74.11          
H37-C8-O7-C6= 78.73           H37-C8-O7-H36=204.45          O10-C9-C6-C5=178.76           O10-C9-C6-O7=358.62           
C12-C9-C6-C5=359.23           C12-C9-C6-O7=179.09           C11-O10-C9-C6=180.78          C11-O10-C9-C12=  0.25         
           -------------------------------------------------
          |                Final Singlepoint                |
           -------------------------------------------------

          ...................................................
          :                      SETUP                      :
          :.................................................:
          :  # basis functions                 171          :
          :  # atomic orbitals                 171          :
          :  # shells                          105          :
          :  # electrons                       180          :
          :  max. iterations                   250          :
          :  Hamiltonian                  GFN2-xTB          :
          :  restarted?                      false          :
          :  GBSA solvation                  false          :
          :  PC potential                    false          :
          :  electronic temp.         5000.0000000     K    :
          :  accuracy                    1.0000000          :
          :  -> integral cutoff          0.2500000E+02      :
          :  -> integral neglect         0.1000000E-07      :
          :  -> SCF convergence          0.1000000E-05 Eh   :
          :  -> wf. convergence          0.1000000E-03 e    :
          :  Broyden damping             0.4000000          :
          ...................................................

 iter      E             dE          RMSdq      gap      omega  full diag
   1   -100.6815134 -0.100682E+03  0.503E-05    1.04       0.0  T
   2   -100.6815134  0.708980E-10  0.487E-05    1.04     241.8  T
   3   -100.6815134  0.132871E-10  0.429E-05    1.04     274.5  T

   *** convergence criteria satisfied after 3 iterations ***

         #    Occupation            Energy/Eh            Energy/eV
      -------------------------------------------------------------
         1        2.0000           -0.8793175             -23.9274
       ...           ...                  ...                  ...
        84        1.9979           -0.5105754             -13.8935
        85        1.9978           -0.5100416             -13.8789
        86        1.9934           -0.4924538             -13.4004
        87        1.9841           -0.4784185             -13.0184
        88        1.9654           -0.4660002             -12.6805
        89        1.8848           -0.4462747             -12.1438
        90        1.5730           -0.4226744             -11.5016 (HOMO)
        91        0.4946           -0.3844018             -10.4601 (LUMO)
        92        0.0555           -0.3457013              -9.4070
        93        0.0318           -0.3367161              -9.1625
        94        0.0259           -0.3334363              -9.0733
        95        0.0037           -0.3022474              -8.2246
       ...           ...                  ...                  ...
       171                          0.5876834              15.9917
      -------------------------------------------------------------
                  HL-Gap            0.0382727 Eh            1.0415 eV
             Fermi-level           -0.4020264 Eh          -10.9397 eV

 SCC (total)                   0 d,  0 h,  0 min,  0.118 sec
 SCC setup                      ...        0 min,  0.001 sec (  0.745%)
 Dispersion                     ...        0 min,  0.002 sec (  1.346%)
 classical contributions        ...        0 min,  0.000 sec (  0.366%)
 integral evaluation            ...        0 min,  0.018 sec ( 15.341%)
 iterations                     ...        0 min,  0.027 sec ( 22.596%)
 molecular gradient             ...        0 min,  0.069 sec ( 59.045%)
 printout                       ...        0 min,  0.001 sec (  0.548%)

         :::::::::::::::::::::::::::::::::::::::::::::::::::::
         ::                     SUMMARY                     ::
         :::::::::::::::::::::::::::::::::::::::::::::::::::::
         :: total energy             -99.850534879318 Eh    ::
         :: gradient norm              0.003274352309 Eh/a0 ::
         :: HOMO-LUMO gap              1.041452351506 eV    ::
         ::.................................................::
         :: SCC energy              -100.681513403410 Eh    ::
         :: -> isotropic ES            0.106784763958 Eh    ::
         :: -> anisotropic ES          0.009199429980 Eh    ::
         :: -> anisotropic XC          0.045996000857 Eh    ::
         :: -> dispersion             -0.075010883294 Eh    ::
         :: repulsion energy           1.442214732306 Eh    ::
         :: add. restraining          -0.612499398588 Eh    ::
         :: total charge               1.000000000015 e     ::
         :::::::::::::::::::::::::::::::::::::::::::::::::::::

           -------------------------------------------------
          |                Property Printout                |
           -------------------------------------------------

    * Orbital Energies and Occupations

         #    Occupation            Energy/Eh            Energy/eV
      -------------------------------------------------------------
         1        2.0000           -0.8793175             -23.9274
       ...           ...                  ...                  ...
        78        1.9992           -0.5261024             -14.3160
        79        1.9991           -0.5236779             -14.2500
        80        1.9991           -0.5233898             -14.2422
        81        1.9988           -0.5196861             -14.1414
        82        1.9986           -0.5171667             -14.0728
        83        1.9980           -0.5115003             -13.9186
        84        1.9979           -0.5105754             -13.8935
        85        1.9978           -0.5100416             -13.8789
        86        1.9934           -0.4924538             -13.4004
        87        1.9841           -0.4784185             -13.0184
        88        1.9654           -0.4660002             -12.6805
        89        1.8848           -0.4462747             -12.1438
        90        1.5730           -0.4226744             -11.5016 (HOMO)
        91        0.4946           -0.3844018             -10.4601 (LUMO)
        92        0.0555           -0.3457013              -9.4070
        93        0.0318           -0.3367161              -9.1625
        94        0.0259           -0.3334363              -9.0733
        95        0.0037           -0.3022474              -8.2246
        96        0.0031           -0.2995679              -8.1517
        97        0.0000           -0.2158112              -5.8725
        98        0.0000           -0.1769859              -4.8160
        99        0.0000           -0.1757206              -4.7816
       100                         -0.1266241              -3.4456
       101                         -0.0882918              -2.4025
       ...                                ...                  ...
       171                          0.5876834              15.9917
      -------------------------------------------------------------
                  HL-Gap            0.0382727 Eh            1.0415 eV
             Fermi-level           -0.4020264 Eh          -10.9397 eV

     #   Z          covCN         q      C6AA      α(0)
     1   7 N        1.774    -0.281    28.102     7.850
     2   6 C        2.827     0.096    25.856     8.332
     3   6 C        3.907     0.006    20.419     6.423
     4   6 C        2.978     0.007    27.853     8.657
     5   6 C        2.920    -0.054    29.332     8.881
     6   6 C        2.849     0.067    26.493     8.436
     7   8 O        2.499    -0.116    16.036     5.408
     8   6 C        2.698    -0.136    31.451     9.179
     9   6 C        2.860     0.121    25.328     8.249
    10   8 O        1.705    -0.276    18.579     5.820
    11   6 C        3.643     0.029    20.435     6.498
    12   6 C        2.918    -0.070    29.742     8.943
    13   6 C        2.924    -0.046    29.132     8.851
    14   6 C        3.812    -0.066    21.760     6.640
    15   6 C        3.802    -0.067    21.786     6.645
    16   6 C        2.842    -0.005    28.150     8.695
    17   7 N        2.729    -0.002    21.307     6.856
    18   6 C        3.755    -0.014    20.887     6.516
    19   6 C        3.808    -0.070    21.830     6.651
    20   6 C        2.970    -0.003    28.086     8.693
    21   6 C        2.922    -0.051    29.255     8.870
    22   6 C        2.914    -0.069    29.714     8.939
    23   6 C        2.865     0.131    25.126     8.217
    24   8 O        1.706    -0.228    17.786     5.694
    25   6 C        3.646     0.027    20.454     6.500
    26   6 C        2.863     0.131    25.135     8.218
    27   8 O        1.706    -0.231    17.828     5.701
    28   6 C        3.645     0.029    20.413     6.494
    29   6 C        2.920    -0.081    30.017     8.984
    30   6 C        3.699    -0.064    21.898     6.693
    31   6 C        3.853    -0.008    20.676     6.467
    32   6 C        3.756    -0.118    22.824     6.812
    33   6 C        3.755    -0.120    22.850     6.816
    34   1 H        0.926     0.075     2.032     2.229
    35   1 H        0.925     0.022     2.701     2.570
    36   1 H        0.811     0.357     0.572     1.187
    37   1 H        0.926     0.033     2.545     2.495
    38   1 H        0.924     0.056     2.246     2.344
    39   1 H        0.925     0.078     1.995     2.209
    40   1 H        0.924     0.052     2.300     2.372
    41   1 H        0.926     0.061     2.191     2.315
    42   1 H        0.926     0.054     2.275     2.359
    43   1 H        0.925     0.058     2.223     2.332
    44   1 H        0.925     0.057     2.229     2.335
    45   1 H        0.925     0.057     2.231     2.336
    46   1 H        0.924     0.075     2.034     2.230
    47   1 H        0.923     0.002     3.023     2.719
    48   1 H        0.926     0.063     2.162     2.299
    49   1 H        0.924     0.062     2.170     2.304
    50   1 H        0.924     0.066     2.128     2.281
    51   1 H        0.924     0.053     2.284     2.364
    52   1 H        0.924     0.052     2.293     2.368
    53   1 H        0.926     0.042     2.417     2.431
    54   1 H        0.926     0.055     2.253     2.347
    55   1 H        0.924     0.051     2.306     2.375
    56   1 H        0.924     0.053     2.283     2.363
    57   1 H        0.925     0.079     1.986     2.204
    58   1 H        0.925     0.079     1.992     2.207
    59   1 H        0.924     0.045     2.382     2.413
    60   1 H        0.924     0.049     2.328     2.386
    61   1 H        0.926     0.043     2.405     2.425
    62   1 H        0.924     0.071     2.079     2.255
    63   1 H        0.924     0.068     2.109     2.271
    64   1 H        0.925     0.076     2.018     2.222
    65   1 H        0.924     0.033     2.540     2.493
    66   1 H        0.925     0.068     2.104     2.268
    67   1 H        0.925     0.027     2.624     2.533
    68   1 H        0.925     0.050     2.318     2.381
    69   1 H        0.925     0.063     2.161     2.299
    70   1 H        0.925     0.035     2.513     2.479
    71   1 H        0.925     0.054     2.275     2.358
    72   1 H        0.860     0.153     1.384     1.843

 Mol. C6AA /au·bohr⁶  :      47845.112373
 Mol. C8AA /au·bohr⁸  :    1092944.601802
 Mol. α(0) /au        :        336.826815


Wiberg/Mayer (AO) data.
largest (>0.10) Wiberg bond orders for each atom

 ---------------------------------------------------------------------------
     #   Z sym  total        # sym  WBO       # sym  WBO       # sym  WBO
 ---------------------------------------------------------------------------
     1   7 N    3.023 --     2 C    1.946    72 H    0.945
     2   6 C    3.922 --     1 N    1.946     3 C    0.993    47 H    0.912
     3   6 C    3.981 --     2 C    0.993     4 C    0.978    14 C    0.956
                            31 C    0.942
     4   6 C    3.961 --    13 C    1.410     5 C    1.368     3 C    0.978
     5   6 C    3.946 --     6 C    1.432     4 C    1.368    34 H    0.953
     6   6 C    3.819 --     5 C    1.432     9 C    1.302     7 O    0.862
     7   8 O    2.616 --     6 C    0.862    36 H    0.853     8 C    0.813
     8   6 C    2.835 --    37 H    0.980    35 H    0.979     7 O    0.813
     9   6 C    3.915 --    12 C    1.370     6 C    1.302    10 O    1.068
    10   8 O    2.225 --     9 C    1.068    11 C    0.970
    11   6 C    3.929 --    39 H    0.978    40 H    0.977    38 H    0.977
                            10 O    0.970
    12   6 C    3.953 --    13 C    1.417     9 C    1.370    41 H    0.963
    13   6 C    3.955 --    12 C    1.417     4 C    1.410    42 H    0.962
    14   6 C    3.972 --    15 C    0.983    44 H    0.972    43 H    0.968
                             3 C    0.956
    15   6 C    3.989 --    16 C    1.057    14 C    0.983    45 H    0.963
                            46 H    0.931
    16   6 C    3.522 --    17 N    1.359    15 C    1.057    48 H    0.959
    17   7 N    3.432 --    16 C    1.359    30 C    1.002    18 C    0.990
    18   6 C    3.957 --    17 N    0.990    50 H    0.968    19 C    0.966
                            49 H    0.965
    19   6 C    3.976 --    20 C    1.008    51 H    0.973    52 H    0.972
                            18 C    0.966
    20   6 C    3.953 --    21 C    1.416    29 C    1.376    19 C    1.008
    21   6 C    3.958 --    20 C    1.416    22 C    1.413    53 H    0.968
    22   6 C    3.965 --    21 C    1.413    23 C    1.390    54 H    0.964
    23   6 C    3.904 --    22 C    1.390    26 C    1.227    24 O    1.102
    24   8 O    2.254 --    23 C    1.102    25 C    0.978
    25   6 C    3.932 --    24 O    0.978    57 H    0.977    55 H    0.974
                            56 H    0.973
    26   6 C    3.907 --    29 C    1.401    23 C    1.227    27 O    1.095
    27   8 O    2.253 --    26 C    1.095    28 C    0.981
    28   6 C    3.936 --    27 O    0.981    58 H    0.977    59 H    0.974
                            60 H    0.974
    29   6 C    3.963 --    26 C    1.401    20 C    1.376    61 H    0.963
    30   6 C    3.964 --    17 N    1.002    64 H    0.978    62 H    0.968
                            63 H    0.967
    31   6 C    3.979 --    32 C    1.009    33 C    1.009    65 H    0.964
                             3 C    0.942
    32   6 C    3.987 --    31 C    1.009    67 H    0.984    68 H    0.983
                            66 H    0.977
    33   6 C    3.986 --    31 C    1.009    70 H    0.984    71 H    0.981
                            69 H    0.978
    34   1 H    0.993 --     5 C    0.953
    35   1 H    0.991 --     8 C    0.979
    36   1 H    0.871 --     7 O    0.853
    37   1 H    0.991 --     8 C    0.980
    38   1 H    0.996 --    11 C    0.977
    39   1 H    0.993 --    11 C    0.978
    40   1 H    0.997 --    11 C    0.977
    41   1 H    0.995 --    12 C    0.963
    42   1 H    0.997 --    13 C    0.962
    43   1 H    0.995 --    14 C    0.968
    44   1 H    0.996 --    14 C    0.972
    45   1 H    0.996 --    15 C    0.963
    46   1 H    0.968 --    15 C    0.931
    47   1 H    0.992 --     2 C    0.912
    48   1 H    0.996 --    16 C    0.959
    49   1 H    0.991 --    18 C    0.965
    50   1 H    0.994 --    18 C    0.968
    51   1 H    0.996 --    19 C    0.973
    52   1 H    0.996 --    19 C    0.972
    53   1 H    0.998 --    21 C    0.968
    54   1 H    0.995 --    22 C    0.964
    55   1 H    0.993 --    25 C    0.974
    56   1 H    0.993 --    25 C    0.973
    57   1 H    0.993 --    25 C    0.977
    58   1 H    0.993 --    28 C    0.977
    59   1 H    0.995 --    28 C    0.974
    60   1 H    0.994 --    28 C    0.974
    61   1 H    0.997 --    29 C    0.963
    62   1 H    0.984 --    30 C    0.968
    63   1 H    0.988 --    30 C    0.967
    64   1 H    0.994 --    30 C    0.978
    65   1 H    0.996 --    31 C    0.964
    66   1 H    0.994 --    32 C    0.977
    67   1 H    0.999 --    32 C    0.984
    68   1 H    0.996 --    32 C    0.983
    69   1 H    0.994 --    33 C    0.978
    70   1 H    0.998 --    33 C    0.984
    71   1 H    0.995 --    33 C    0.981
    72   1 H    0.973 --     1 N    0.945
 ---------------------------------------------------------------------------

Topologies differ in total number of bonds
Writing topology from bond orders to xtbtopo.mol

molecular dipole:
                 x           y           z       tot (Debye)
 q only:       -1.062      -1.214      -0.522
   full:       -0.768      -1.563      -0.365       4.523
molecular quadrupole (traceless):
                xx          xy          yy          xz          yz          zz
 q only:       53.284      24.785     -10.205      -0.242      -8.408     -43.079
  q+dip:       45.795      32.035      -5.338      -4.932     -13.953     -40.457
   full:       45.918      31.608      -5.757      -7.182     -13.708     -40.161

           -------------------------------------------------
          |                Geometry Summary                 |
           -------------------------------------------------

      molecular mass/u    :      455.6105846
   center of mass at/Å    :        0.0006919       0.0142378      -0.0356678
  moments of inertia/u·Å² :        0.2427230E+04   0.1125666E+05   0.1246216E+05
rotational constants/cm⁻¹ :        0.6945213E-02   0.1497570E-02   0.1352705E-02

 * 66 selected distances

     #   Z          #   Z                                           value/Å
     1   7 N        2   6 C                                       1.2513137
     4   6 C        5   6 C                                       1.3953317
     5   6 C        6   6 C                                       1.3764453
     6   6 C        7   8 O                                       1.4522547
     7   8 O        8   6 C                                       1.4573363
     6   6 C        9   6 C                                       1.3999430
     9   6 C       10   8 O                                       1.3606603
    10   8 O       11   6 C                                       1.4133019
     9   6 C       12   6 C                                       1.3886318
     4   6 C       13   6 C                                       1.3900773
    12   6 C       13   6 C                                       1.3892850
    14   6 C       15   6 C                                       1.5394311
    15   6 C       16   6 C                                       1.4803594
    16   6 C       17   7 N                                       1.3358385
    17   7 N       18   6 C                                       1.4423909
    18   6 C       19   6 C                                       1.5414973 (max)
    20   6 C       21   6 C                                       1.3841060
    21   6 C       22   6 C                                       1.3867159
    22   6 C       23   6 C                                       1.3865150
    23   6 C       24   8 O                                       1.3484233
    24   8 O       25   6 C                                       1.4086081
    23   6 C       26   6 C                                       1.4208144
    26   6 C       27   8 O                                       1.3506341
    27   8 O       28   6 C                                       1.4067168
    20   6 C       29   6 C                                       1.3933320
    26   6 C       29   6 C                                       1.3850341
    17   7 N       30   6 C                                       1.4419744
    31   6 C       32   6 C                                       1.5273644
    31   6 C       33   6 C                                       1.5264908
     5   6 C       34   1 H                                       1.0777150
     8   6 C       35   1 H                                       1.0822614
     7   8 O       36   1 H                                       0.7812105 (min)
     8   6 C       37   1 H                                       1.0799510
    11   6 C       38   1 H                                       1.0925540
    11   6 C       39   1 H                                       1.0877079
    11   6 C       40   1 H                                       1.0927533
    12   6 C       41   1 H                                       1.0772674
    13   6 C       42   1 H                                       1.0788184
    14   6 C       43   1 H                                       1.0895559
    14   6 C       44   1 H                                       1.0900003
    15   6 C       45   1 H                                       1.0885716
    15   6 C       46   1 H                                       1.0978615
    16   6 C       48   1 H                                       1.0790968
    18   6 C       49   1 H                                       1.0935441
    18   6 C       50   1 H                                       1.0918016
    19   6 C       51   1 H                                       1.0913036
    19   6 C       52   1 H                                       1.0907504
    21   6 C       53   1 H                                       1.0795210
    22   6 C       54   1 H                                       1.0775420
    25   6 C       55   1 H                                       1.0944563
    25   6 C       56   1 H                                       1.0942261
    25   6 C       57   1 H                                       1.0882403
    28   6 C       58   1 H                                       1.0882783
    28   6 C       59   1 H                                       1.0950897
    28   6 C       60   1 H                                       1.0946569
    29   6 C       61   1 H                                       1.0788807
    30   6 C       62   1 H                                       1.0928452
    30   6 C       63   1 H                                       1.0930003
    30   6 C       64   1 H                                       1.0871862
    31   6 C       65   1 H                                       1.0966535
    32   6 C       66   1 H                                       1.0848474
    32   6 C       67   1 H                                       1.0876432
    32   6 C       68   1 H                                       1.0864807
    33   6 C       69   1 H                                       1.0850683
    33   6 C       70   1 H                                       1.0864277
    33   6 C       71   1 H                                       1.0866039

 * 5 distinct bonds (by element types)

   Z      Z             #   av. dist./Å        max./Å        min./Å
   1 H    6 C          36     1.0877545     1.0978615     1.0772674
   6 C    6 C          17     1.4300809     1.5414973     1.3764453
   6 C    7 N           4     1.3678794     1.4423909     1.2513137
   1 H    8 O           1     0.7812105     0.7812105     0.7812105
   6 C    8 O           8     1.3997419     1.4573363     1.3484233


optimized geometry written to: xtbopt.xyz


           -------------------------------------------------
          | TOTAL ENERGY              -99.850534879318 Eh   |
          | GRADIENT NORM               0.003274352309 Eh/α |
          | HOMO-LUMO GAP               1.041452351506 eV   |
           -------------------------------------------------

------------------------------------------------------------------------
 * finished run on 2024/04/06 at 11:16:06.610     
------------------------------------------------------------------------
 total:
 * wall-time:     0 d,  0 h,  0 min,  5.223 sec
 *  cpu-time:     0 d,  0 h,  0 min,  5.202 sec
 * ratio c/w:     0.996 speedup
 SCF:
 * wall-time:     0 d,  0 h,  0 min,  0.191 sec
 *  cpu-time:     0 d,  0 h,  0 min,  0.191 sec
 * ratio c/w:     1.000 speedup
 ANC optimizer:
 * wall-time:     0 d,  0 h,  0 min,  4.989 sec
 *  cpu-time:     0 d,  0 h,  0 min,  4.986 sec
 * ratio c/w:     0.999 speedup

