25
 energy: 50.225638187425 xtb: 6.6.1 (8d0f1dd)
C            3.28712014227419        1.40698293133695        0.10574218991443
N            2.49191226459321        0.21688068236445        0.03006181930872
C            2.93948284586669       -1.04025555995620        0.03037356262581
N            1.84980622223094       -1.84997821031822       -0.00212172712590
C            0.65318070044907       -1.12519353889566       -0.02052014567506
C            1.12439786695861        0.19393003078042        0.00603448085132
C            0.25368503898542        1.33235784310390       -0.01474836996807
O            0.63545818764155        2.49911372890921       -0.01250615595160
N           -1.06656296983463        0.95051953007509       -0.03715092292750
C           -2.03615975328779        2.04341009844884       -0.04975325971679
C           -1.56444302836695       -0.38876257112318       -0.05375709544553
O           -2.77224032822600       -0.47775933719611       -0.07397260365804
N           -0.66953790725540       -1.44604750621731       -0.04334707136764
C           -2.47469967568454       -3.05535795320582       -0.06616477757371
H            3.77098689108777        1.47497858399648        1.08257507306340
H            4.05076024627354        1.37446207019329       -0.67023482531180
H            2.64135944258087        2.27602807990526       -0.03777650076433
H            3.99770977664390       -1.25170945532496        0.04587628837594
H           -1.43376321390902        2.95546094045484       -0.02580840248982
H           -2.65046199933086        2.02866538128802       -0.95079725285794
H           -2.69569468445800        2.00988627435435        0.81833360161679
H           -2.16536135241303       -3.53814339018654        0.83108414130767
H           -2.17725184090624       -3.54671357626932       -0.96166062445598
H           -3.37269141916939       -2.46484883358835       -0.06821075891084
H            1.88820176046033       -2.84185913050184       -0.02154218247913
