72
 energy: 0.000000000000 xtb: 6.6.1 (8d0f1dd)
N           -1.47310921155849        2.74401293103706        2.22063921685122
C           -1.55658879776851        2.16490285539332        1.13274273951491
C           -2.74549199786261        2.05621232186130        0.23826248438941
C           -3.31377553111525        0.64333411542669        0.32332512650568
C           -4.30230156009016        0.24487110156316       -0.58026161703006
C           -4.85238763031941       -1.02286490450319       -0.53363588718165
O           -5.81419972815119       -1.48606034185536       -1.36157882725342
C           -6.39655633239252       -0.60827000183299       -2.29568474302620
C           -4.39972501531283       -1.94646102182611        0.44396929121966
O           -4.98748311285188       -3.16145997157803        0.41085992006324
C           -4.66362127904578       -4.10093827755394        1.40909127743729
C           -3.42072513477031       -1.54561384810496        1.33436546260297
C           -2.88302799614223       -0.26315800396994        1.27400150770375
C           -2.19303798107274        2.30467000305896       -1.18742977106749
C           -1.26651538239283        1.17243369445008       -1.65249429687285
C            0.01082524939134        1.09745454476277       -0.89354803499847
N            0.61779393476578       -0.02034948052406       -0.57705522512502
C            2.00145210352228       -0.02376006389122       -0.15611399603240
C            2.92554934655222       -0.53865282675074       -1.27700088804721
C            4.35756843073516       -0.43050757231754       -0.83075544324989
C            5.07346135469827        0.73206409086248       -1.03980965825901
C            6.38627986649936        0.84224441421807       -0.60344822702769
C            7.00047264773336       -0.20824756335880        0.05722314418200
O            8.26703657141718       -0.21011313101264        0.52410943644933
C            9.06912227848686        0.92943601033931        0.31863058007678
C            6.27039964270142       -1.40439753960823        0.28033466008274
O            6.94829939911432       -2.38012925705718        0.92751999079483
C            6.31537317745639       -3.61583200086742        1.15217711710877
C            4.96302794628964       -1.49347471867959       -0.16064430359178
C           -0.05511211367372       -1.29906247805359       -0.62085686319744
C           -3.86758037025447        3.07992600430699        0.58498060215443
C           -4.49286159663096        2.77383493050346        1.94313289484366
C           -3.39165179876499        4.52917666589254        0.54797523472093
H           -4.66030026466202        0.94509067363451       -1.31640568823548
H           -6.85037928558380        0.25803162192116       -1.80468845313260
H           -7.17287442604349       -1.18600110843259       -2.79318157561361
H           -5.66836817451085       -0.26952966318766       -3.04040255244073
H           -4.88416720672258       -3.71589460520039        2.40913542187496
H           -5.29223570620378       -4.96637458756866        1.20969236903657
H           -3.61139813139015       -4.39919835331056        1.35529357841967
H           -3.07077796610445       -2.21868765711333        2.10002662693138
H           -2.14562754426994        0.02067850696302        2.01001344383370
H           -3.02188875377605        2.38238012313952       -1.88813545054866
H           -1.65198530896729        3.25146700677685       -1.20556284570283
H           -1.81103374245520        0.23006524641044       -1.62116301628650
H           -0.99335688527853        1.37490212198123       -2.69443256973690
H           -0.67628064361333        1.65183887049447        0.61785727145403
H            0.63525841192517        1.98466369793744       -0.92314021190751
H            2.11132552493482       -0.65949692842762        0.72532613231274
H            2.30680473056284        0.98978251704176        0.11078972794250
H            2.76694198818247        0.06750735147374       -2.17075252200790
H            2.67954581369920       -1.57455627803457       -1.51167743520200
H            4.62169998552446        1.56295612048703       -1.56123579000624
H            6.92357674630170        1.75715815945204       -0.79119596719031
H            8.65159112996149        1.81001823324363        0.81701555159939
H            9.20136171144928        1.14042857828877       -0.74698991949293
H           10.03428838009630        0.69003240176163        0.76064937965836
H            7.05567174969094       -4.23621171795340        1.65347565939075
H            5.43848001056755       -3.50813558175093        1.79970565785717
H            6.02060041905269       -4.09420497120334        0.21253282636366
H            4.40102758497114       -2.40127266373392       -0.00490198249042
H           -0.22071299714579       -1.61775583601871       -1.65116008982042
H           -1.01972258008625       -1.24102717432227       -0.10935206830928
H            0.55899954147532       -2.04486085926761       -0.12333730421426
H           -4.63991875734388        2.95501092798550       -0.18098088071825
H           -3.76095216473977        2.90314704960906        2.73380821053058
H           -4.87457614030224        1.75695641518947        1.97884603101694
H           -5.31925552549014        3.45579210326349        2.12325564252114
H           -2.60025590131176        4.69225046143352        1.27368918226171
H           -3.03987406413880        4.81897652321898       -0.43870975059559
H           -4.22191740670577        5.18069648090034        0.80616693961239
H           -0.59832433787845        2.77744694953323        2.72958984441332
72
 energy: -6.684991336014 xtb: 6.6.1 (8d0f1dd)
N           -1.57352714092514        2.81142940121349        2.25817945304487
C           -1.57693684541834        2.14238657687192        1.19385339593834
C           -2.74910384249837        2.03701976714149        0.25782183030773
C           -3.33629255851947        0.63939792062485        0.32825011318053
C           -4.32137834033980        0.24628768759317       -0.57950270146547
C           -4.88381377933521       -1.01487075054740       -0.53375715383625
O           -5.85577928668122       -1.47424890979729       -1.37385839516689
C           -6.40648092627131       -0.58404032356147       -2.31185576382129
C           -4.44893591914570       -1.93700399894599        0.44345354094613
O           -5.06292232358725       -3.15576879870188        0.41014867405994
C           -4.74869204503028       -4.08518070494671        1.41243357718121
C           -3.47071187000038       -1.54647306266785        1.33916851942901
C           -2.92342763582331       -0.26952479568822        1.28259929640305
C           -2.16775093204875        2.26419079624563       -1.15927238774156
C           -1.23218953727181        1.16190852514420       -1.67134483963337
C            0.04353004559692        1.11958241866114       -0.90912232673933
N            0.65592169676780       -0.06289015860077       -0.52045574547580
C            2.03438890101945       -0.05651550807128       -0.14312450740469
C            2.96390717713880       -0.53504133837375       -1.28281947426568
C            4.38893166013686       -0.42811823157603       -0.85568354199911
C            5.10469460739529        0.73867192795474       -1.05382061629450
C            6.41361134241844        0.85457316439575       -0.60847164850459
C            7.03062620571185       -0.19944450908119        0.04135635851025
O            8.31369697176263       -0.19747329947241        0.50788786818902
C            9.09216503370207        0.95246549080656        0.28925382975203
C            6.30328289417949       -1.39200059969831        0.26073011394564
O            6.98999154834312       -2.37803131830382        0.90701906085154
C            6.34038542313723       -3.60313618568224        1.11644447328589
C            4.99631289492947       -1.48815956155543       -0.18185018729226
C           -0.02439506770898       -1.32803652446553       -0.55737001791552
C           -3.87167637794422        3.06752674455528        0.54770590868168
C           -4.52651422093281        2.78393219362899        1.90058850598491
C           -3.34149841008391        4.49872047821870        0.52166760275711
H           -4.65579829036722        0.94500144110200       -1.32846857316575
H           -6.84693071483697        0.29165194122629       -1.82353390631450
H           -7.18952042271510       -1.14739576205477       -2.81777049489365
H           -5.66315199382327       -0.25356872581208       -3.04799848533186
H           -4.95798835875722       -3.68856144150621        2.41187580986346
H           -5.38710803860760       -4.95017651403307        1.23034437234817
H           -3.69831396704224       -4.38643440937899        1.35552123075482
H           -3.12662295576870       -2.22615305745957        2.10202014316606
H           -2.17951125326271        0.01227839575720        2.01074127798746
H           -2.99337106418988        2.33449516375112       -1.85694508262671
H           -1.62031260944118        3.20668293228464       -1.17156262256030
H           -1.75020912092575        0.20901198033482       -1.62111384842659
H           -1.04893120995739        1.36885644124602       -2.73752296404426
H           -0.69955918181081        1.63510046859553        0.72862318358932
H            0.69237094848134        1.97574420196799       -1.01472978079506
H            2.17181074310095       -0.69075555602779        0.73859554118557
H            2.32308857676963        0.95984143615914        0.13054415596980
H            2.77232160737290        0.10407484767576       -2.14638160251082
H            2.71842120149858       -1.56690807425647       -1.53833813366844
H            4.65201921492010        1.57904083084144       -1.55977918537392
H            6.94278219980669        1.77861138599779       -0.78005190608726
H            8.66619762659323        1.82951954345367        0.78941372199660
H            9.20659549428620        1.17112302473089       -0.77917047824806
H           10.06533486244123        0.72886580049596        0.72363048959859
H            7.07504131533760       -4.24455722149258        1.59900377133902
H            5.46387623835922       -3.48850569900321        1.76579907430495
H            6.02952908371607       -4.06824783357799        0.17511889025119
H            4.42723300046948       -2.39180924263231       -0.02297014076830
H           -0.17714231154598       -1.68469520702871       -1.58325211948236
H           -0.99713060025165       -1.25761945948285       -0.06156068030314
H            0.56951126043440       -2.07323088139293       -0.02986440761759
H           -4.63000379777068        2.96547118444155       -0.23987293824355
H           -3.78059283639490        2.89474128593623        2.68382267820011
H           -4.91741159470588        1.76950212414642        1.93736188884090
H           -5.34310725331380        3.48439253507437        2.07279168405287
H           -2.56591242146198        4.61954067624675        1.26888885386698
H           -2.94782706521030        4.76538113741042       -0.45412499587228
H           -4.14159894587444        5.19428984943718        0.76282442755272
H           -0.72586543105206        2.80873827017895        2.81274511445348
72
 energy: -5.734121678168 xtb: 6.6.1 (8d0f1dd)
N           -1.66770158152009        2.84043963247354        2.27807227087295
C           -1.60911252352154        2.13213323243942        1.23952167978006
C           -2.74763166609194        2.00647583380653        0.26184747849147
C           -3.35645379156613        0.62190807448535        0.32777489449677
C           -4.34029813900890        0.24324213710503       -0.58649528862107
C           -4.92103650990559       -1.00933557984219       -0.53781490023411
O           -5.89533046053039       -1.45493369737108       -1.38293773206779
C           -6.41794560879019       -0.55690693594709       -2.32914215784846
C           -4.50310153454972       -1.93477276237846        0.44330330558702
O           -5.13698057282864       -3.14436445610606        0.41178237955223
C           -4.83460371883838       -4.07206502762575        1.41749772478301
C           -3.52214813958175       -1.55785924510448        1.34228734782667
C           -2.96177000499998       -0.28808140140494        1.28713410445401
C           -2.13453213666674        2.21614015987351       -1.14459658812860
C           -1.18706107331640        1.12069009238033       -1.65422593993832
C            0.09850406213196        1.10118555635255       -0.91044658225694
N            0.68504508157983       -0.07689937226259       -0.45717970988767
C            2.07515823401136       -0.06921043175772       -0.11472821533798
C            2.98828302969869       -0.52071840877375       -1.27991590258869
C            4.41807920120485       -0.41798323019590       -0.87199626262898
C            5.12897389860670        0.75354353644823       -1.06326134115939
C            6.43817148217927        0.87026754045852       -0.61887646413525
C            7.06146190116779       -0.18764289264297        0.01890422809743
O            8.34989392029406       -0.17865551150490        0.47484133506691
C            9.11468525525425        0.98006180755544        0.25505692841670
C            6.33631592535232       -1.38289548756886        0.23503053842569
O            7.02704228957313       -2.37326253631317        0.86939061410411
C            6.36600655488803       -3.59186662094219        1.07664105942752
C            5.02616559933730       -1.48043178383435       -0.20208345459649
C            0.00306607415053       -1.34445491488249       -0.48064987530245
C           -3.86247712965484        3.05607208227028        0.51017209800823
C           -4.55402373689440        2.78980360445809        1.85001789959716
C           -3.28234648456679        4.46924463957168        0.49671642463582
H           -4.65440254028961        0.94333001708471       -1.34343276685426
H           -6.84518221355517        0.32685051959936       -1.84489586422931
H           -7.20591507538695       -1.10754793492849       -2.84069790553432
H           -5.66271749128172       -0.24147309673581       -3.06120472063852
H           -5.03535060948136       -3.66783845629638        2.41579932645446
H           -5.48467877781906       -4.93021964022109        1.24244125166638
H           -3.78835753961611       -4.38391970696752        1.35709036510895
H           -3.18736310399618       -2.24065243364825        2.10611429217952
H           -2.22264219646195       -0.01382840102225        2.02038202435599
H           -2.94921180040142        2.26884496877050       -1.85711852139295
H           -1.58649770952951        3.15755924952920       -1.15772311228100
H           -1.68914282549930        0.15970683169007       -1.60587133450844
H           -1.02677648442826        1.32676190399143       -2.72442973412619
H           -0.71575609316894        1.61806545914817        0.81998604644704
H            0.76037915535757        1.93502085148883       -1.09134641578499
H            2.23319529677864       -0.71676612998427        0.74991748762592
H            2.36044101498752        0.94572753055810        0.17252150710361
H            2.77342922135043        0.14065675352435       -2.11965153544062
H            2.74248774896830       -1.54881200611064       -1.54922263795872
H            4.66540344024031        1.59950177886076       -1.55449380538049
H            6.96075819811202        1.80141784835213       -0.77485379916310
H            8.68619679136081        1.85099261010172        0.76360143234636
H            9.21517356093921        1.20493385660297       -0.81391169856471
H           10.09337761756955        0.76522975605378        0.68181384044736
H            7.09831758111454       -4.24588342235070        1.54422215434706
H            5.49361734190179       -3.47069857558830        1.73215212738719
H            6.04368758208454       -4.04729891282641        0.13521543094839
H            4.45470856848026       -2.38388004611277       -0.04392135788936
H           -0.12646577861759       -1.73367822656349       -1.50011193277920
H           -0.98017099204960       -1.26421213785493       -0.00773636478624
H            0.57758678089777       -2.08121017042115        0.07981435355806
H           -4.59984163329019        2.97075973202236       -0.29835448432952
H           -3.81842107903055        2.89044158849935        2.64247984111981
H           -4.96558123350190        1.78298489023817        1.89274170837338
H           -5.35524837073406        3.50989068331924        2.00387464935923
H           -2.52678187086603        4.55699655383822        1.26594812871779
H           -2.85124336561935        4.72038679214559       -0.46650936121732
H           -4.05837444967623        5.19608166234420        0.71925233723482
H           -0.86960976543197        2.84378881193355        2.89469193011799
72
 energy: -3.736449148327 xtb: 6.6.1 (8d0f1dd)
N           -1.75937329336195        2.85173780674291        2.30453553348536
C           -1.64155723813904        2.11948247522189        1.28570090821784
C           -2.74204581400140        1.97679021053239        0.26483363297954
C           -3.37335784321076        0.60446958578703        0.32721594286645
C           -4.35678475971056        0.24031341156073       -0.59310422923029
C           -4.95634376854462       -1.00294738063705       -0.54238373017952
O           -5.93315906904912       -1.43523457142449       -1.39220760394372
C           -6.43176346723379       -0.53082753282554       -2.34510455145998
C           -4.55627106754844       -1.93185907472494        0.44267760183584
O           -5.20905742722754       -3.13213261565955        0.41137042829964
C           -4.92054767011765       -4.05969943325495        1.41999947033368
C           -3.57233624518550       -1.56908139325534        1.34407319137656
C           -2.99682575147062       -0.30739164273870        1.29029647676866
C           -2.10559307391424        2.16434311021900       -1.13444554645356
C           -1.14454429459785        1.07870422773289       -1.63198339363923
C            0.14104926564277        1.08262958522276       -0.88939342538049
N            0.71397427713946       -0.08607202247538       -0.39248693357923
C            2.11201556630357       -0.07000596072031       -0.07978399793629
C            3.00549943097855       -0.49788105462801       -1.26660533050782
C            4.44024616796544       -0.40338708261104       -0.87963826071497
C            5.14387861409240        0.77330346511596       -1.06563835054203
C            6.45593311646010        0.88937123546285       -0.63007634428539
C            7.08630193144508       -0.17268987100791       -0.00531588548985
O            8.37919075705873       -0.15975278846095        0.44081208690055
C            9.13438669266962        1.00522579959244        0.21996848839982
C            6.36535593571997       -1.37171883457681        0.20838815857644
O            7.05999808264515       -2.36533081697155        0.83304469818874
C            6.39290391823179       -3.58041338636734        1.03772230453896
C            5.05249069087101       -1.47112063101007       -0.22191998337883
C            0.03389140183127       -1.35608046822375       -0.40605687986772
C           -3.84420344731895        3.04620812464418        0.47536966008512
C           -4.57721427337654        2.79892577529432        1.79848795903739
C           -3.21947868313907        4.44121231059155        0.47342306594643
H           -4.65122112060235        0.94133547342322       -1.35732863192109
H           -6.84505489111034        0.36113965821241       -1.86494660723482
H           -7.22543257307568       -1.06890158059659       -2.86033892173666
H           -5.66775045291357       -0.23033273465033       -3.07504370383820
H           -5.11313926307296       -3.64850244617063        2.41703630055622
H           -5.58349902999387       -4.90907285545697        1.24828442549495
H           -3.87927296390426       -4.38617662217376        1.35901783990109
H           -3.24601843566154       -2.25518537563861        2.10807151566053
H           -2.25759757525421       -0.04210401808416        2.02542515289261
H           -2.90983020000365        2.19624146153817       -1.85895038604043
H           -1.55632898939604        3.10213192607986       -1.15811716634307
H           -1.63304969528528        0.11147830639036       -1.58979540105602
H           -0.98055858466365        1.28113384995067       -2.70027835222246
H           -0.73437578955842        1.59229763370443        0.91456788915557
H            0.82334155736862        1.88610442719330       -1.13038516810955
H            2.29318247224477       -0.73162081327313        0.76587720309626
H            2.39176398545943        0.94465566409647        0.21556388775417
H            2.77071329606870        0.17798747419089       -2.08839160013893
H            2.75636047235023       -1.52121102764073       -1.54331336826030
H            4.67092847189133        1.62433875914627       -1.54420302653831
H            6.97281118942936        1.82569714978983       -0.77795112562954
H            8.70445477903275        1.87047260479354        0.73701055524082
H            9.22268324456306        1.23675951708230       -0.84900567190926
H           10.11801557105485        0.79555784034721        0.63808013800508
H            7.12585711554024       -4.24244199009711        1.49185566295147
H            5.52482506407133       -3.45766358848476        1.69995154843081
H            6.05960349790409       -4.02787319302266        0.09659941665376
H            4.48074774056508       -2.37550784229619       -0.06509558000111
H           -0.07690261990110       -1.77160405623336       -1.41837527837923
H           -0.95825519663953       -1.26795874884875        0.04547830463530
H            0.59455296712831       -2.08040542016880        0.18226051705077
H           -4.56213379373816        2.97599160889695       -0.35107709620983
H           -3.86177373935408        2.89161812581517        2.60775111950089
H           -5.00245412249430        1.79768238022349        1.84117123762238
H           -5.36656395676030        3.53394794543442        1.93433675783347
H           -2.48240172804769        4.50308270781709        1.26209973836535
H           -2.75462542181919        4.67439705673499       -0.47719496292875
H           -3.97416624726455        5.19452398833161        0.67567858526848
H           -1.01530542121854        2.84444401532210        2.98347007780825
72
 energy: -1.317396713277 xtb: 6.6.1 (8d0f1dd)
N           -1.84604586735189        2.83551087145616        2.34017817902173
C           -1.67196212141440        2.09791233949084        1.33184527090233
C           -2.73310988287454        1.94542633398448        0.26827199641781
C           -3.38947273337881        0.58581070381198        0.32560112211192
C           -4.37291732599454        0.23670589684087       -0.60052003750855
C           -4.99149308140325       -0.99656126467463       -0.54777110510885
O           -5.97097455924091       -1.41502827565496       -1.40184586747190
C           -6.44715366490153       -0.50511070472228       -2.36084911239705
C           -4.60921211016300       -1.92892202918798        0.44116791445631
O           -5.28116366759885       -3.11908126162221        0.41092944055472
C           -5.00656186003066       -4.04712057281787        1.42236078616583
C           -3.62218553732730       -1.58064264884746        1.34455310596304
C           -3.03076514217820       -0.32791317292014        1.29157374238659
C           -2.07593768973629        2.11019401210028       -1.12446591042571
C           -1.10017078614382        1.03461483180921       -1.60360371143171
C            0.17813779442577        1.05903529555701       -0.84806538544528
N            0.74480843758391       -0.09860460051946       -0.32446712344593
C            2.14870046483561       -0.06822665160244       -0.03915007664316
C            3.02142630598677       -0.46940424699568       -1.24540898467992
C            4.46096974304277       -0.38254249950176       -0.88239577694551
C            5.15791168112048        0.79818896585881       -1.06565255771325
C            6.47378904938014        0.91124867940195       -0.64195351945533
C            7.11057952740536       -0.15551026807584       -0.03070307056066
O            8.40801210606983       -0.14003485435630        0.40422579836990
C            9.15435331392510        1.03060787600318        0.18384279623200
C            6.39313583666765       -1.35798956178798        0.18135192287754
O            7.09200870781843       -2.35559823716547        0.79452081578047
C            6.42044779522486       -3.56823060766174        0.99843136269729
C            5.07734388815135       -1.45817620405763       -0.24061560424105
C            0.06659412728743       -1.36944044394946       -0.32956283555529
C           -3.81793981190272        3.03640212352419        0.44293291673151
C           -4.59926174177589        2.80833001756022        1.74487417765856
C           -3.15199697487989        4.41331931092198        0.45262487343875
H           -4.64803929142169        0.93846194206113       -1.37147468543089
H           -6.84634011522535        0.39501293586124       -1.88497697583082
H           -7.24688322779663       -1.03102576645912       -2.87858627845008
H           -5.67657206182611       -0.21963864979308       -3.09011978045320
H           -5.19115626700820       -3.62978253214181        2.41824836450472
H           -5.68219814781593       -4.88736134198760        1.25363266790656
H           -3.97029689834989       -4.38801598779942        1.36176056129121
H           -3.30521724808007       -2.26870219175038        2.11031415158887
H           -2.29162892908267       -0.07287799551403        2.02913468802964
H           -2.87022955607936        2.11745989985500       -1.86037851112041
H           -1.52608095321763        3.04393573731847       -1.16222276695574
H           -1.57917039575431        0.06295536455240       -1.56734309527892
H           -0.91883313998549        1.23072775287670       -2.66763127723123
H           -0.75277671878519        1.56253413149885        1.00491142645249
H            0.88278461411840        1.83620074726845       -1.10503692746545
H            2.35286928382559       -0.73795637513821        0.79016744992619
H            2.42302622425203        0.94640979494574        0.26122199317390
H            2.76553939778369        0.21588598125998       -2.05264524097451
H            2.76899300927502       -1.48711684606629       -1.52938512127863
H            4.67556125417501        1.65402324467637       -1.52972757228515
H            6.98576978639384        1.85143450250369       -0.78502110861798
H            8.72399491570008        1.88997777435726        0.71039483720928
H            9.23078447739969        1.26936337227000       -0.88467064553940
H           10.14276157400260        0.82447835567703        0.59226526274411
H            7.15586785277951       -4.23580097359281        1.43962453474759
H            5.55723491644428       -3.44455623581807        1.66797880049738
H            6.07641890618521       -4.00946602987782        0.05839380002530
H            4.50577650208665       -2.36376282732637       -0.08539697790805
H           -0.02606483155614       -1.80923876385143       -1.33418623565165
H           -0.93445006149380       -1.27281902323645        0.09949925013929
H            0.61532793232657       -2.07947623333619        0.28478571841681
H           -4.51501899127473        2.98097020074418       -0.40191686801937
H           -3.91340583346596        2.89198509497312        2.57740488439083
H           -5.03965321748550        1.81323678223205        1.78529335705626
H           -5.37672272838181        3.55750893795020        1.86080579929187
H           -2.43106576646903        4.45390415496360        1.25789242504981
H           -2.65716756361666        4.62910730373169       -0.48606352846429
H           -3.88728315474136        5.18936055125568        0.63431234986177
H           -1.15870892821685        2.82024499459654        3.07664560172170
72
 energy: 1.493831924794 xtb: 6.6.1 (8d0f1dd)
N           -1.93269806962089        2.80038832138236        2.38357695854739
C           -1.70283268637207        2.06961448936927        1.37995163583528
C           -2.72241280088425        1.91269360216405        0.27253416976447
C           -3.40479860267534        0.56593472757686        0.32352577682273
C           -4.38836920422850        0.23243364400190       -0.60843717477727
C           -5.02634007040301       -0.99016577603795       -0.55379957164594
O           -6.00880376910695       -1.39404861731856       -1.41165077805043
C           -6.46361782066810       -0.47942665602459       -2.37637806551154
C           -4.66215623460539       -1.92597430627387        0.43902413928244
O           -5.35332075135038       -3.10534289819599        0.41037760109808
C           -5.09261696046214       -4.03425650021740        1.42447507288802
C           -3.67226025380618       -1.59287335516478        1.34458178142752
C           -3.06435360777886       -0.34985379912791        1.29225489162374
C           -2.04715434937130        2.05459887150724       -1.11478356307643
C           -1.05494405667543        0.98949890922334       -1.57084087686298
C            0.21032297534708        1.03233856820480       -0.79166572448768
N            0.77658777589315       -0.11400192102717       -0.25296880590947
C            2.18520276040089       -0.06606406296970        0.00626434327432
C            3.03565331849907       -0.43828303753852       -1.21923770908382
C            4.48081446716255       -0.35718146038789       -0.88376722774364