72
 energy: 0.000000000000 xtb: 6.6.1 (8d0f1dd)
N           -1.47310934822924        2.74401318561852        2.22063942287560
C           -1.55658894218425        2.16490305624665        1.13274284460745
C           -2.74549225258129        2.05621251263064        0.23826250649470
C           -3.31377583855761        0.64333417511334        0.32332515650284
C           -4.30230195924506        0.24487112428158       -0.58026167086503
C           -4.85238808050968       -1.02286499940159       -0.53363593669082
O           -5.81420026757557       -1.48606047972767       -1.36157895357670
C           -6.39655692584623       -0.60827005826649       -2.29568495601309
C           -4.39972542350640       -1.94646120241305        0.44396933240983
O           -4.98748357557592       -3.16146026488900        0.41085995818162
C           -4.66362171172287       -4.10093865802695        1.40909140816864
C           -3.42072545213514       -1.54561399150247        1.33436558640148
C           -2.88302826362110       -0.26315802838497        1.27400162590187
C           -2.19303818453636        2.30467021687947       -1.18742988123374
C           -1.26651549989641        1.17243380322503       -1.65249445018642
C            0.01082525039567        1.09745464658138       -0.89354811789923
N            0.61779399208289       -0.02034948241203       -0.57705527866251
C            2.00145228921113       -0.02376006609561       -0.15611401051620
C            2.92554961797610       -0.53865287672537       -1.27700100652360
C            4.35756883501756       -0.43050761225877       -0.83075552032494
C            5.07346182539911        0.73206415878124       -1.03980975472950
C            6.38628045899965        0.84224449235903       -0.60344828301384
C            7.00047329721665       -0.20824758267940        0.05722314949100
O            8.26703733840855       -0.21011315050632        0.52410948507466
C            9.06912311989339        0.92943609656965        0.31863060963839
C            6.27040022445068       -1.40439766990411        0.28033468609137
O            6.94830004375713       -2.38012947787858        0.92752007684741
C            6.31537376337817       -3.61583233633369        1.15217722400438
C            4.96302840674480       -1.49347485723979       -0.16064431849589
C           -0.05511211878686       -1.29906259857679       -0.62085692079872
C           -3.86758072907722        3.07992629005348        0.58498065642721
C           -4.49286201346546        2.77383518785172        1.94313307512182
C           -3.39165211343248        4.52917708609625        0.54797528556046
H           -4.66030069703099        0.94509076131725       -1.31640581036773
H           -6.85037992114187        0.25803164586058       -1.80468862056629
H           -7.17287509152171       -1.18600121846629       -2.79318183475679
H           -5.66836870040540       -0.26952968819383       -3.04040283452035
H           -4.88416765986127       -3.71589494995018        2.40913564538747
H           -5.29223619720187       -4.96637504833431        1.20969248126828
H           -3.61139846644506       -4.39919876145526        1.35529370415983
H           -3.07077825100221       -2.21868786295666        2.10002682176568
H           -2.14562774333496        0.02067850888151        2.01001363031684
H           -3.02188903413801        2.38238034416975       -1.88813562572432
H           -1.65198546223364        3.25146730843841       -1.20556295755141
H           -1.81103391047759        0.23006526775522       -1.62116316669324
H           -0.99335697743926        1.37490224954061       -2.69443281971844
H           -0.67628070635666        1.65183902374723        0.61785732877701
H            0.63525847086258        1.98466388206871       -0.92314029755375
H            2.11132572081740       -0.65949698961381        0.72532619960637
H            2.30680494458141        0.98978260887088        0.11078973822125
H            2.76694224489122        0.06750735773687       -2.17075272340394
H            2.67954606229959       -1.57455642411728       -1.51167757545099
H            4.62170041431221        1.56295626549351       -1.56123593485311
H            6.92357738865082        1.75715832247601       -0.79119604059515
H            8.65159193263071        1.81001840117181        0.81701562739969
H            9.20136256512460        1.14042868409438       -0.74698998879646
H           10.03428931104811        0.69003246578081        0.76064945022918
H            7.05567240429544       -4.23621211097668        1.65347581279537
H            5.43848051513375       -3.50813590722545        1.79970582482858
H            6.02060097762632       -4.09420535105165        0.21253284608183
H            4.40102799328555       -2.40127288651695       -0.00490198294521
H           -0.22071301762289       -1.61775598610935       -1.65116024301020
H           -1.01972267469312       -1.24102728946113       -0.10935207845464
H            0.55899959333766       -2.04486104898380       -0.12333731565713
H           -4.63991918782192        2.95501120214274       -0.18098089750912
H           -3.76095251366987        2.90314731895452        2.73380846416528
H           -4.87457659255110        1.75695657819473        1.97884621460846
H           -5.31925601899505        3.45579242388173        2.12325583951056
H           -2.60025614255587        4.69225089676674        1.27368930043085
H           -3.03987434616939        4.81897697030947       -0.43870979129779
H           -4.22191779840287        5.18069696155015        0.80616701440619
H           -0.59832439338922        2.77744720721660        2.72959009765665
72
 energy: -5.473005228427 xtb: 6.6.1 (8d0f1dd)
N           -1.50088898770030        2.77822256284013        2.24158095877900
C           -1.56591935997895        2.15198817201401        1.15953872903711
C           -2.74611546169342        2.05700634802743        0.24421003451219
C           -3.31931545058285        0.64767246620377        0.32668378445656
C           -4.30582024527039        0.24638071079181       -0.57699313916338
C           -4.85451525029211       -1.02141828693564       -0.53269605754155
O           -5.82166366066958       -1.48693345262686       -1.36416190746706
C           -6.39787848446910       -0.60639850954291       -2.29728870615296
C           -4.40493843763592       -1.94352840014231        0.44307969584689
O           -4.99806825722214       -3.16389922504742        0.40966408492973
C           -4.67196811260891       -4.09938269541983        1.40837628600637
C           -3.42894376669048       -1.54273161435790        1.33530404907100
C           -2.89233691546482       -0.26003299315844        1.27704547670177
C           -2.19321144157621        2.29501935905973       -1.18565798579852
C           -1.25775357470869        1.17962129202811       -1.67592798130670
C            0.01135760247389        1.12003319279686       -0.89439681181058
N            0.63333959585353       -0.04093933729370       -0.55878140274708
C            2.00936045820275       -0.03687123536021       -0.15326781524241
C            2.93558129296008       -0.54060131076415       -1.27784686220512
C            4.36423426512888       -0.43308624301031       -0.84212753694633
C            5.07801539035820        0.73281637052183       -1.04389652188262
C            6.38831672379917        0.84438528674411       -0.60314449293219
C            7.00234409415993       -0.20693007166992        0.05613071898241
O            8.27722810061498       -0.21007540579938        0.52379346491258
C            9.07201895752404        0.93128433687168        0.31546779350735
C            6.27393891340619       -1.40117898038622        0.27836114257331
O            6.95543105875554       -2.38132070807488        0.92733500944097
C            6.31834917089619       -3.61420879700990        1.14879905469282
C            4.96955116682988       -1.49313228485143       -0.16625854538023
C           -0.04724104992767       -1.30838427096517       -0.61040895881220
C           -3.87112525253830        3.07705299584966        0.57936985305315
C           -4.49549428509908        2.77575581417575        1.93946508337912
C           -3.38888088012202        4.52497633000320        0.54777887901938
H           -4.65757681497682        0.94463861821745       -1.31826380909503
H           -6.84867092137010        0.26221218911907       -1.80654411871807
H           -7.17585565326466       -1.18136130136668       -2.79660207558003
H           -5.66749859429971       -0.26804128500386       -3.04011515650374
H           -4.89046636078439       -3.71254585670125        2.40882479910567
H           -5.30083461888368       -4.96571232600013        1.21115412046393
H           -3.61933169462947       -4.39698643256910        1.35511159420749
H           -3.07562689151773       -2.21913832861798        2.09757141162206
H           -2.14744559892365        0.02126572629129        2.00529698651226
H           -3.02406781353419        2.37854256527889       -1.88669977885784
H           -1.64974788897302        3.24064721204385       -1.20336753573201
H           -1.79416234952554        0.23280013697672       -1.62842439816439
H           -1.01489892097136        1.37934952171921       -2.72907053102460
H           -0.68671050691812        1.64636204325541        0.66070779745250
H            0.64891195704746        1.99234959152741       -0.95713507361082
H            2.12754588806820       -0.66765138035173        0.73211198121586
H            2.30223399803957        0.98174428643270        0.11134620003156
H            2.76403259615077        0.06982482565116       -2.16602953735438
H            2.68265785775052       -1.57487398408379       -1.51201075372124
H            4.62234732959710        1.56488737222213       -1.55985613700854
H            6.92548425763447        1.76044962366303       -0.78922271000234
H            8.65217764434995        1.81154342664432        0.81351338533711
H            9.20063218466769        1.14359352464424       -0.75095695073204
H           10.03907897975338        0.69499123739630        0.75564077159791
H            7.05728736531753       -4.23755767172211        1.64937294738647
H            5.44054777545414       -3.50589255274048        1.79515675810464
H            6.02100802485546       -4.09057935286075        0.20849941109294
H            4.40469659064358       -2.39880764946754       -0.00689328394166
H           -0.21618807678523       -1.62757393166870       -1.64347253209947
H           -1.01377351886864       -1.24290441323252       -0.10256322097002
H            0.56097795978630       -2.05657879754877       -0.10945346752035
H           -4.64528566101273        2.95935819026256       -0.18740644880500
H           -3.75532953491895        2.90103030984755        2.72372434363579
H           -4.87512552317475        1.75762907110864        1.97476640686683
H           -5.32156663363438        3.45915721248721        2.12335077489411
H           -2.59490254485332        4.67714664543424        1.27314554121422
H           -3.03044219851722        4.81050822419769       -0.43796700816021
H           -4.21595318308380        5.18306105932103        0.80524207361941
H           -0.62324802552600        2.78124300675514        2.75087438218817
72
 energy: -7.009655334547 xtb: 6.6.1 (8d0f1dd)
N           -1.55052835299885        2.82236776664064        2.25725452319205
C           -1.57924630028153        2.14752575352744        1.18954560682431
C           -2.74710679671490        2.05351162705066        0.24860531442327
C           -3.32609818963875        0.64761354921884        0.32730346444081
C           -4.31239253762445        0.24681948794158       -0.57593915560023
C           -4.86317392384613       -1.01921981062676       -0.53201414342409
O           -5.83513421250410       -1.48485961703517       -1.36792308112307
C           -6.40074786214223       -0.60048471012983       -2.30118570025765
C           -4.41925773348264       -1.94014696821296        0.44261757187735
O           -5.01908012024532       -3.16459313847570        0.40889217382141
C           -4.69062089487439       -4.09561809607216        1.40787246942579
C           -3.44490926352832       -1.54239902931977        1.33693325713516
C           -2.90655671965085       -0.26147099591821        1.27968385762180
C           -2.18881655172668        2.28552277202381       -1.18226739207025
C           -1.24609669718595        1.17810044707938       -1.68537836155950
C            0.01936757655441        1.13460377305582       -0.89369135697373
N            0.64638920908967       -0.05562290976478       -0.53611644383315
C            2.01874964518791       -0.04596124251824       -0.14781857591714
C            2.94670423058594       -0.54112844078758       -1.27787034957832
C            4.37390052758709       -0.43351673124332       -0.85204147132240
C            5.08632311408035        0.73426019973498       -1.04853605913243
C            6.39544232915388        0.84781643309188       -0.60456415588746
C            7.00936559941420       -0.20427217212274        0.05144683928902
O            8.29141030655651       -0.20738396498535        0.51880182069635
C            9.07743897309423        0.93669702867385        0.30756848531311
C            6.28381294058963       -1.39679575497031        0.27176440409865
O            6.96724655398430       -2.38127230389491        0.92278961232998
C            6.32432829456285       -3.61048616102553        1.14049117743503
C            4.98103442178736       -1.49133336391385       -0.17571260989350
C           -0.03917014669906       -1.31488246365939       -0.59273346052817
C           -3.87229336859978        3.07351447431324        0.57042166837064
C           -4.50012087180418        2.77651353129503        1.93064206857746
C           -3.37946758739110        4.51841548167246        0.54435288869491
H           -4.65550458027887        0.94398583837079       -1.32262928160731
H           -6.84685612415355        0.27183412492060       -1.81167972760609
H           -7.18155254395874       -1.16957457857338       -2.80383156292401
H           -5.66603539707962       -0.26521064941122       -3.04134171262249
H           -4.90619140798604       -3.70650260439024        2.40871116040572
H           -5.32006070963825       -4.96295678405628        1.21474847703494
H           -3.63785011554530       -4.39371586043028        1.35451133218820
H           -3.08930206611741       -2.22193312070283        2.09579013106829
H           -2.15617617792812        0.01797940248809        2.00250982062780
H           -3.02413357694652        2.37259753480478       -1.88041590671947
H           -1.64469853210558        3.23099520064441       -1.19904320457062
H           -1.76851144586836        0.22351545650097       -1.63326780230812
H           -1.03537198427513        1.38222804241235       -2.74856776218253
H           -0.70279403477601        1.62052624366889        0.73625048159151
H            0.67870653474825        1.98552258011814       -1.00012452504829
H            2.15632509259508       -0.67687158481622        0.73851025470548
H            2.30356773109994        0.97484274997792        0.11812587209325
H            2.76097280952668        0.07497253964847       -2.15927010186669
H            2.68924317529094       -1.57412112913115       -1.51540893579361
H            4.62571786714338        1.56743605387240       -1.55835350342586
H            6.93013418498087        1.76695496294250       -0.78499636340419
H            8.65518932114678        1.81583560761970        0.80640783992590
H            9.20085813239034        1.15102968743924       -0.75965976161387
H           10.04804589337174        0.70617939236015        0.74376327263887
H            7.06039079424742       -4.23917231834483        1.63935033515711
H            5.44618126537316       -3.50097064691968        1.78637323755412
H            6.02373309112173       -4.08351846125539        0.19910101922556
H            4.41310660583972       -2.39460685313337       -0.01338423704971
H           -0.20648642186717       -1.64468310615419       -1.62550411448473
H           -1.00842216154073       -1.24711812893889       -0.09064892562002
H            0.56203085193804       -2.06547538137695       -0.08348877316393
H           -4.64590946589368        2.96327485671171       -0.19915785321886
H           -3.75166857741905        2.89790310949832        2.70758556363311
H           -4.88140806306788        1.75874741736368        1.96728299526955
H           -5.32273311559918        3.46359488175756        2.11867195360252
H           -2.58511339305395        4.65277470724991        1.27266591736941
H           -3.01067934566232        4.79879440851452       -0.43912570478905
H           -4.19991280707015        5.18601301674304        0.80066296270986
H           -0.67562809739262        2.78635071343808        2.77816877921233
72
 energy: -6.615119519969 xtb: 6.6.1 (8d0f1dd)
N           -1.61921280339621        2.85520171761074        2.27753260467743
C           -1.60078500806260        2.14170397270700        1.22603922698715
C           -2.74921523260684        2.04498230428326        0.25260327237671
C           -3.33512458812424        0.64278550712636        0.32573770112657
C           -4.32157180024258        0.24630374467100       -0.57869890939901
C           -4.88034359813958       -1.01584593243887       -0.53300096257694
O           -5.85630724064562       -1.47761922971707       -1.37321598372566
C           -6.40656538934915       -0.58838777989069       -2.30883636614791
C           -4.44582783227436       -1.93678953557113        0.44234104855262
O           -5.05441610894574       -3.16191159182419        0.40914936832062
C           -4.72501807155904       -4.08924609773794        1.40851202671191
C           -3.47096140887566       -1.54556511109278        1.33875585949269
C           -2.92632612529298       -0.26833990976515        1.28151633033443
C           -2.17953150698305        2.27133773210301       -1.17544324428217
C           -1.23041538088662        1.16839656566519       -1.68323355704138
C            0.03481693961355        1.13893756063775       -0.89243136639377
N            0.66010883767419       -0.06858780968641       -0.50636731788435
C            2.03371411108292       -0.05378663872065       -0.13675100043525
C            2.95910920055105       -0.53831598904444       -1.27770519086351
C            4.38715469347715       -0.43025354722589       -0.86104798426104
C            5.09831330789187        0.73927031035438       -1.05337186092320
C            6.40724661131188        0.85465301904441       -0.60871381713691
C            7.02306131072071       -0.19917268975449        0.04157010751580
O            8.31053101690480       -0.20042730885868        0.50677278926144
C            9.08701917902254        0.94756177196967        0.29260058371227
C            6.30082925403411       -1.39139051316203        0.25926485080517
O            6.98468167428376       -2.37959428142885        0.91096496721334
C            6.33496586336493       -3.60473153447020        1.12504532238470
C            4.99815411001128       -1.48776084365630       -0.18860893630615
C           -0.02749468489554       -1.32337250771524       -0.56184398457539
C           -3.87229811455830        3.06946397659136        0.55737971926234
C           -4.50932245063025        2.77763134245563        1.91508467291659
C           -3.36143286998892        4.50867239627647        0.53696430051796
H           -4.65423032534973        0.94360557256657       -1.33016714250241
H           -6.84555953129111        0.28965209754087       -1.82223294487971
H           -7.19149916608772       -1.14831928043957       -2.81609080755316
H           -5.66456747963739       -0.26048218970838       -3.04540260242919
H           -4.93638842101417       -3.69701700358733        2.40952646316259
H           -5.35618402822780       -4.95688155328389        1.22097281861491
H           -3.67267470121501       -4.38969401328150        1.35395021306230
H           -3.11701113390385       -2.22759844140946        2.09602080989409
H           -2.17419436729539        0.00903132072949        2.00309387920920
H           -3.01663195032542        2.35990017728190       -1.87268972308203
H           -1.63455445898635        3.21605744372071       -1.19161267534558
H           -1.73719626860149        0.20550072854888       -1.63218278813476
H           -1.04422799647867        1.37976499502265       -2.75237768891023
H           -0.72200493020912        1.58682531585650        0.83672914719159
H            0.71717299952110        1.96633048208743       -1.04177724074443
H            2.19495677417960       -0.68788240731056        0.74693961704214
H            2.31372348564399        0.96758026138933        0.13196983746454
H            2.76011695712988        0.08435507528774       -2.15178152600477
H            2.70010171947419       -1.57022458025004       -1.52073656119694
H            4.63286432532192        1.57345539379055       -1.55711394684966
H            6.93762285641250        1.77795331833590       -0.78126900967137
H            8.66233412973335        1.82434392856363        0.79416849619378
H            9.20294831350346        1.16474213381766       -0.77540369093894
H           10.06262822238460        0.72466993581220        0.72234413797259
H            7.06708477737540       -4.24066717706293        1.62095587306958
H            5.45752056573727       -3.49269548179956        1.77169697689737
H            6.02988374134633       -4.07274625762198        0.18226618363467
H            4.42855886212997       -2.38967950951068       -0.02542984371810
H           -0.18666714313517       -1.66961159025849       -1.59243321159151
H           -1.00177658754804       -1.25258133728624       -0.06993402250955
H            0.56547359107237       -2.07310771300592       -0.03775966932122
H           -4.64105971371348        2.96682605755655       -0.21872244449130
H           -3.75633445973981        2.89392962909915        2.68783230969188
H           -4.89652015680076        1.76202722682733        1.95228009077980
H           -5.32568189154720        3.47125716394115        2.10443241047212
H           -2.56990364736583        4.62214360021818        1.27170495111663
H           -2.97817535782998        4.78287826073111       -0.44275709576287
H           -4.17204965341527        5.18928364911046        0.78947060840965
H           -0.75353504885928        2.80056347032166        2.81544207400173
72
 energy: -3.454731200937 xtb: 6.6.1 (8d0f1dd)
N           -1.73299459986090        2.89389920548599        2.31080821940981
C           -1.63567774538258        2.13227815888923        1.28453236834776
C           -2.75082344524241        2.02782626814525        0.25865365750912
C           -3.34859241857389        0.63170300873388        0.32210258156676
C           -4.33660158469467        0.24429334202330       -0.58405664635610
C           -4.91160650837031       -1.01042989376550       -0.53349460117080
O           -5.89481496719328       -1.46352244128067       -1.37867460420434
C           -6.41924188146865       -0.56652131752464       -2.31893670340148
C           -4.49296357108626       -1.93199588983986        0.44365679216988
O           -5.11696644135763       -3.15582481325077        0.41344349531269
C           -4.78543767571083       -4.07754600676086        1.41331199618436
C           -3.51480038799814       -1.55311090063495        1.34202559420892
C           -2.95747845472849       -0.28307618485218        1.28330948682003
C           -2.16208733041343        2.24560572099793       -1.16361787983344
C           -1.20382396328503        1.14839343950254       -1.67657055552160
C            0.06455769637582        1.13954399256755       -0.89725866989299
N            0.68141596644612       -0.08702597149788       -0.45856660785833
C            2.06006821804586       -0.06456838892840       -0.12032503474590
C            2.97922289296131       -0.52994559591107       -1.28156254747552
C            4.40938579190815       -0.42170271658902       -0.87703591318469
C            5.11911231085755        0.75051470469489       -1.06141340973931
C            6.42761147830977        0.86798895888299       -0.61507492439238
C            7.04635552134175       -0.18963737907427        0.02521271038861
O            8.34033427840226       -0.18707416215145        0.48834789710559
C            9.10179369953030        0.96794076379130        0.27227527399908
C            6.32897585609498       -1.38228887276992        0.23633316877534
O            7.01105964300890       -2.37657994539445        0.88881029820521
C            6.34915119138802       -3.59475180111019        1.09643539049982
C            5.02623437706585       -1.48040574251726       -0.21283726708854
C           -0.00680359627162       -1.33748862964457       -0.51022383204369
C           -3.86897550364665        3.06239409668644        0.53532892101436
C           -4.52561583804778        2.77936276489659        1.88675696659562
C           -3.32668714815892        4.49146159954850        0.52312162501565
H           -4.65281738281767        0.94236420911009       -1.34214129859568
H           -6.84490677054761        0.32190115534190       -1.83773838652165
H           -7.21200981753451       -1.11021284296946       -2.83298691731005
H           -5.66499454062386       -0.25330514992148       -3.05037518466147
H           -4.98803850167229       -3.67974562814151        2.41470224685298
H           -5.42022035479118       -4.94527900211752        1.23656307985596
H           -3.73415096242340       -4.38276695726483        1.35476088385413
H           -3.16532526133248       -2.23825275937383        2.09800894690916
H           -2.20423875906637       -0.00931779887972        2.00486959858586
H           -3.00092352974572        2.33482996652211       -1.86014487443824
H           -1.61580404474171        3.18881214686311       -1.18013254386401
H           -1.68562357803517        0.17256540932113       -1.63017027524411
H           -1.05170948043863        1.37360837836049       -2.75220403777500
H           -0.75288236276680        1.53340438360816        1.00888010030428
H            0.78199953948837        1.92769972380447       -1.10837349965992
H            2.25932910230532       -0.70666127790190        0.75572221301261
H            2.33427455498795        0.95631377097627        0.15531324089825
H            2.76137968426505        0.10459444381154       -2.14307838316353
H            2.71958774078755       -1.55992163343736       -1.53569516552599
H            4.64729998130622        1.58671525015378       -1.55585322194768
H            6.95071421176642        1.79820242107838       -0.77306340073918
H            8.67254693197000        1.83964108379905        0.77980549674873
H            9.20636639523017        1.19132431545468       -0.79640378047482
H           10.08527022328806        0.75748931896919        0.69171968913877
H            7.07343932056557       -4.24366713695322        1.58775943524730
H            5.47282716699272       -3.47744964532548        1.74415575159442
H            6.03706863792673       -4.05369018720783        0.15100487540328
H            4.45458216618732       -2.38097856363047       -0.05140950289126
H           -0.14695214538787       -1.71296874705180       -1.53650736368636
H           -0.99143612203922       -1.26149293734380       -0.03926711465134
H            0.57172869651822       -2.08323869495886        0.04257226298593
H           -4.62745217583349        2.97174392990529       -0.25318467103524
H           -3.76931242691005        2.88656677568595        2.65618410971890
H           -4.92428160541512        1.76812015156346        1.92339344866668
H           -5.33061615160667        3.48488438912285        2.07569277267198
H           -2.54181618438991        4.57177923050243        1.26948656011349
H           -2.91874493321936        4.75488791825510       -0.44988438495699
H           -4.11995394890621        5.19419682930683        0.76804541937457
H           -0.88559037671603        2.82688616169338        2.87764316144681
72
 energy: 1.105866401664 xtb: 6.6.1 (8d0f1dd)
N           -1.82535878622294        2.91272322106552        2.34555922056770
C           -1.66680014672493        2.12033203444403        1.33750842487776
C           -2.75088672828625        2.01063232641760        0.26645700263191
C           -3.36169157149940        0.62063940441233        0.32052356081687
C           -4.34997204723292        0.24227270113407       -0.58906236738232
C           -4.94143601148650       -1.00498598584218       -0.53514301404839
O           -5.93084065523107       -1.44857259479169       -1.38445062890293
C           -6.43174744286528       -0.54484107539171       -2.32981686043906
C           -4.53868786574485       -1.92797953957471        0.44441744274833
O           -5.17762614923507       -3.14884607444589        0.41720553615895
C           -4.84624559962164       -4.06660207319883        1.41809161473638
C           -3.55769223208771       -1.56096285543471        1.34480157669875
C           -2.98742080319783       -0.29789593437145        1.28580328745629
C           -2.14426388167752        2.21916109052437       -1.15093874833326
C           -1.17762350854762        1.12808498897697       -1.66878366175131
C            0.09321199503906        1.13676129607533       -0.89730916868416
N            0.70330358423858       -0.10281309984778       -0.41453012527234
C            2.08618320383183       -0.07368973974907       -0.10352894988300
C            2.99739938304090       -0.52104454053401       -1.28310185393317
C            4.42974107218392       -0.41240237751175       -0.89078806456063