72
 energy: -99.339429667293 gnorm: 0.106941438752 xtb: 6.6.1 (8d0f1dd)
N           -1.88327206529492        2.72527752987156        2.23232981545816
C           -1.84434621081799        2.11666861873544        1.14389559840624
C           -3.01483862651605        1.90325531006112        0.22508639583298
C           -3.50414950716783        0.46683851928629        0.32893601080086
C           -4.46618060322590       -0.00059332061669       -0.57146125440407
C           -4.93218241371871       -1.30446593183488       -0.52226962529082
O           -5.85938117248784       -1.83340295353747       -1.34719636338424
C           -6.49086062046289       -1.00856463757924       -2.29811129315971
C           -4.41510314955050       -2.19529706795982        0.45706928769550
O           -4.91347902075389       -3.44738290842029        0.42301647828740
C           -4.51645184860273       -4.36966511702420        1.41093707530532
C           -3.46708417896563       -1.72327606114196        1.35028535543567
C           -3.01748596118163       -0.40979002226421        1.28487501118080
C           -2.47348142027003        2.16175328496901       -1.20852213530086
C           -1.55429808660165        1.04927634843157       -1.73261760695607
C           -0.10008830289504        1.19252694497352       -1.04212793666666
N            0.53283481431093        0.07750861819393       -0.67747512102571
C            1.91240219480211        0.10184253763548       -0.25092806614158
C            2.87266959621585       -0.34350415684791       -1.37053862864132
C            4.29467702084118       -0.14359827452734       -0.92537320787198
C            4.93605745278763        1.06555662420286       -1.14042108602077
C            6.23442929113522        1.26929471841287       -0.70020252790206
C            6.91877559337784        0.26673066854546       -0.02797755535101
O            8.17682242857630        0.35679196069211        0.44183703674771
C            8.90414783848699        1.54533480311250        0.22995600377299
C            6.26846562894232       -0.97786510455976        0.19880806822169
O            7.00319435221451       -1.89970645545190        0.85250198421773
C            6.45189602358288       -3.17136135641288        1.09860936509469
C            4.96936906320900       -1.15765554525301       -0.25032770173008
C           -0.11413762818969       -1.21297906788845       -0.72353247451022
C           -4.20479991991455        2.85829632578686        0.53825725084101
C           -4.82722208625435        2.54280279451671        1.89655289089176
C           -3.81759359994014        4.33307323627443        0.47589721153661
H           -4.87491405492394        0.67390581291423       -1.30602414200068
H           -7.00584116699863       -0.16853923122161       -1.82248832504616
H           -7.22184399741063       -1.64336261746860       -2.79505980882828
H           -5.77972880971435       -0.63105105423010       -3.04029446561329
H           -4.75538591507993       -4.00813352577279        2.41534730158411
H           -5.08377867739787       -5.27613522180338        1.20929135977254
H           -3.44619584646457       -4.59119970860611        1.34671031631536
H           -3.07172896758767       -2.37126197981282        2.11553776507563
H           -2.29606577785026       -0.07303889552160        2.01308759644809
H           -3.31809218093151        2.25753351564116       -1.89153638481381
H           -1.93771098022423        3.11199992542881       -1.20985426166942
H           -2.38070416966551        0.03173030737704       -1.82941380261277
H           -1.34268186549413        1.26494414342982       -2.78551176391592
H           -0.91196453303629        1.70288686558777        0.69895274755295
H            0.73981156828839        2.14795447988799       -0.90181189833077
H            2.03498157458662       -0.55230419970668        0.61643805204836
H            2.17916793859436        1.11707946379598        0.05549780198445
H            2.67541242823256        0.25578637999903       -2.26116398538029
H            2.69244298914264       -1.39144563171559       -1.61213370896630
H            4.43120322159536        1.86014842185877       -1.66880376391190
H            6.70914750009756        2.21770526700841       -0.89073187441824
H            8.43039826726430        2.39869976609021        0.72491822119245
H            9.01939892121998        1.75893254389148       -0.83686843278213
H            9.88378172584661        1.37173867104164        0.67084227944366
H            7.23104689421307       -3.73424824730019        1.60876305727264
H            5.57044036661266       -3.10811575440064        1.74495316508948
H            6.18807465926319       -3.68191438149970        0.16719015268928
H            4.47132055537452       -2.10121291205409       -0.09115699801238
H           -0.26358954104235       -1.54240887464461       -1.75352045328476
H           -1.08860563463999       -1.16369415784219       -0.23213822972402
H            0.50239697287094       -1.94505770486445       -0.20843618891451
H           -4.96287226107548        2.67668064972783       -0.23171086228304
H           -4.10410432305635        2.71886000607587        2.68626525875740
H           -5.15750896377309        1.50815340107268        1.94641018312821
H           -5.68697984262144        3.18633203098171        2.06293331596511
H           -3.04680634613512        4.55540101782802        1.20773852894857
H           -3.46665132942874        4.61824125431990       -0.51246484525464
H           -4.68810360141581        4.94080874673774        0.70807465855837
H           -1.01995607590556        2.83802008788756        2.75366902116727
72
 energy: -99.387235110074 gnorm: 0.077675906814 xtb: 6.6.1 (8d0f1dd)
N           -1.88365303626622        2.72551023150048        2.23283841050948
C           -1.84507443488965        2.11730330569109        1.14427523847309
C           -3.01505597375566        1.90503705034713        0.22517891166635
C           -3.50312822182024        0.46744549438281        0.32799887926400
C           -4.46616304422762       -0.00009914317211       -0.57129351679705
C           -4.93184863086813       -1.30404209964884       -0.52217496414068
O           -5.85902208059910       -1.83310171677025       -1.34703297970068
C           -6.49066649010967       -1.00838460671859       -2.29790061143389
C           -4.41494649888839       -2.19483585936789        0.45730149225544
O           -4.91378948932558       -3.44677743663344        0.42353803664540
C           -4.51658625804626       -4.36936698628886        1.41108157135817
C           -3.46676970193649       -1.72275208489169        1.35028379665920
C           -3.01692293627818       -0.40926035111944        1.28443380860850
C           -2.47666098814920        2.18004783947444       -1.20710044305693
C           -1.52908086334494        1.10856635544816       -1.74348445909311
C           -0.13479069135089        1.14619294295453       -1.03592462968498
N            0.52760816261431        0.05385575545108       -0.67483861464929
C            1.90925265941754        0.09829383772518       -0.25153031136157
C            2.87214278856864       -0.34371343869690       -1.37060479129653
C            4.29427347655826       -0.14343905694360       -0.92540359984082
C            4.93563792707302        1.06566068490706       -1.14055717746282
C            6.23412836957319        1.26936634765434       -0.70044812491215
C            6.91851086660709        0.26671497286001       -0.02844798508457
O            8.17662009029855        0.35647138254762        0.44130787718974
C            8.90416373560910        1.54493681456563        0.22996904916095
C            6.26826540898024       -0.97788369490885        0.19854740058231
O            7.00317653145671       -1.89954022101162        0.85234260691084
C            6.45217221760997       -3.17127804397796        1.09856441742273
C            4.96906815832033       -1.15760524541705       -0.25035358474628
C           -0.11324230925785       -1.23321055556567       -0.72111613333520
C           -4.20577137724710        2.85848502043959        0.53853242995147
C           -4.82819812948589        2.54272596641152        1.89643946610888
C           -3.81834854408021        4.33325906855280        0.47607775195017
H           -4.87381999344661        0.67384017405599       -1.30680559679637
H           -7.00575299030212       -0.16842611266168       -1.82229554475031
H           -7.22158908374665       -1.64335274398026       -2.79472339942861
H           -5.77962841797650       -0.63079294544686       -3.04013373724219
H           -4.75554211072752       -4.00832492781238        2.41565039436146
H           -5.08377065817617       -5.27584957344870        1.20909502651342
H           -3.44630898372146       -4.59071756620634        1.34673238928624
H           -3.07159924889009       -2.37067202199340        2.11573474563709
H           -2.29603106358529       -0.07257656329711        2.01321882990643
H           -3.32088064618525        2.26416877671851       -1.89124273469468
H           -1.94575707015226        3.13082266919581       -1.20656264620907
H           -2.17260250667891        0.09641385423593       -1.74653066931144
H           -1.33336414376888        1.28566977982736       -2.80230519001718
H           -0.91338016975848        1.70097101802206        0.70006840129927
H            0.55876222622639        2.08861850668149       -0.97673620527845
H            2.03705744655801       -0.55362750060182        0.61646614864259
H            2.17472465418042        1.11453278512269        0.05418308625530
H            2.67432745198677        0.25547318890173       -2.26116281010193
H            2.69354911137421       -1.39181105422680       -1.61251389286176
H            4.43057978552261        1.86014197811889       -1.66885837150772
H            6.70873027770519        2.21786292822050       -0.89070772704940
H            8.43036413563940        2.39826169159905        0.72493992550240
H            9.01986440998615        1.75877146878445       -0.83675709801854
H            9.88358245971285        1.37102981339174        0.67120858361157
H            7.23141836695311       -3.73392909254396        1.60882611051124
H            5.57064792038756       -3.10820985621685        1.74482739935628
H            6.18852162556593       -3.68198066275042        0.16719115713426
H            4.47078277946704       -2.10095703239880       -0.09078079480316
H           -0.26247042444727       -1.55238422533043       -1.75388956731183
H           -1.08719034478718       -1.17538350601657       -0.22983033340158
H            0.50642415445560       -1.95998505735474       -0.20617930358607
H           -4.96327259952341        2.67670736027891       -0.23195562659084
H           -4.10518693181402        2.71911939805610        2.68614022718556
H           -5.15814150227981        1.50798640317723        1.94605754506554
H           -5.68804079404857        3.18615681595616        2.06241694947189
H           -3.04768804989212        4.55553713322233        1.20803747934577
H           -3.46710404729199        4.61863086603971       -0.51214843308090
H           -4.68885151466701        4.94099069331776        0.70794812280434
H           -1.02014860561323        2.83683013208223        2.75414278463176
72
 energy: -99.398794358417 gnorm: 0.093846042588 xtb: 6.6.1 (8d0f1dd)
N           -1.88295607271199        2.72683434830781        2.23240152195278
C           -1.84462315338788        2.11580585571043        1.14577318866196
C           -3.01099435837435        1.90632469100349        0.22297300139615
C           -3.49767957651793        0.46681241855101        0.32195259279494
C           -4.46477535518243        0.00041498726944       -0.57212426759816
C           -4.93092089791705       -1.30287718261622       -0.52189238491041
O           -5.85848073488991       -1.83235004273347       -1.34587896974388
C           -6.49033366976402       -1.00854580366697       -2.29724487984720
C           -4.41441160366329       -2.19377436726091        0.45795572921113
O           -4.91402744636961       -3.44544427422616        0.42505245790923
C           -4.51648990250947       -4.36868455521501        1.41186519358804
C           -3.46597148040318       -1.72149999749872        1.35051407333579
C           -3.01484145294613       -0.40856491653137        1.28249376939240
C           -2.45867230654093        2.18141584204775       -1.20309312659748
C           -1.49331669699987        1.10743337483114       -1.71479409417435
C           -0.16462613557800        1.12344308013857       -1.05382772544196
N            0.51595263735465        0.04568755205365       -0.68228258677401
C            1.89833903628003        0.10487455729258       -0.25721458501152
C            2.86824673485665       -0.34184650891565       -1.37050294563355
C            4.29101108280919       -0.14210514039528       -0.92380290361614
C            4.93389562112662        1.06606234255968       -1.14078617867072
C            6.23287397669779        1.26954816400706       -0.70139469315819
C            6.91743957577390        0.26705540609948       -0.02945071912458
O            8.17574041902672        0.35637813575152        0.44000518935411
C            8.90384769068364        1.54469227743371        0.22960381681319
C            6.26695295534874       -0.97742679174934        0.19801688042000
O            7.00257669796695       -1.89866953560951        0.85169898668436
C            6.45258110899926       -3.17065771205345        1.09862550806433
C            4.96698850096415       -1.15672876053939       -0.24965839909924
C           -0.11559667739259       -1.24599125620816       -0.72137628987444
C           -4.20450408110252        2.85793874793691        0.53678184530736
C           -4.82846236404066        2.54250745095561        1.89446061482929
C           -3.81961448652596        4.33359251325910        0.47583584640819
H           -4.86970767160522        0.67263197833582       -1.31015062648307
H           -7.00566499779460       -0.16862820772868       -1.82188817540092
H           -7.22111068760372       -1.64409065240421       -2.79365572328548
H           -5.77915017439623       -0.63109254199983       -3.03931705225390
H           -4.75544764639935       -4.00851265124089        2.41674456872213
H           -5.08342307364967       -5.27524424997867        1.20938473660305
H           -3.44618376151925       -4.58983572344499        1.34732524921504
H           -3.07113386964986       -2.36900654538991        2.11657669423255
H           -2.29505096410789       -0.07165871346317        2.01251222597977
H           -3.30210700158828        2.25610359330837       -1.89047581640076
H           -1.94618536528949        3.14262887047323       -1.20178775992127
H           -2.00257799559349        0.22907568774405       -1.70412947998482
H           -1.31753256253368        1.29993381550592       -2.77615161951257
H           -0.91439447182738        1.69274524413024        0.70309422833325
H            0.38383416034300        1.99311142028957       -1.02868900229311
H            2.02946242589118       -0.54612663962879        0.61241946471190
H            2.15908679907826        1.12226811860279        0.04452724656061
H            2.67397595665282        0.25585335904860       -2.26255862498126
H            2.69239799190506       -1.39076144156660       -1.61238951733732
H            4.42877266990261        1.86050813827310       -1.66882311870708
H            6.70748389686889        2.21809609594436       -0.89145681128030
H            8.43006357510357        2.39804193537903        0.72451994425644
H            9.02037118717845        1.75891284970562       -0.83695017130945
H            9.88295599530731        1.37034877746010        0.67143062341728
H            7.23221821912689       -3.73262778264056        1.60908223923285
H            5.57109325706547       -3.10790614636388        1.74494399717855
H            6.18923626853880       -3.68185891634711        0.16746409716365
H            4.46915413180215       -2.10025008900225       -0.08986373379108
H           -0.26226623686127       -1.56838287559562       -1.75348587016741
H           -1.08824611681519       -1.19226179407287       -0.22729910810659
H            0.50617488433614       -1.97021735852017       -0.20577227480620
H           -4.96207760911028        2.67571500973940       -0.23350918996874
H           -4.10667452777609        2.71956800953399        2.68516935529303
H           -5.15848237746681        1.50781954125048        1.94463415005212
H           -5.68878633757552        3.18550726940256        2.06005177829361
H           -3.04926558501481        4.55608892904438        1.20802801575073
H           -3.46873787433051        4.62026820813722       -0.51198091601275
H           -4.69065254156123        4.94039828182036        0.70787394462072
H           -1.02005395710113        2.83532181876999        2.75513140813998
72
 energy: -99.404872077379 gnorm: 0.032916158761 xtb: 6.6.1 (8d0f1dd)
N           -1.88245141929402        2.72814751028765        2.23477166738106
C           -1.84342483783854        2.11616496769932        1.14881601316573
C           -3.00775162533747        1.90934833070661        0.22256998238740
C           -3.49255774005266        0.46817200504263        0.31702640693048
C           -4.46026708231863        0.00187058162919       -0.57607772343624
C           -4.92899371901565       -1.30055012285978       -0.52329718343729
O           -5.85791856328360       -1.82994259863366       -1.34573298948475
C           -6.48996515503724       -1.00667939900320       -2.29732738424817
C           -4.41383365624945       -2.19129005953466        0.45741461264370
O           -4.91460924438848       -3.44259203266134        0.42517412529698
C           -4.51712872838357       -4.36690437965211        1.41110179122588
C           -3.46466755038156       -1.71914112661248        1.34918943198517
C           -3.01183212998449       -0.40684658836305        1.27930800654526
C           -2.45645481546259        2.19640265730367       -1.20161769446210
C           -1.49135367080204        1.12218914226873       -1.72700262755375
C           -0.16856850706868        1.12192060030624       -1.05481931922264
N            0.51010251747325        0.03875928999935       -0.68466899814322
C            1.89133695575562        0.10466873455428       -0.26033038080434
C            2.86494251536011       -0.34075362634578       -1.37107220661081
C            4.28730492739769       -0.14085131141333       -0.92197956060477
C            4.93133423113734        1.06666860601330       -1.13968383331547
C            6.23092938032185        1.26931425948398       -0.70147489153824
C            6.91559878389182        0.26649737133798       -0.03013205915191
O            8.17415276359535        0.35486928982918        0.43900542464056
C            8.90329026360822        1.54281958589515        0.22995497944437
C            6.26452373040144       -0.97762928158008        0.19747179058224
O            7.00083580047654       -1.89893804954218        0.85041038979485
C            6.45201721122331       -3.17130146561687        1.09782182144701
C            4.96387212847050       -1.15608066738340       -0.24896212861571
C           -0.11493106924475       -1.26004499318209       -0.72127854227084
C           -4.20354268211182        2.85845452350590        0.53619228295979
C           -4.82855950850053        2.54161593009588        1.89306248847380
C           -3.82065369913878        4.33473131847818        0.47692561653283
H           -4.86449004761479        0.67345851579848       -1.31502485191165
H           -7.00533332062794       -0.16671089939269       -1.82210615263313
H           -7.22070653677291       -1.64256614660816       -2.79336389358126
H           -5.77878177356071       -0.62949725429026       -3.03949907225497
H           -4.75598613232483       -4.00796953086946        2.41644492259132
H           -5.08409873920636       -5.27328971641161        1.20773727892087
H           -3.44688262938585       -4.58828661211370        1.34626240787111
H           -3.07105265679720       -2.36611360423111        2.11639072482056
H           -2.29320146731741       -0.06984670786779        2.01042580496141
H           -3.29805801504631        2.26347016811451       -1.89099259990805
H           -1.95419338579734        3.16428281565590       -1.19601405901977
H           -1.96056067720423        0.09975668416936       -1.63667893914679
H           -1.30553709033783        1.34548973948273       -2.78584978541168
H           -0.91437113582480        1.68507489050892        0.71257632009927
H            0.37384979056869        2.06759998521641       -1.05902004371753
H            2.02426684254025       -0.54232249922940        0.61174914096902
H            2.14270190715331        1.12564783825984        0.03646395352293
H            2.67260665804984        0.25604134144111       -2.26419210829286
H            2.69080016630389       -1.39004349775692       -1.61245221349984
H            4.42661033534340        1.86128696010243       -1.66779202766769
H            6.70601143509316        2.21760053729083       -0.89176449216524
H            8.42982719436377        2.39613908138847        0.72521147816282
H            9.02086627100173        1.75777512708576       -0.83632686014451
H            9.88197028953617        1.36747664641808        0.67242054429386
H            7.23226403704951       -3.73249576471674        1.60827698363395
H            5.57069021140901       -3.10910497176217        1.74438013110504
H            6.18900886340425       -3.68292975313270        0.16681756251101
H            4.46625987204578       -2.09975172636189       -0.08918202568465
H           -0.26205253194755       -1.58880579558701       -1.75180222533881
H           -1.08688596238500       -1.21637971496815       -0.22416692138291
H            0.50992033246541       -1.98362396040714       -0.20664504240182
H           -4.96019480479623        2.67561868368512       -0.23491691039902
H           -4.10798347011000        2.71927599742091        2.68474695171674
H           -5.15832530303597        1.50683223808852        1.94275974567200
H           -5.68943167787240        3.18423743304682        2.05757219474436
H           -3.05074727249601        4.55722700193266        1.20959650463926
H           -3.47016402177670        4.62332949967823       -0.51047618248521
H           -4.69253132250041        4.94012396679257        0.70941482206372
H           -1.02034443980764        2.83306352457638        2.75952446881186
72
 energy: -99.406086261191 gnorm: 0.013326461759 xtb: 6.6.1 (8d0f1dd)
N           -1.88256869831160        2.73285063865598        2.23881587449047
C           -1.84302940651177        2.11477302872769        1.15616407941304
C           -3.00568631812801        1.91043248704086        0.22657035766273
C           -3.48992737732728        0.46948302078305        0.31712777599487
C           -4.45440479541368        0.00278843912274       -0.57911457506430
C           -4.92496610232369       -1.29894607876488       -0.52470826817360
O           -5.85551656294288       -1.82808227747793       -1.34540435971473
C           -6.48848583965654       -1.00526399323533       -2.29673726123498
C           -4.41168136647822       -2.18901768108323        0.45757233524931
O           -4.91441742497920       -3.43950789762472        0.42657092959512
C           -4.51713465037926       -4.36411741673855        1.41224489534857
C           -3.46185189429072       -1.71736635330707        1.34893909112568
C           -3.00880281386127       -0.40535825256550        1.27893354802984
C           -2.45569912238995        2.19153023179061       -1.19784545866311
C           -1.48836488790232        1.11811486244361       -1.72107841067620
C           -0.16285338504053        1.11858294564290       -1.04793004507586
N            0.51090536907375        0.03250638749078       -0.68166209818141
C            1.89059662585505        0.10512194387433       -0.25992531348652
C            2.86240703318359       -0.33980497597371       -1.37165892691926
C            4.28385920333474       -0.13911841747679       -0.92150634570667
C            4.92768824667682        1.06840399470318       -1.13925723187619
C            6.22767903792307        1.27058259071969       -0.70220746542086
C            6.91248485525473        0.26733663663178       -0.03162329856322
O            8.17140450564391        0.35436962408512        0.43671301999143
C            8.90172236514452        1.54174213781806        0.22895428836158
C            6.26108178892689       -0.97643205850678        0.19674965485254
O            6.99834385277686       -1.89755591912487        0.84887669202355
C            6.45121957655827       -3.17046817201422        1.09696295656405
C            4.96005081562581       -1.15440778592538       -0.24839157633314
C           -0.10857622912166       -1.27097613895973       -0.71868325512388
C           -4.20285020727336        2.85890577358753        0.53529514413337
C           -4.83016129385205        2.54004691536303        1.89036844541230
C           -3.82284066849720        4.33600510767280        0.47729677891867
H           -4.85624581041038        0.67354378850449       -1.32025377920958
H           -7.00369718461657       -0.16520910131457       -1.82145940091610
H           -7.21951132719882       -1.64162459265981       -2.79175271365343
H           -5.77796547361423       -0.62831362986855       -3.03960967159204
H           -4.75592754800188       -4.00579942003825        2.41782870142600
H           -5.08423950274644       -5.27026846402301        1.20824590380617
H           -3.44692263891761       -4.58561330766211        1.34719860949034
H           -3.06967980057509       -2.36357172890825        2.11747051111016
H           -2.28970186828738       -0.06834130887584        2.00951665659342
H           -3.29317133345430        2.26122145629478       -1.89153223541764
H           -1.94892264194618        3.15679820884070       -1.19369151029395
H           -1.99168522689354        0.14961399995448       -1.68023435438589
H           -1.30989771499841        1.33570486559879       -2.78166895012076
H           -0.91491111741637        1.67353332105244        0.72853421861412
H            0.39049150969477        2.06421600645467       -1.06605771870493
H            2.02606180379207       -0.53592818252318        0.61576164290799
H            2.13194249395236        1.13099684577382        0.02861481154117
H            2.66978645266127        0.25582591825297       -2.26559176608860
H            2.68847336239758       -1.38944968372082       -1.61124624407070
H            4.42250709315869        1.86316683969464       -1.66677386189900
H            6.70312979660556        2.21850246654347       -0.89334201718812
H            8.42866373294457        2.39509367669056        0.72451084916936
H            9.02053889943164        1.75731903549162       -0.83705687681137
H            9.87978554308092        1.36494405987648        0.67225172917580
H            7.23256228090378       -3.73022909259398        1.60737159163814
H            5.57013851286418       -3.10924476731915        1.74391947106618
H            6.18867433864111       -3.68294943612627        0.16630146673996
H            4.46198380809548       -2.09770354032984       -0.08744348651257
H           -0.25619512738967       -1.60493157156543       -1.74796159073774
H           -1.07882334972234       -1.24050221255903       -0.21611728514930
H            0.52440371327808       -1.98989664260163       -0.20659173986270
H           -4.95692227640638        2.67416960273753       -0.23792908021889
H           -4.11173549368381        2.71892065284913        2.68372860824147
H           -5.15813088344810        1.50461788638101        1.93864036364578
H           -5.69256261870629        3.18120315044612        2.05246739311982
H           -3.05411864649369        4.55942530529511        1.21094489169222
H           -3.47278829303487        4.62707383054995       -0.50959994099512
H           -4.69644886880000        4.93889286666265        0.70992219799184
H           -1.02204722903624        2.83177907386973        2.76752747150590
72
 energy: -99.406351417563 gnorm: 0.011885621357 xtb: 6.6.1 (8d0f1dd)
N           -1.88226213234454        2.73854715418375        2.24002426711328
C           -1.84161205668416        2.11369993626195        1.16102369288083
C           -3.00193737695919        1.91207636594523        0.22774117770080
C           -3.48516820969931        0.47083517756260        0.31555267955348
C           -4.44746520186806        0.00409881425555       -0.58263689282056
C           -4.92011517872101       -1.29674542806885       -0.52643373675162
O           -5.85216260323415       -1.82552763393456       -1.34556183880853
C           -6.48608835052574       -1.00291910590499       -2.29641456902431
C           -4.40890451205566       -2.18625008122212        0.45743447095006
O           -4.91428552726869       -3.43563344332347        0.42803219856729
C           -4.51730763730093       -4.36050137914068        1.41349527507836
C           -3.45847039097740       -1.71528335369633        1.34850545897764
C           -3.00493363079713       -0.40362994682489        1.27807829218730
C           -2.45241629486157        2.19274732879117       -1.19570562786791
C           -1.48597781343878        1.11831596127351       -1.72316059638604
C           -0.16136339298668        1.11780271161211       -1.05738403013295
N            0.50592729349443        0.02966388995213       -0.68725623855804
C            1.88409173701724        0.10964652634502       -0.26360271147691
C            2.85803989362074       -0.33832402294822       -1.37182926493486