72
 energy: -103.313158112242 gnorm: 0.089098788309 xtb: 6.6.1 (8d0f1dd)
N           -1.53291711154831        2.85057009030641        2.24616383019783
C           -1.58414456276859        2.13770511267306        1.21898110011351
C           -2.75230067858253        2.04760785671737        0.27736852642856
C           -3.33044191242549        0.64672345780412        0.33559182775424
C           -4.30718102453716        0.24814744946286       -0.57275995121726
C           -4.86585645020879       -1.01570909138894       -0.52234442636111
O           -5.85110307147174       -1.47851200466726       -1.35944779181620
C           -6.41252838907677       -0.56576826451788       -2.28265811712403
C           -4.41998348705540       -1.93853669596737        0.44626856973054
O           -5.02564580222263       -3.16648011916344        0.41223692934111
C           -4.70290619475610       -4.09096368801749        1.40149078629156
C           -3.44618160473434       -1.54655737447891        1.33671349357968
C           -2.91127576777324       -0.27321374874770        1.28191403877389
C           -2.18844686601244        2.30280426638145       -1.15091988099777
C           -1.25926599874416        1.18697719168543       -1.68549623735110
C            0.03087281410026        1.13679425391358       -0.95302218086032
N            0.64088650451124       -0.05408047782886       -0.56283823850705
C            2.01575299102824       -0.05450465939486       -0.17745976899015
C            2.95231731576588       -0.55546388798247       -1.29397934585650
C            4.37086400937654       -0.44044847130564       -0.85291640497722
C            5.10219055037592        0.71602226764300       -1.07012172633223
C            6.41706399672761        0.83613776211445       -0.61434077608756
C            7.02486575516272       -0.20224115048549        0.06865189525062
O            8.29474243005299       -0.19814198771945        0.54760871971556
C            9.07411477950491        0.95833877670187        0.32651666057386
C            6.30370823157513       -1.38885485653536        0.29681466798923
O            6.96287580298904       -2.36411190335863        0.98931148378494
C            6.29308907646021       -3.57152324312461        1.22480229684101
C            4.99360185196854       -1.49804055495308       -0.17734724406086
C           -0.04792621825873       -1.31892439647805       -0.63643626258742
C           -3.88099304922932        3.05131199808088        0.60585568223080
C           -4.52353977720362        2.73895956082172        1.97911576629365
C           -3.36623399270346        4.48410622025211        0.58558198012460
H           -4.66381879636306        0.95439486186066       -1.30527081031292
H           -6.84854217738717        0.30330817733486       -1.79164469035024
H           -7.19569085314725       -1.12500736278266       -2.79903805995291
H           -5.66670982323202       -0.23294369433636       -3.01280294702010
H           -4.90635821659469       -3.71833043073610        2.41520864799608
H           -5.33542661264803       -4.97489217516393        1.24168133316236
H           -3.63758494847306       -4.37491750118214        1.31864753704778
H           -3.08884451174191       -2.24069441952538        2.08276957528948
H           -2.16126568294504       -0.02772918117677        1.99811032977072
H           -3.03279921283593        2.41032917431599       -1.85214221140586
H           -1.62859156341798        3.24064948189738       -1.13914704673007
H           -1.77633430220154        0.23826478862502       -1.64994961256459
H           -1.03229213685616        1.38854520999968       -2.74232664325436
H           -0.70668782378169        1.60565628947778        0.72336500200958
H            0.67658286977121        1.98782051414692       -1.01831522339507
H            2.15501237980499       -0.68307083515175        0.71374020559724
H            2.30588330603215        0.95636163210686        0.06823874793034
H            2.78452863186726        0.03476631739185       -2.20547116046865
H            2.70876032770777       -1.60002913438784       -1.53934447759183
H            4.65787271900035        1.53259366705884       -1.61118780513004
H            6.96605793363354        1.75996031140781       -0.79934845857402
H            8.63790782075404        1.84762354720645        0.80293148763517
H            9.20050207118164        1.15319244740516       -0.74504123106423
H           10.04503946842025        0.73594032298753        0.76666901389868
H            7.00195305117673       -4.20972068296910        1.75159059923730
H            5.40330435613020       -3.43489509945838        1.84233249470789
H            6.00354981308131       -4.05496636826816        0.28903308604277
H            4.44540146913525       -2.40122784698717       -0.01698792499130
H           -0.21382485864930       -1.65833672083845       -1.66318741951179
H           -1.02068606069045       -1.24211640831186       -0.15061143970448
H            0.54948726974034       -2.06818176649467       -0.11602923643466
H           -4.64796056857547        2.93882924421163       -0.16745138719143
H           -3.74468042979210        2.83467651585400        2.72082585214364
H           -4.92130815139901        1.74941434130867        1.98697356253240
H           -5.29829591628878        3.46738679877014        2.20317189876053
H           -2.57740775162114        4.61522211618126        1.28302251924546
H           -3.01579114225006        4.77091050510628       -0.40857938852498
H           -4.16474217578142        5.17939351077988        0.86111279520170
H           -0.70676587298425        2.83193180362063        2.75421582815691
72
 energy: -103.317329012344 gnorm: 0.025211043109 xtb: 6.6.1 (8d0f1dd)
N           -1.54183816286293        2.84252224448803        2.24583333752009
C           -1.57729412883659        2.14425182362705        1.20298401848606
C           -2.75339430736456        2.04435732381049        0.27130285068828
C           -3.32722021216436        0.64000396153040        0.33407446184055
C           -4.31466567505185        0.24684257974914       -0.56831080484385
C           -4.87290208577996       -1.01670586514125       -0.52291466935447
O           -5.85322802588301       -1.47304612882812       -1.36086064797469
C           -6.41020990183585       -0.56742914442147       -2.28555672058838
C           -4.42868183805683       -1.94231520552835        0.44444134066955
O           -5.03517350258187       -3.16677198934368        0.41211691883028
C           -4.69860805640521       -4.09298166442594        1.40268710766312
C           -3.44780988062442       -1.55337355332357        1.33554385703234
C           -2.90701643076987       -0.27671578442041        1.28108162012404
C           -2.18799120543530        2.30094580837128       -1.15378742479908
C           -1.25836735067421        1.18875114119076       -1.68281228805783
C            0.03056103739750        1.13062377179290       -0.94145824650681
N            0.64073290685840       -0.05731663739642       -0.56021952573195
C            2.01958122868824       -0.05596394836559       -0.18370585289731
C            2.96019375949017       -0.56120438197898       -1.30006934683592
C            4.38466184484132       -0.44587671734162       -0.86167320230520
C            5.10696968797227        0.71521182764138       -1.07207592200056
C            6.41348299053022        0.83656689834393       -0.61647046446535
C            7.02198780021522       -0.20125054813037        0.06701952626714
O            8.29542916558023       -0.19213723535203        0.54799174236680
C            9.07690726123163        0.95772758453697        0.32531797498243
C            6.29613220587009       -1.38820104504366        0.29739694409835
O            6.95869255786108       -2.36313533063480        0.98514223212047
C            6.29255012179720       -3.57392215659132        1.22226281197459
C            4.99577227855947       -1.49525287179966       -0.17257369794900
C           -0.04774174190154       -1.31785947680332       -0.63467434539318
C           -3.88076389477235        3.05714790028014        0.60189320620122
C           -4.51149204410039        2.74651308660099        1.96957361474763
C           -3.37799358840915        4.49606248522995        0.58149878615903
H           -4.66133560321168        0.95107932796374       -1.30693539957807
H           -6.84832041784877        0.30123514224672       -1.78797868521022
H           -7.19368643274799       -1.12408743086483       -2.79916844610338
H           -5.66603086469216       -0.23367468597540       -3.01657692017277
H           -4.89941258361293       -3.71381023037475        2.41253579174778
H           -5.32720092460696       -4.96964226661306        1.23251169597748
H           -3.64195560043398       -4.38711212744391        1.32954536198570
H           -3.09253743570083       -2.24200573054681        2.08635968626209
H           -2.15706971958002       -0.01581712699187        2.00630012154779
H           -3.02628251563995        2.41561638985812       -1.84831165123384
H           -1.62956008027725        3.23775897619770       -1.14391035944314
H           -1.78050752066078        0.23696430618865       -1.64285359778424
H           -1.05745783137284        1.40659422722466       -2.74405762626416
H           -0.70537801571396        1.59236151601943        0.75613193012313
H            0.68816044796346        1.97803199688256       -1.02431974857150
H            2.15820324125998       -0.68509078115987        0.70533773825952
H            2.30978129622392        0.96102104823586        0.07435374331407
H            2.78473519636367        0.03805236885499       -2.19858781113014
H            2.71145739824252       -1.60041246667575       -1.53727817560629
H            4.65763681679121        1.53703893997063       -1.60724020234548
H            6.95396194329538        1.75466014821202       -0.80314064951000
H            8.64169852054341        1.84181897750425        0.80509826886628
H            9.20365579387442        1.15338269570771       -0.74521289093430
H           10.04622441969740        0.74046865554453        0.76985808054742
H            7.00377834845164       -4.20679471225122        1.75167868264748
H            5.40315383151872       -3.43383846348750        1.84503350846403
H            6.00356393229303       -4.06300294691405        0.28638093838421
H            4.44042534662332       -2.40269205737747       -0.01333604572669
H           -0.20513081817062       -1.65183529741613       -1.66659716057383
H           -1.02218175113686       -1.24556586754872       -0.14619200995441
H            0.54683786380438       -2.06882179796283       -0.11656747372269
H           -4.65420579637528        2.94664247234476       -0.16635968819511
H           -3.74408685672476        2.83329074663690        2.73004776678143
H           -4.92414707743024        1.74802521636906        1.98275871275417
H           -5.29760836647483        3.46544730172649        2.18743846007631
H           -2.57390695442122        4.61774933094496        1.29007938526945
H           -3.02702802080550        4.77790433675471       -0.41012930987170
H           -4.18102374508111        5.18000148835539        0.85677160596779
H           -0.68097422954277        2.83323126726486        2.76419642496835
72
 energy: -103.317341737149 gnorm: 0.018703580750 xtb: 6.6.1 (8d0f1dd)
N           -1.55877905188922        2.84280500563262        2.24201981464080
C           -1.58410135128862        2.13991969131677        1.20009918395168
C           -2.75655612512257        2.04224518002909        0.26869898121711
C           -3.32912140585720        0.63927635255973        0.33479197084183
C           -4.31429317429719        0.24716207649620       -0.57092362052933
C           -4.86964248333625       -1.01742396803810       -0.52763761130858
O           -5.85136448005814       -1.47075799679605       -1.36049619090983
C           -6.41047034974424       -0.56937160397518       -2.28375844954170
C           -4.42781769508726       -1.94312316216810        0.44139105897144
O           -5.03676635352979       -3.16460242523962        0.41153918528132
C           -4.69887525901497       -4.09343171713262        1.40391238025842
C           -3.44700585709409       -1.55466476723109        1.33374639508125
C           -2.90859089241716       -0.27614672268629        1.28076026313217
C           -2.18907598800786        2.29625469382011       -1.15717849662444
C           -1.25480858372503        1.18789941514925       -1.69076421254406
C            0.02996109127876        1.13035898153292       -0.94556677467957
N            0.63846620648142       -0.05586741102138       -0.56432013415885
C            2.01547316141551       -0.05484774542522       -0.18176085324141
C            2.95816757480674       -0.56058330059951       -1.29922048117001
C            4.38447202748261       -0.44287632743896       -0.85485974719753
C            5.10701432041602        0.71781083395203       -1.06631623829454
C            6.41379166424543        0.83772949894417       -0.61410261975341
C            7.02131462806690       -0.20189808254840        0.06815723565940
O            8.29650322542554       -0.19152290420550        0.54925348066558
C            9.07384542657045        0.95740062488286        0.32411911984675
C            6.29416053823013       -1.38961609708027        0.29659829580087
O            6.95918819727178       -2.36170535391942        0.98618822749887
C            6.29288444906109       -3.57301462824705        1.22394863527375
C            4.99706748457177       -1.49330437788367       -0.17132182797514
C           -0.04875103935587       -1.31568333442169       -0.63531010255090
C           -3.88453416836506        3.05249513609071        0.60865033323578
C           -4.51313248580914        2.74807159435084        1.97309000158264
C           -3.36705992793248        4.48740789947659        0.58111524637993
H           -4.66343342626285        0.95428667124103       -1.30537208344699
H           -6.84949443743151        0.30200198928928       -1.78737016659994
H           -7.19442432216129       -1.12472730190624       -2.79645889048405
H           -5.66805769687157       -0.23285043531687       -3.01464255833350
H           -4.90303003660135       -3.71293318954016        2.41177445363996
H           -5.32843675108009       -4.96752429523823        1.23444368263186
H           -3.64285728132263       -4.37870178612391        1.32646420425809
H           -3.08549137893196       -2.24099711397767        2.08235305965453
H           -2.15136292150141       -0.01537658174830        2.00177223420377
H           -3.02570055444017        2.40981014357803       -1.84994404184109
H           -1.63294873323918        3.23510768874157       -1.14214192637120
H           -1.77420701267006        0.23227131516048       -1.65280613684927
H           -1.03823882742008        1.39532631366524       -2.75071061688777
H           -0.70992015896421        1.63149698587820        0.73678409724902
H            0.68208279392641        1.98591599167500       -1.02179055896152
H            2.15017842048206       -0.67805371929488        0.71249667193524
H            2.30537925603073        0.96579902349042        0.07349176568844
H            2.78454922390123        0.03672007386803       -2.19726924369964
H            2.70920311156752       -1.59734989398524       -1.53295027690806
H            4.65921301203915        1.53565038114704       -1.61111690034302
H            6.95693247553789        1.75205213713376       -0.79914412936493
H            8.63937164302714        1.84221217594597        0.80303430408294
H            9.19815989899697        1.15263956162624       -0.74622689899546
H           10.04448007886991        0.74021474082232        0.76563164425856
H            7.00217945217350       -4.20845753098477        1.75235108631819
H            5.40181853951169       -3.43195468811041        1.84574117375752
H            6.00261333571849       -4.05779746179982        0.28624151869713
H            4.44086518350172       -2.40457678507924       -0.01841650381218
H           -0.21017897561542       -1.65740589682106       -1.66497606537225
H           -1.02378563535307       -1.24099362496578       -0.14749658687206
H            0.54462362646928       -2.06560425409363       -0.11428239232107
H           -4.65406300938372        2.94026251786094       -0.16336226665469
H           -3.74208544786356        2.82970407611283        2.73022561191930
H           -4.92947210814534        1.74421391056299        1.99471191116673
H           -5.30074450437240        3.46261945040311        2.20541970230588
H           -2.55759938442424        4.60108611433209        1.29399507845600
H           -3.00687999083941        4.76168295821901       -0.40739253771954
H           -4.15842073503034        5.17801898361953        0.85852054934987
H           -0.68487199715399        2.84005793616467        2.76253882750579
72
 energy: -103.317913831742 gnorm: 0.009402688520 xtb: 6.6.1 (8d0f1dd)
N           -1.54577567409521        2.84438037045500        2.24158058442189
C           -1.57842270331062        2.13426758602947        1.20496422814801
C           -2.75253509631416        2.04498853962654        0.27420391451087
C           -3.32909228879869        0.64271003841531        0.33815229501137
C           -4.31139286188453        0.24871448568227       -0.57046762669772
C           -4.86778261399258       -1.01597693310269       -0.52621519281862
O           -5.84961354778845       -1.47030416297151       -1.35882934229448
C           -6.40886582901306       -0.56997486974831       -2.28330224552633
C           -4.42632398761201       -1.94189767390237        0.44324126646936
O           -5.03367480258198       -3.16413725306022        0.41221469202102
C           -4.69836081012772       -4.09572863381818        1.40413431929498
C           -3.44894066444396       -1.55238246406829        1.33687561287569
C           -2.91157609933133       -0.27429420074210        1.28388744942546
C           -2.18858414054421        2.30145905920431       -1.15271611884386
C           -1.25727466416420        1.18955974198281       -1.68417768076990
C            0.03063136823529        1.12986013962142       -0.94524702442214
N            0.63958934581783       -0.05679790464161       -0.56452830081051
C            2.01651330355249       -0.05826517873660       -0.18181749061710
C            2.95661804093878       -0.56121049667780       -1.30226903343341
C            4.38245675899744       -0.44317559937301       -0.85591148219411
C            5.10664853267391        0.71670197191607       -1.06884812077766
C            6.41518006966790        0.83740001556197       -0.61650816261041
C            7.02254613133140       -0.20257130830624        0.06628327292092
O            8.29726782672591       -0.19251808498902        0.54867233379031
C            9.07431040196587        0.95695933723943        0.32604507925782
C            6.29599012947931       -1.39079054736454        0.29428574115337
O            6.96118351355060       -2.36158454161540        0.98632804430249
C            6.29474768048328       -3.57310876983977        1.22389952835618
C            4.99797118144055       -1.49439327195784       -0.17448895863684
C           -0.04636881839151       -1.31734121455123       -0.63617641509530
C           -3.88299001522456        3.05512692476407        0.60688412702544
C           -4.51523920118310        2.74989332198214        1.96790473587298
C           -3.37961521476702        4.49538235923318        0.57746321272901
H           -4.66106405208312        0.95535849411481       -1.30502507608561
H           -6.84840477822420        0.30327700000184       -1.79048701213534
H           -7.19267630930290       -1.12490940456231       -2.79756997406094
H           -5.66593057825530       -0.23314440725425       -3.01362452197060
H           -4.90313400435696       -3.71666418952592        2.41259705246676
H           -5.33037252198490       -4.96973968940940        1.23640133279517
H           -3.64128808395267       -4.37790336182682        1.32246860497924
H           -3.08845606866917       -2.23829526143064        2.08617783910833
H           -2.15558707302558       -0.01754836568970        2.00488513826512
H           -3.02659748439222        2.41376013471783       -1.84620767159355
H           -1.62964146614627        3.23956830103469       -1.13808694255744
H           -1.77900237526833        0.23583412285658       -1.64513349540283
H           -1.03922018998632        1.39257627275673       -2.74387779293109
H           -0.71395395230117        1.60482237360971        0.74529638449384
H            0.68059196658427        1.98676201421272       -1.01981167692212
H            2.15461526263648       -0.68353113246127        0.71083132302686
H            2.30850834905380        0.96087090316277        0.07202388722773
H            2.78475111396895        0.03568160444660       -2.20146330610736
H            2.70987506697958       -1.59833500684214       -1.53822721918348
H            4.65750116886464        1.53445454079434       -1.61198369100864
H            6.95989043617507        1.75309611189285       -0.79983187836994
H            8.64008339440042        1.84369969501878        0.80362374483891
H            9.20192402126957        1.15312237198561       -0.74392799740827
H           10.04452760142325        0.73777618888725        0.76831755084789
H            7.00338621505617       -4.20906124437808        1.75214399691042
H            5.40281151278538       -3.43357094019401        1.84394131494995
H            6.00471062556821       -4.05731488276981        0.28647450906488
H            4.44137410733922       -2.40388023041986       -0.01766435876365
H           -0.21096701698676       -1.65807179028953       -1.66551316371024
H           -1.02113996193651       -1.24406778205965       -0.14826162470587
H            0.54849839061785       -2.06828457446480       -0.11737384118105
H           -4.64850698206236        2.93821865739019       -0.16853744626384
H           -3.74570164168487        2.83479554633008        2.72484586463606
H           -4.92607219275957        1.74493783078224        1.98732517228202
H           -5.30392762846996        3.46402278124508        2.19763821735804
H           -2.57453634190733        4.62202684404444        1.28894010973807
H           -3.02282869313054        4.77521975778716       -0.41043145026583
H           -4.17664218867285        5.17835295323334        0.85685282604643
H           -0.67911485038870        2.82537862075267        2.76540127363420
72
 energy: -103.317865751946 gnorm: 0.010375560308 xtb: 6.6.1 (8d0f1dd)
N           -1.54910049363115        2.85409985554500        2.23858559982817
C           -1.57586197475016        2.14138006745396        1.20313282693390
C           -2.75125614700142        2.04378409368609        0.27202231687869
C           -3.32713732887208        0.64008468775984        0.33361060139981
C           -4.31329809378367        0.24597637263499       -0.57142127745898
C           -4.87202058345550       -1.01768626135984       -0.52516744886079
O           -5.85336941140663       -1.47271266062349       -1.35957391526724
C           -6.41117102922880       -0.57033198112762       -2.28377171461214
C           -4.42714630627298       -1.94395286599005        0.44249181234518
O           -5.03291231163065       -3.16690215441155        0.41123729151005
C           -4.69838015923789       -4.09690469354944        1.40505007079779
C           -3.44828558774895       -1.55489017084969        1.33377423651160
C           -2.90890502328985       -0.27791844336360        1.27851436328954
C           -2.19038133125565        2.30214950466866       -1.15556673025442
C           -1.25928930916407        1.19068591385220       -1.68442487995139
C            0.03107595665160        1.13071752226540       -0.94711451642093
N            0.63947396955218       -0.05509500901488       -0.56191864516068
C            2.01701303251440       -0.05606251562625       -0.18087238326527
C            2.95615855863855       -0.56055288108374       -1.30018325272095
C            4.38175290833730       -0.44404699265089       -0.85739845422202
C            5.10598931250057        0.71568222606514       -1.07059262671329
C            6.41405747858555        0.83785010877548       -0.61609351744515
C            7.02176899235884       -0.20150221483915        0.06762549405217
O            8.29689111364762       -0.19207067875173        0.54827536606217
C            9.07505685675810        0.95715984946727        0.32528021940591
C            6.29541092155662       -1.38964915824818        0.29709865629975
O            6.96017478671231       -2.36224850479914        0.98699688353961
C            6.29298709870953       -3.57369897877439        1.22368202762999
C            4.99652339070877       -1.49425646134683       -0.17257777225512
C           -0.04679916230416       -1.31565451144133       -0.63393542740461
C           -3.88114126173285        3.05412831339865        0.60580516052412
C           -4.50942080697437        2.74739104572049        1.96906336722248
C           -3.37271187671657        4.49178352476876        0.58223427738935
H           -4.66281644807902        0.95085984266515       -1.30760534551541
H           -6.84981243845121        0.30204987453756       -1.78923782943189
H           -7.19582742526070       -1.12378251998275       -2.79911181876321
H           -5.66819096410222       -0.23350573027202       -3.01483229438965
H           -4.90239178562968       -3.71494560737297        2.41287151055008
H           -5.33035359665498       -4.97137967481201        1.23659156358973
H           -3.64168817037998       -4.38366040938083        1.32668819071148
H           -3.09044445918679       -2.24145356402150        2.08417705853668
H           -2.15736236628464       -0.02087513799864        2.00245727562568
H           -3.02876404272245        2.41275164114499       -1.85053155408793
H           -1.63067826422994        3.23958751129617       -1.14505803182348
H           -1.78102730365750        0.23764094908918       -1.64614168388314
H           -1.05230821530729        1.40271187271136       -2.74466839247678
H           -0.70896432422994        1.59805475618527        0.75458962166510
H            0.68444924454082        1.98336502236836       -1.02570571941350
H            2.15771945459152       -0.68371041955952        0.70906485994884
H            2.30944925357160        0.96173321042562        0.07334185495108
H            2.78433759883185        0.03739501111621       -2.19915631783861
H            2.71047290141949       -1.59899709940359       -1.53627529007693
H            4.65519492316855        1.53633100856022       -1.60702203844303
H            6.95732631960917        1.75531818636185       -0.80084861685446
H            8.64136338988498        1.84402191261075        0.80372675463161
H            9.20269328069931        1.15379115941856       -0.74513485135146
H           10.04574038422342        0.73917601083019        0.76779947119473
H            7.00256050602712       -4.20831602057669        1.75189084699202
H            5.40240429626009       -3.43436551590845        1.84503985276748
H            6.00256609345946       -4.06033508500458        0.28757267072345
H            4.43971689448443       -2.40188735072136       -0.01211865157257
H           -0.20734505608902       -1.65302928954865       -1.66484185736408
H           -1.02270843007284       -1.24367786581846       -0.14792331847330
H            0.54696056714715       -2.06743197977175       -0.11498941751027
H           -4.65144736965213        2.94559762318871       -0.16651704223093
H           -3.74076152023882        2.82949310200542        2.72764308833706
H           -4.92387674176335        1.74625216925827        1.98492802967218
H           -5.29393686698365        3.46664738564847        2.19358150435941
H           -2.56693611867371        4.61077985983672        1.29131542910186
H           -3.01843630086984        4.77373078315321       -0.40632721059906
H           -4.16763593870455        5.17804068572018        0.86411530742104
H           -0.68747909140339        2.83952938353854        2.76144762579378
72
 energy: -103.318066835702 gnorm: 0.004142974729 xtb: 6.6.1 (8d0f1dd)
N           -1.55018431120412        2.84260073050524        2.24551711179591
C           -1.57713152585135        2.13848117985399        1.20386812013074
C           -2.75295642502438        2.04481873059305        0.27302870052736
C           -3.32775364990887        0.64148994320924        0.33552247573205
C           -4.31358015558039        0.24795367694764       -0.56981526149365
C           -4.87113165971279       -1.01588886332156       -0.52473816343283
O           -5.85128584402680       -1.47115281926071       -1.35981781733961
C           -6.40910041450753       -0.56948917894533       -2.28389112690899
C           -4.42713143208754       -1.94167149357155        0.44372381359388
O           -5.03347622421200       -3.16394735470026        0.41140252923573
C           -4.69789890740111       -4.09464278662766        1.40460279735051
C           -3.44786647953644       -1.55298275152071        1.33550146786963
C           -2.90875866066987       -0.27540910260347        1.28081535397152
C           -2.18856136678031        2.29948527312118       -1.15410402222392
C           -1.25694519279860        1.18890385238963       -1.68572022782064
C            0.03171006572401        1.12929815318771       -0.94634131001642
N            0.63946489419751       -0.05652490075637       -0.56239362113751
C            2.01689471539024       -0.05635951495726       -0.18152239324388
C            2.95726948228093       -0.56088525550221       -1.30028930133845