      -----------------------------------------------------------      
     |                   =====================                   |     
     |                           x T B                           |     
     |                   =====================                   |     
     |                         S. Grimme                         |     
     |          Mulliken Center for Theoretical Chemistry        |     
     |                    University of Bonn                     |     
      -----------------------------------------------------------      

   * xtb version 6.6.1 (8d0f1dd) compiled by 'conda@1efc2f54142f' on 2023-08-01

   xtb is free software: you can redistribute it and/or modify it under
   the terms of the GNU Lesser General Public License as published by
   the Free Software Foundation, either version 3 of the License, or
   (at your option) any later version.
   
   xtb is distributed in the hope that it will be useful,
   but WITHOUT ANY WARRANTY; without even the implied warranty of
   MERCHANTABILITY or FITNESS FOR A PARTICULAR PURPOSE.  See the
   GNU Lesser General Public License for more details.
   
   Cite this work as:
   * C. Bannwarth, E. Caldeweyher, S. Ehlert, A. Hansen, P. Pracht,
     J. Seibert, S. Spicher, S. Grimme, WIREs Comput. Mol. Sci., 2020, 11,
     e01493. DOI: 10.1002/wcms.1493
   
   for GFN2-xTB:
   * C. Bannwarth, S. Ehlert and S. Grimme., J. Chem. Theory Comput., 2019,
     15, 1652-1671. DOI: 10.1021/acs.jctc.8b01176
   for GFN1-xTB:
   * S. Grimme, C. Bannwarth, P. Shushkov, J. Chem. Theory Comput., 2017,
     13, 1989-2009. DOI: 10.1021/acs.jctc.7b00118
   for GFN0-xTB:
   * P. Pracht, E. Caldeweyher, S. Ehlert, S. Grimme, ChemRxiv, 2019, preprint.
     DOI: 10.26434/chemrxiv.8326202.v1
   for GFN-FF:
   * S. Spicher and S. Grimme, Angew. Chem. Int. Ed., 2020, 59, 15665-15673.
     DOI: 10.1002/anie.202004239
   
   for ALPB and GBSA implicit solvation:
   * S. Ehlert, M. Stahn, S. Spicher, S. Grimme, J. Chem. Theory Comput.,
     2021, 17, 4250-4261. DOI: 10.1021/acs.jctc.1c00471
   
   for DFT-D4:
   * E. Caldeweyher, C. Bannwarth and S. Grimme, J. Chem. Phys., 2017,
     147, 034112. DOI: 10.1063/1.4993215
   * E. Caldeweyher, S. Ehlert, A. Hansen, H. Neugebauer, S. Spicher,
     C. Bannwarth and S. Grimme, J. Chem. Phys., 2019, 150, 154122.
     DOI: 10.1063/1.5090222
   * E. Caldeweyher, J.-M. Mewes, S. Ehlert and S. Grimme, Phys. Chem. Chem. Phys.
     2020, 22, 8499-8512. DOI: 10.1039/D0CP00502A
   
   for sTDA-xTB:
   * S. Grimme and C. Bannwarth, J. Chem. Phys., 2016, 145, 054103.
     DOI: 10.1063/1.4959605
   
   in the mass-spec context:
   * V. Asgeirsson, C. Bauer and S. Grimme, Chem. Sci., 2017, 8, 4879.
     DOI: 10.1039/c7sc00601b
   * J. Koopman and S. Grimme, ACS Omega 2019, 4, 12, 15120-15133.
     DOI: 10.1021/acsomega.9b02011
   
   for metadynamics refer to:
   * S. Grimme, J. Chem. Theory Comput., 2019, 155, 2847-2862
     DOI: 10.1021/acs.jctc.9b00143
   
   for SPH calculations refer to:
   * S. Spicher and S. Grimme, J. Chem. Theory Comput., 2021, 17, 1701-1714
     DOI: 10.1021/acs.jctc.0c01306
   
   with help from (in alphabetical order)
   P. Atkinson, C. Bannwarth, F. Bohle, G. Brandenburg, E. Caldeweyher
   M. Checinski, S. Dohm, S. Ehlert, S. Ehrlich, I. Gerasimov, C. Hölzer
   A. Katbashev, J. Koopman, C. Lavigne, S. Lehtola, F. März, M. Müller,
   F. Musil, H. Neugebauer, J. Pisarek, C. Plett, P. Pracht, F. Pultar,
   J. Seibert, P. Shushkov, S. Spicher, M. Stahn, M. Steiner, T. Strunk,
   J. Stückrath, T. Rose, and J. Unsleber
   
 * started run on 2024/04/06 at 11:14:39.667     

           -------------------------------------------------
          |                Calculation Setup                |
           -------------------------------------------------

          program call               : xtb xtbopt.xyz --opt crude --input .xc2 --gfn2
          hostname                   : n-62-30-23
          coordinate file            : xtbopt.xyz
          omp threads                :                     1

   ID    Z sym.   atoms
    1    7 N      1, 17
    2    6 C      2-6, 8, 9, 11-16, 18-23, 25, 26, 28-33
    3    8 O      7, 10, 24, 27
    4    1 H      34-72

molecular fragmentation (1/2 indicates fragments):
111111111111111111111111112211111111111111111111111111111221111111111111
# atoms in fragment 1/2:    68     4
 fragment masses (1/2) :      425.58       30.03
CMA distance (Bohr)    :  16.795
constraining FC (au)   :  0.0500
########################################################################
[WARNING] Please study the warnings concerning your input carefully
-1- readin_getIntValue: could not parse ''
########################################################################

           -------------------------------------------------
          |                 G F N 2 - x T B                 |
           -------------------------------------------------

        Reference                      10.1021/acs.jctc.8b01176
      * Hamiltonian:
        H0-scaling (s, p, d)           1.850000    2.230000    2.230000
        zeta-weighting                 0.500000
      * Dispersion:
        s8                             2.700000
        a1                             0.520000
        a2                             5.000000
        s9                             5.000000
      * Repulsion:
        kExp                           1.500000    1.000000
        rExp                           1.000000
      * Coulomb:
        alpha                          2.000000
        third order                    shell-resolved
        anisotropic                    true
        a3                             3.000000
        a5                             4.000000
        cn-shift                       1.200000
        cn-exp                         4.000000
        max-rad                        5.000000

q/qsh data taken from xtbrestart
CAMM data taken from xtbrestart

          ...................................................
          :                      SETUP                      :
          :.................................................:
          :  # basis functions                 171          :
          :  # atomic orbitals                 171          :
          :  # shells                          105          :
          :  # electrons                       180          :
          :  max. iterations                   250          :
          :  Hamiltonian                  GFN2-xTB          :
          :  restarted?                       true          :
          :  GBSA solvation                  false          :
          :  PC potential                    false          :
          :  electronic temp.         5000.0000000     K    :
          :  accuracy                    1.0000000          :
          :  -> integral cutoff          0.2500000E+02      :
          :  -> integral neglect         0.1000000E-07      :
          :  -> SCF convergence          0.1000000E-05 Eh   :
          :  -> wf. convergence          0.1000000E-03 e    :
          :  Broyden damping             0.4000000          :
          ...................................................

 iter      E             dE          RMSdq      gap      omega  full diag
   1   -100.7622759 -0.100762E+03  0.121E-05    1.76       0.0  T
   2   -100.7622759  0.305533E-11  0.123E-05    1.76     957.6  T
   3   -100.7622759 -0.117950E-10  0.468E-06    1.76    2520.0  T

   *** convergence criteria satisfied after 3 iterations ***

         #    Occupation            Energy/Eh            Energy/eV
      -------------------------------------------------------------
         1        2.0000           -0.8098987             -22.0385
       ...           ...                  ...                  ...
        84        1.9914           -0.5049028             -13.7391
        85        1.9832           -0.4941615             -13.4468
        86        1.9799           -0.4912467             -13.3675
        87        1.9676           -0.4836408             -13.1605
        88        1.9327           -0.4717689             -12.8375
        89        1.8871           -0.4632036             -12.6044
        90        1.8645           -0.4601171             -12.5204 (HOMO)
        91        0.3753           -0.3954016             -10.7594 (LUMO)
        92        0.0283           -0.3514127              -9.5624
        93        0.0132           -0.3391515              -9.2288
        94        0.0033           -0.3173013              -8.6342
        95        0.0027           -0.3141373              -8.5481
       ...           ...                  ...                  ...
       171                          0.5754489              15.6588
      -------------------------------------------------------------
                  HL-Gap            0.0647155 Eh            1.7610 eV
             Fermi-level           -0.4186031 Eh          -11.3908 eV

 SCC (total)                   0 d,  0 h,  0 min,  0.118 sec
 SCC setup                      ...        0 min,  0.001 sec (  0.811%)
 Dispersion                     ...        0 min,  0.002 sec (  1.447%)
 classical contributions        ...        0 min,  0.000 sec (  0.361%)
 integral evaluation            ...        0 min,  0.018 sec ( 15.143%)
 iterations                     ...        0 min,  0.028 sec ( 23.796%)
 molecular gradient             ...        0 min,  0.069 sec ( 57.901%)
 printout                       ...        0 min,  0.001 sec (  0.527%)

         :::::::::::::::::::::::::::::::::::::::::::::::::::::
         ::                     SUMMARY                     ::
         :::::::::::::::::::::::::::::::::::::::::::::::::::::
         :: total energy             -99.358168381635 Eh    ::
         :: gradient norm              0.003920332756 Eh/a0 ::
         :: HOMO-LUMO gap              1.760997801767 eV    ::
         ::.................................................::
         :: SCC energy              -100.762275948620 Eh    ::
         :: -> isotropic ES            0.114296220626 Eh    ::
         :: -> anisotropic ES          0.002431828471 Eh    ::
         :: -> anisotropic XC          0.048760358527 Eh    ::
         :: -> dispersion             -0.072405050493 Eh    ::
         :: repulsion energy           1.402946767602 Eh    ::
         :: add. restraining           0.000000000000 Eh    ::
         :: total charge               1.000000000000 e     ::
         :::::::::::::::::::::::::::::::::::::::::::::::::::::

      ----------------------------------------------------------- 
     |                   =====================                   |
     |                        A N C O P T                        |
     |                   =====================                   |
     |               Approximate Normal Coordinate               |
     |                Rational Function Optimizer                |
      ----------------------------------------------------------- 

          ...................................................
          :                      SETUP                      :
          :.................................................:
          :   optimization level             crude          :
          :   max. optcycles                   200          :
          :   ANC micro-cycles                  20          :
          :   degrees of freedom               210          :
          :.................................................:
          :   RF solver                   davidson          :
          :   write xtbopt.log                true          :
          :   linear?                        false          :
          :   energy convergence         0.5000000E-03 Eh   :
          :   grad. convergence          0.1000000E-01 Eh/α :
          :   maxmium RF displ.          1.0000000          :
          :   Hlow (freq-cutoff)         0.1000000E-01      :
          :   Hmax (freq-cutoff)         5.0000000          :
          :   S6 in model hess.         20.0000000          :
          ...................................................

generating ANC from model Hessian ...
Using Lindh-Hessian (1995)
 Shifting diagonal of input Hessian by    1.0034364700495964E-002
 Lowest  eigenvalues of input Hessian
    0.010000    0.010018    0.000000    0.000000    0.000000    0.000000
    0.000000    0.000000    0.010053    0.010080    0.010094    0.010272
    0.010301    0.010345    0.010538    0.010643    0.010693    0.010761
 Highest eigenvalues
    2.005041    2.042082    2.106742    2.132909    2.181540    2.220838


........................................................................
.............................. CYCLE    1 ..............................
........................................................................

 iter      E             dE          RMSdq      gap      omega  full diag
   1   -100.7622759 -0.100762E+03  0.284E-06    1.76       0.0  T
   2   -100.7622759  0.142109E-13  0.280E-06    1.76    4202.0  T
   3   -100.7622759 -0.213163E-12  0.152E-06    1.76    7778.4  T
     SCC iter.                  ...        0 min,  0.027 sec
     gradient                   ...        0 min,  0.069 sec
 * total energy  :   -99.3581684 Eh     change       -0.1065814E-11 Eh
   gradient norm :     0.0039203 Eh/α   predicted     0.0000000E+00 (-100.00%)
   displ. norm   :     0.1099550 α      lambda       -0.1505583E-03
   maximum displ.:     0.0912269 α      in ANC's #3, #6, #14, ...

   *** GEOMETRY OPTIMIZATION CONVERGED AFTER 1 ITERATIONS ***

------------------------------------------------------------------------
 total energy gain   :        -0.0000000 Eh       -0.0000 kcal/mol
 total RMSD          :         0.0000000 a0        0.0000 Å
 total power (kW/mol):        -0.0000000 (step)   -0.0000 (real)
------------------------------------------------------------------------

 ANCopt (total)                0 d,  0 h,  0 min,  0.180 sec
 optimizer setup                ...        0 min,  0.000 sec (  0.128%)
 model hessian                  ...        0 min,  0.053 sec ( 29.482%)
 ANC generation                 ...        0 min,  0.007 sec (  3.646%)
 coordinate transformation      ...        0 min,  0.000 sec (  0.027%)
 single point calculation       ...        0 min,  0.117 sec ( 65.082%)
 optimization log               ...        0 min,  0.002 sec (  1.187%)
 hessian update                 ...        0 min,  0.000 sec (  0.001%)
 rational function              ...        0 min,  0.000 sec (  0.110%)

================
 final structure:
================
72
 xtb: 6.6.1 (8d0f1dd)
N           -2.00366739576807        3.00493769450782        2.20453991451987
C           -1.94856483902997        2.24608505696234        1.21404554194706
C           -3.09644159746047        1.98146832495736        0.27875406899329
C           -3.48314411715827        0.51294814684895        0.35718169583873
C           -4.36157261030989       -0.02512696101319       -0.58567426924825
C           -4.76085088941201       -1.34995141219950       -0.52901567905341
O           -5.60807038925022       -1.94615544437964       -1.39319266800526
C           -6.23016862560852       -1.17342982121157       -2.39284010003502
C           -4.26241617681386       -2.18806940166741        0.50523384482818
O           -4.69886843161523       -3.46254558437760        0.47916536184538
C           -4.31410913315559       -4.34081289958533        1.51123087019843
C           -3.39445357239980       -1.64595438858432        1.44011479065012
C           -3.01340616031694       -0.31243821023171        1.36723278325462
C           -2.57310161129133        2.32647018916711       -1.14116029318576
C           -1.60998114408816        1.28695721733879       -1.74097315665437
C           -0.26224965531600        1.30127849235019       -1.13056197262040
N            0.44765824601944        0.23144557850697       -0.80858495135479
C            1.83389987886188        0.34911137900468       -0.42050053463128
C            2.78351546597730       -0.07272999446292       -1.55886908320785
C            4.21252103491249        0.09562991011502       -1.12341561368986
C            4.91493520133045        1.25534229698237       -1.42292735714715
C            6.22307497213314        1.42867413059059       -1.01085139657901
C            6.86125139351012        0.43420848687906       -0.26812671994545
O            8.12743595708834        0.50217141947559        0.18521448078625
C            8.90377726014349        1.64356209842287       -0.10269247216494
C            6.15194776127158       -0.73268376073441        0.04388184269990
O            6.47442790374297       -4.03621828957481        1.80218851995584
C            6.82435975450554       -5.05917279372138        2.31274581002907
C            4.85159677044860       -0.89262148553492       -0.37963161212073
C           -0.09250796724591       -1.10403440926763       -0.91737832163816
C           -4.36327017442047        2.83174660411278        0.59432127354386
C           -4.95181332109722        2.47487791633605        1.95745800350256
C           -4.11588730579371        4.33583434449046        0.51982631409720
H           -4.75013905803051        0.60753166360984       -1.36636670806165
H           -6.81223121637256       -0.35306007898949       -1.96177898818637
H           -6.89998705751464       -1.85503730061789       -2.91324730513130
H           -5.50080080730847       -0.77200595917246       -3.10438522523778
H           -4.64206674306146       -3.97727751419492        2.48957100537378
H           -4.81073454308753       -5.28385986455566        1.29150332337562
H           -3.23060629810059       -4.49624841490692        1.52314431296024
H           -3.01652549582650       -2.25248222690850        2.24702075347755
H           -2.36223333391263        0.08124275244657        2.13224405394694
H           -3.42606636781074        2.42286762870578       -1.81235109632410
H           -2.07365066147506        3.29543230997623       -1.10403428486029
H           -2.06311844138783        0.29807779458068       -1.69599753066564
H           -1.48650062358205        1.54836405175886       -2.80070484443213
H           -1.02885930481852        1.72118831002925        0.89068598770770
H            0.23644804435910        2.25688346980935       -1.05331673441790
H            2.01734565892811       -0.28008513153390        0.45498650832535
H            2.04593232077955        1.38506286189161       -0.14846900669437
H            2.58281956531575        0.54808945003375       -2.43402666626148
H            2.59840931369602       -1.11491666544802       -1.82319671096619
H            4.44265446800698        2.03719606327693       -1.99939631804988
H            6.73904867046647        2.33905036133196       -1.27214461456584
H            8.46267713098140        2.54668496939763        0.32980329617640
H            9.03154719861629        1.77834715552503       -1.18039386109563
H            9.87494135905376        1.46326597211107        0.35462381149103
H            7.44081218448405       -5.80321383675040        1.78485026645301
H            6.55937981381276       -5.32603821365465        3.34828444376540
H            6.64120058455608       -1.50394785728417        0.61573509026465
H            4.33085629796924       -1.80720904647986       -0.13712516080893
H           -0.27595645340865       -1.37093640755752       -1.96040909002548
H           -1.03102387174298       -1.18160592345272       -0.36379127398758
H            0.61675994332629       -1.81272476288961       -0.49769924748843
H           -5.10581855213984        2.57219354109667       -0.16941777610151
H           -4.24853181218534        2.72714168342552        2.74489339582884
H           -5.18840114484339        1.41516571215591        2.01972997280429
H           -5.86691493283241        3.03930992784490        2.11718999254464
H           -3.37296573884486        4.63153259542235        1.25360177184192
H           -3.78856821584840        4.64674642102806       -0.46832306166743
H           -5.04154542120996        4.85950444816491        0.74291555620744
H           -1.15692734442666        3.13310515264956        2.75031788965810

 Bond Distances (Angstroems)
 ---------------------------
N1-C2=1.2490         N1-H72=1.0155        C2-N1=1.2490         C2-C3=1.5041         C2-H47=1.1072        C3-C2=1.5041         
C3-C4=1.5206         C3-C14=1.5521        C3-C31=1.5580        C4-C3=1.5206         C4-C5=1.3965         C4-C13=1.3864        
C5-C4=1.3965         C5-C6=1.3848         C5-H34=1.0774        C6-C5=1.3848         C6-O7=1.3491         C6-C9=1.4215         
O7-C6=1.3491         O7-C8=1.4083         C8-O7=1.4083         C8-H35=1.0944        C8-H36=1.0881        C8-H37=1.0952        
C9-C6=1.4215         C9-O10=1.3474        C9-C12=1.3861        O10-C9=1.3474        O10-C11=1.4087       C11-O10=1.4087       
C11-H38=1.0940       C11-H39=1.0882       C11-H40=1.0947       C12-C9=1.3861        C12-C13=1.3888       C12-H41=1.0779       
C13-C4=1.3864        C13-C12=1.3888       C13-H42=1.0790       C14-C3=1.5521        C14-C15=1.5388       C14-H43=1.0897       
C14-H44=1.0907       C15-C14=1.5388       C15-C16=1.4796       C15-H45=1.0887       C15-H46=1.0985       C16-C15=1.4796       
C16-N17=1.3237       C16-H48=1.0807       N17-C16=1.3237       N17-C18=1.4443       N17-C30=1.4447       C18-N17=1.4443       
C18-C19=1.5413       C18-H49=1.0936       C18-H50=1.0919       C19-C18=1.5413       C19-C20=1.5033       C19-H51=1.0916       
C19-H52=1.0910       C20-C19=1.5033       C20-C21=1.3885       C20-C29=1.3922       C21-C20=1.3885       C21-C22=1.3824       
C21-H53=1.0801       C22-C21=1.3824       C22-C23=1.3957       C22-H54=1.0786       C23-C22=1.3957       C23-O24=1.3466       
C23-C26=1.4007       O24-C23=1.3466       O24-C25=1.4101       C25-O24=1.4101       C25-H55=1.0942       C25-H56=1.0936       
C25-H57=1.0885       C26-C23=1.4007       C26-C29=1.3769       C26-H60=1.0776       O27-C28=1.1956       C28-O27=1.1956       
C28-H58=1.1010       C28-H59=1.1017       C29-C20=1.3922       C29-C26=1.3769       C29-H61=1.0800       C30-N17=1.4447       
C30-H62=1.0922       C30-H63=1.0924       C30-H64=1.0869       C31-C3=1.5580        C31-C32=1.5270       C31-C33=1.5261       
C31-H65=1.0964       C32-C31=1.5270       C32-H66=1.0855       C32-H67=1.0876       C32-H68=1.0870       C33-C31=1.5261       
C33-H69=1.0853       C33-H70=1.0864       C33-H71=1.0867       H34-C5=1.0774        H35-C8=1.0944        H36-C8=1.0881        
H37-C8=1.0952        H38-C11=1.0940       H39-C11=1.0882       H40-C11=1.0947       H41-C12=1.0779       H42-C13=1.0790       
H43-C14=1.0897       H44-C14=1.0907       H45-C15=1.0887       H46-C15=1.0985       H47-C2=1.1072        H48-C16=1.0807       
H49-C18=1.0936       H50-C18=1.0919       H51-C19=1.0916       H52-C19=1.0910       H53-C21=1.0801       H54-C22=1.0786       
H55-C25=1.0942       H56-C25=1.0936       H57-C25=1.0885       H58-C28=1.1010       H59-C28=1.1017       H60-C26=1.0776       
H61-C29=1.0800       H62-C30=1.0922       H63-C30=1.0924       H64-C30=1.0869       H65-C31=1.0964       H66-C32=1.0855       
H67-C32=1.0876       H68-C32=1.0870       H69-C33=1.0853       H70-C33=1.0864       H71-C33=1.0867       H72-N1=1.0155        
 C  H  Rav=1.0893 sigma=0.0071  Rmin=1.0774  Rmax=1.1072    38
 C  C  Rav=1.4523 sigma=0.0687  Rmin=1.3769  Rmax=1.5580    22
 N  H  Rav=1.0155 sigma=0.0000  Rmin=1.0155  Rmax=1.0155     1
 N  C  Rav=1.3654 sigma=0.0834  Rmin=1.2490  Rmax=1.4447     4
 O  C  Rav=1.3523 sigma=0.0700  Rmin=1.1956  Rmax=1.4101     7

 selected bond angles (degree)
 --------------------
H72-N1-C2=117.78               C3-C2-N1=124.50                H47-C2-N1=123.80               H47-C2-C3=111.65               
C4-C3-C2=109.38                C14-C3-C2=105.81               C14-C3-C4=110.34               C31-C3-C2=113.49               
C31-C3-C4=108.05               C31-C3-C14=109.76              C5-C4-C3=119.82                C13-C4-C3=121.76               
C13-C4-C5=118.40               C6-C5-C4=121.49                H34-C5-C4=119.33               H34-C5-C6=119.17               
O7-C6-C5=125.28                C9-C6-C5=119.52                C9-C6-O7=115.20                C8-O7-C6=119.31                
H35-C8-O7=111.51               H36-C8-O7=105.53               H36-C8-H35=109.30              H37-C8-O7=111.60               
H37-C8-H35=109.59              H37-C8-H36=109.20              O10-C9-C6=115.47               C12-C9-C6=118.67               
C12-C9-O10=125.86              C11-O10-C9=119.15              

 selected dihedral angles (degree)
 ---------------------------------
C3-C2-N1-H72=181.98           H47-C2-N1-H72=358.99          C4-C3-C2-N1=243.52            C4-C3-C2-H47= 66.19           
C14-C3-C2-N1=124.66           C14-C3-C2-H47=307.33          C31-C3-C2-N1=  4.25           C31-C3-C2-H47=186.92          
C5-C4-C3-C2=191.28            C5-C4-C3-C14=307.28           C5-C4-C3-C31= 67.29           C13-C4-C3-C2= 12.99           
C13-C4-C3-C14=128.99          C13-C4-C3-C31=249.00          C6-C5-C4-C3=181.49            C6-C5-C4-C13=359.84           
H34-C5-C4-C3=  0.53           H34-C5-C4-C13=178.88          O7-C6-C5-C4=179.69            O7-C6-C5-H34=  0.65           
C9-C6-C5-C4=359.62            C9-C6-C5-H34=180.58           C8-O7-C6-C5=355.32            C8-O7-C6-C9=175.38            
H35-C8-O7-C6=301.94           H36-C8-O7-C6=183.36           H37-C8-O7-C6= 64.87           O10-C9-C6-C5=180.30           
O10-C9-C6-O7=  0.24           C12-C9-C6-C5=  0.59           C12-C9-C6-O7=180.52           C11-O10-C9-C6=183.57          
C11-O10-C9-C12=  3.26         

 CMA Distance (Angstroems)
 ---------------------------
R(CMA):  8.8873
           -------------------------------------------------
          |                Final Singlepoint                |
           -------------------------------------------------

          ...................................................
          :                      SETUP                      :
          :.................................................:
          :  # basis functions                 171          :
          :  # atomic orbitals                 171          :
          :  # shells                          105          :
          :  # electrons                       180          :
          :  max. iterations                   250          :
          :  Hamiltonian                  GFN2-xTB          :
          :  restarted?                      false          :
          :  GBSA solvation                  false          :
          :  PC potential                    false          :
          :  electronic temp.         5000.0000000     K    :
          :  accuracy                    1.0000000          :
          :  -> integral cutoff          0.2500000E+02      :
          :  -> integral neglect         0.1000000E-07      :
          :  -> SCF convergence          0.1000000E-05 Eh   :
          :  -> wf. convergence          0.1000000E-03 e    :
          :  Broyden damping             0.4000000          :
          ...................................................

 iter      E             dE          RMSdq      gap      omega  full diag
   1   -100.7622759 -0.100762E+03  0.860E-07    1.76       0.0  T
   2   -100.7622759  0.483169E-12  0.849E-07    1.76   13878.9  T
   3   -100.7622759 -0.113687E-12  0.351E-07    1.76   33610.0  T

   *** convergence criteria satisfied after 3 iterations ***

         #    Occupation            Energy/Eh            Energy/eV
      -------------------------------------------------------------
         1        2.0000           -0.8098987             -22.0385
       ...           ...                  ...                  ...
        84        1.9914           -0.5049028             -13.7391
        85        1.9832           -0.4941615             -13.4468
        86        1.9799           -0.4912467             -13.3675
        87        1.9676           -0.4836408             -13.1605
        88        1.9327           -0.4717689             -12.8375
        89        1.8871           -0.4632036             -12.6044
        90        1.8645           -0.4601171             -12.5204 (HOMO)
        91        0.3753           -0.3954015             -10.7594 (LUMO)
        92        0.0283           -0.3514127              -9.5624
        93        0.0132           -0.3391515              -9.2288
        94        0.0033           -0.3173013              -8.6342
        95        0.0027           -0.3141373              -8.5481
       ...           ...                  ...                  ...
       171                          0.5754489              15.6588
      -------------------------------------------------------------
                  HL-Gap            0.0647156 Eh            1.7610 eV
             Fermi-level           -0.4186031 Eh          -11.3908 eV

 SCC (total)                   0 d,  0 h,  0 min,  0.115 sec
 SCC setup                      ...        0 min,  0.001 sec (  0.749%)
 Dispersion                     ...        0 min,  0.001 sec (  1.101%)
 classical contributions        ...        0 min,  0.000 sec (  0.379%)
 integral evaluation            ...        0 min,  0.018 sec ( 15.230%)
 iterations                     ...        0 min,  0.026 sec ( 22.724%)
 molecular gradient             ...        0 min,  0.068 sec ( 59.319%)
 printout                       ...        0 min,  0.001 sec (  0.484%)

         :::::::::::::::::::::::::::::::::::::::::::::::::::::
         ::                     SUMMARY                     ::
         :::::::::::::::::::::::::::::::::::::::::::::::::::::
         :: total energy             -99.358168381636 Eh    ::
         :: gradient norm              0.003920273366 Eh/a0 ::
         :: HOMO-LUMO gap              1.761000565765 eV    ::
         ::.................................................::
         :: SCC energy              -100.762275948621 Eh    ::
         :: -> isotropic ES            0.114296309065 Eh    ::
         :: -> anisotropic ES          0.002431815260 Eh    ::
         :: -> anisotropic XC          0.048760359046 Eh    ::
         :: -> dispersion             -0.072405050373 Eh    ::
         :: repulsion energy           1.402946767602 Eh    ::
         :: add. restraining           0.000000000000 Eh    ::
         :: total charge               1.000000000000 e     ::
         :::::::::::::::::::::::::::::::::::::::::::::::::::::

           -------------------------------------------------
          |                Property Printout                |
           -------------------------------------------------

    * Orbital Energies and Occupations

         #    Occupation            Energy/Eh            Energy/eV
      -------------------------------------------------------------
         1        2.0000           -0.8098987             -22.0385
       ...           ...                  ...                  ...
        78        1.9981           -0.5289214             -14.3927
        79        1.9980           -0.5281096             -14.3706
        80        1.9972           -0.5228361             -14.2271
        81        1.9955           -0.5151953             -14.0192
        82        1.9947           -0.5126342             -13.9495
        83        1.9938           -0.5100503             -13.8792
        84        1.9914           -0.5049028             -13.7391
        85        1.9832           -0.4941615             -13.4468
        86        1.9799           -0.4912467             -13.3675
        87        1.9676           -0.4836408             -13.1605
        88        1.9327           -0.4717689             -12.8375
        89        1.8871           -0.4632036             -12.6044
        90        1.8645           -0.4601171             -12.5204 (HOMO)
        91        0.3753           -0.3954015             -10.7594 (LUMO)
        92        0.0283           -0.3514127              -9.5624
        93        0.0132           -0.3391515              -9.2288
        94        0.0033           -0.3173013              -8.6342
        95        0.0027           -0.3141373              -8.5481
        96        0.0023           -0.3114852              -8.4759
        97        0.0015           -0.3048313              -8.2949
        98        0.0000           -0.1915921              -5.2135
        99        0.0000           -0.1820262              -4.9532
       100                         -0.1361442              -3.7047
       101                         -0.0702323              -1.9111
       ...                                ...                  ...
       171                          0.5754489              15.6588
      -------------------------------------------------------------
                  HL-Gap            0.0647156 Eh            1.7610 eV
             Fermi-level           -0.4186031 Eh          -11.3908 eV

     #   Z          covCN         q      C6AA      α(0)
     1   7 N        1.774    -0.268    27.767     7.803
     2   6 C        2.827     0.102    25.737     8.313
     3   6 C        3.907     0.006    20.414     6.422
     4   6 C        2.974     0.002    27.988     8.678
     5   6 C        2.920    -0.080    30.012     8.984
     6   6 C        2.862     0.129    25.167     8.223
     7   8 O        1.706    -0.230    17.809     5.698
     8   6 C        3.644     0.027    20.450     6.500
     9   6 C        2.864     0.129    25.178     8.225
    10   8 O        1.706    -0.228    17.776     5.692
    11   6 C        3.645     0.027    20.462     6.501
    12   6 C        2.914    -0.074    29.848     8.959
    13   6 C        2.921    -0.052    29.304     8.877
    14   6 C        3.812    -0.065    21.729     6.635
    15   6 C        3.802    -0.070    21.835     6.653
    16   6 C        2.844     0.009    27.800     8.641
    17   7 N        2.729     0.017    20.954     6.799
    18   6 C        3.755    -0.017    20.940     6.525
    19   6 C        3.807    -0.071    21.845     6.653
    20   6 C        2.970    -0.000    28.033     8.685
    21   6 C        2.924    -0.037    28.932     8.821
    22   6 C        2.916    -0.062    29.552     8.914
    23   6 C        2.865     0.154    24.659     8.140
    24   8 O        1.706    -0.236    17.911     5.714
    25   6 C        3.644     0.027    20.451     6.500
    26   6 C        2.918    -0.048    29.191     8.860
    27   8 O        0.856    -0.280    19.422     5.909
    28   6 C        2.702     0.180    24.127     8.040
    29   6 C        2.923    -0.035    28.871     8.811
    30   6 C        3.700    -0.071    22.026     6.711
    31   6 C        3.853    -0.007    20.671     6.467
    32   6 C        3.756    -0.118    22.816     6.811
    33   6 C        3.755    -0.120    22.846     6.815
    34   1 H        0.926     0.052     2.295     2.369
    35   1 H        0.924     0.054     2.269     2.356
    36   1 H        0.925     0.082     1.963     2.191
    37   1 H        0.924     0.047     2.356     2.400
    38   1 H        0.924     0.056     2.249     2.345
    39   1 H        0.925     0.081     1.964     2.191
    40   1 H        0.924     0.049     2.335     2.389
    41   1 H        0.926     0.053     2.281     2.362
    42   1 H        0.926     0.040     2.445     2.445
    43   1 H        0.925     0.061     2.186     2.312
    44   1 H        0.924     0.054     2.266     2.354
    45   1 H        0.925     0.068     2.112     2.273
    46   1 H        0.923     0.082     1.963     2.191
    47   1 H        0.922     0.005     2.980     2.700
    48   1 H        0.926     0.071     2.070     2.250
    49   1 H        0.924     0.071     2.069     2.250
    50   1 H        0.924     0.067     2.115     2.275
    51   1 H        0.924     0.053     2.288     2.365
    52   1 H        0.924     0.057     2.238     2.339
    53   1 H        0.926     0.041     2.432     2.439
    54   1 H        0.926     0.051     2.306     2.374
    55   1 H        0.924     0.053     2.289     2.366
    56   1 H        0.924     0.054     2.266     2.354
    57   1 H        0.925     0.078     1.996     2.209
    58   1 H        0.923     0.053     2.281     2.362
    59   1 H        0.923     0.051     2.306     2.375
    60   1 H        0.926     0.082     1.960     2.189
    61   1 H        0.926     0.049     2.333     2.388
    62   1 H        0.924     0.078     1.998     2.210
    63   1 H        0.924     0.079     1.987     2.205
    64   1 H        0.925     0.084     1.938     2.177
    65   1 H        0.924     0.037     2.486     2.466
    66   1 H        0.925     0.068     2.112     2.273
    67   1 H        0.925     0.035     2.513     2.479
    68   1 H        0.925     0.052     2.298     2.371
    69   1 H        0.925     0.064     2.158     2.297
    70   1 H        0.925     0.035     2.517     2.481
    71   1 H        0.925     0.055     2.263     2.353
    72   1 H        0.860     0.158     1.351     1.821

 Mol. C6AA /au·bohr⁶  :      47800.772459
 Mol. C8AA /au·bohr⁸  :    1090433.679226
 Mol. α(0) /au        :        336.523925


Wiberg/Mayer (AO) data.
largest (>0.10) Wiberg bond orders for each atom

 ---------------------------------------------------------------------------
     #   Z sym  total        # sym  WBO       # sym  WBO       # sym  WBO
 ---------------------------------------------------------------------------
     1   7 N    3.037 --     2 C    1.957    72 H    0.941
     2   6 C    3.932 --     1 N    1.957     3 C    0.994    47 H    0.905
     3   6 C    3.975 --     2 C    0.994     4 C    0.971    14 C    0.956
                            31 C    0.942
     4   6 C    3.947 --    13 C    1.413     5 C    1.368     3 C    0.971
     5   6 C    3.962 --     6 C    1.401     4 C    1.368    34 H    0.958
     6   6 C    3.904 --     5 C    1.401     9 C    1.221     7 O    1.099
     7   8 O    2.253 --     6 C    1.099     8 C    0.978
     8   6 C    3.932 --     7 O    0.978    36 H    0.977    35 H    0.973
                            37 H    0.973
     9   6 C    3.900 --    12 C    1.390     6 C    1.221    10 O    1.103
    10   8 O    2.253 --     9 C    1.103    11 C    0.977
    11   6 C    3.931 --    10 O    0.977    39 H    0.977    40 H    0.973
                            38 H    0.973
    12   6 C    3.962 --    13 C    1.406     9 C    1.390    41 H    0.964
    13   6 C    3.953 --     4 C    1.413    12 C    1.406    42 H    0.962
    14   6 C    3.973 --    15 C    0.983    44 H    0.972    43 H    0.968
                             3 C    0.956
    15   6 C    3.986 --    16 C    1.060    14 C    0.983    45 H    0.960
                            46 H    0.925
    16   6 C    3.607 --    17 N    1.421    15 C    1.060    48 H    0.957
    17   7 N    3.493 --    16 C    1.421    30 C    0.997    18 C    0.986
    18   6 C    3.952 --    17 N    0.986    50 H    0.968    19 C    0.966
                            49 H    0.962
    19   6 C    3.975 --    20 C    1.006    51 H    0.973    52 H    0.970
                            18 C    0.966
    20   6 C    3.936 --    21 C    1.402    29 C    1.379    19 C    1.006
    21   6 C    3.970 --    22 C    1.450    20 C    1.402    53 H    0.968
    22   6 C    3.951 --    21 C    1.450    23 C    1.344    54 H    0.964
    23   6 C    3.902 --    22 C    1.344    26 C    1.316    24 O    1.105
    24   8 O    2.246 --    23 C    1.105    25 C    0.977
    25   6 C    3.930 --    57 H    0.977    24 O    0.977    55 H    0.973
                            56 H    0.973
    26   6 C    3.943 --    29 C    1.481    23 C    1.316    60 H    0.962
    27   8 O    2.073 --    28 C    1.984
    28   6 C    3.861 --    27 O    1.984    58 H    0.939    59 H    0.939
    29   6 C    3.973 --    26 C    1.481    20 C    1.379    61 H    0.967
    30   6 C    3.957 --    17 N    0.997    64 H    0.977    62 H    0.966
                            63 H    0.963
    31   6 C    3.972 --    33 C    1.009    32 C    1.008    65 H    0.960
                             3 C    0.942
    32   6 C    3.979 --    31 C    1.008    67 H    0.982    68 H    0.981
                            66 H    0.974
    33   6 C    3.981 --    31 C    1.009    70 H    0.983    71 H    0.980
                            69 H    0.975
    34   1 H    0.996 --     5 C    0.958
    35   1 H    0.993 --     8 C    0.973
    36   1 H    0.993 --     8 C    0.977
    37   1 H    0.994 --     8 C    0.973
    38   1 H    0.992 --    11 C    0.973
    39   1 H    0.993 --    11 C    0.977
    40   1 H    0.993 --    11 C    0.973
    41   1 H    0.995 --    12 C    0.964
    42   1 H    0.998 --    13 C    0.962
    43   1 H    0.995 --    14 C    0.968
    44   1 H    0.996 --    14 C    0.972
    45   1 H    0.994 --    15 C    0.960
    46   1 H    0.970 --    15 C    0.925
    47   1 H    0.986 --     2 C    0.905
    48   1 H    0.995 --    16 C    0.957
    49   1 H    0.990 --    18 C    0.962
    50   1 H    0.995 --    18 C    0.968
    51   1 H    0.996 --    19 C    0.973
    52   1 H    0.995 --    19 C    0.970
    53   1 H    0.997 --    21 C    0.968
    54   1 H    0.996 --    22 C    0.964
    55   1 H    0.992 --    25 C    0.973
    56   1 H    0.992 --    25 C    0.973
    57   1 H    0.993 --    25 C    0.977
    58   1 H    0.987 --    28 C    0.939
    59   1 H    0.987 --    28 C    0.939
    60   1 H    0.991 --    26 C    0.962
    61   1 H    0.996 --    29 C    0.967
    62   1 H    0.985 --    30 C    0.966
    63   1 H    0.987 --    30 C    0.963
    64   1 H    0.993 --    30 C    0.977
    65   1 H    0.992 --    31 C    0.960
    66   1 H    0.991 --    32 C    0.974
    67   1 H    0.997 --    32 C    0.982
    68   1 H    0.994 --    32 C    0.981
    69   1 H    0.992 --    33 C    0.975
    70   1 H    0.997 --    33 C    0.983
    71   1 H    0.993 --    33 C    0.980
    72   1 H    0.970 --     1 N    0.941
 ---------------------------------------------------------------------------

Topologies differ in total number of bonds
Writing topology from bond orders to xtbtopo.mol

molecular dipole:
                 x           y           z       tot (Debye)
 q only:        0.586      -0.000      -0.795
   full:        1.051      -0.150      -0.853       3.461
molecular quadrupole (traceless):
                xx          xy          yy          xz          yz          zz
 q only:       51.213      -3.168     -12.607       9.981     -17.197     -38.605
  q+dip:       47.832      -2.105     -10.410      15.119     -24.479     -37.422
   full:       48.336      -2.072     -11.749      13.027     -23.581     -36.587

           -------------------------------------------------
          |                Geometry Summary                 |
           -------------------------------------------------

      molecular mass/u    :      455.6105846
   center of mass at/Å    :       -0.0132946      -0.0398179       0.0088717
  moments of inertia/u·Å² :        0.3060051E+04   0.1099372E+05   0.1263041E+05
rotational constants/cm⁻¹ :        0.5508939E-02   0.1533387E-02   0.1334686E-02

 * 65 selected distances

     #   Z          #   Z                                           value/Å
     1   7 N        2   6 C                                       1.2489888
     4   6 C        5   6 C                                       1.3964738
     5   6 C        6   6 C                                       1.3848442
     6   6 C        7   8 O                                       1.3490894
     7   8 O        8   6 C                                       1.4083346
     6   6 C        9   6 C                                       1.4214610
     9   6 C       10   8 O                                       1.3473901
    10   8 O       11   6 C                                       1.4087416
     9   6 C       12   6 C                                       1.3860918
     4   6 C       13   6 C                                       1.3864054
    12   6 C       13   6 C                                       1.3888033
    14   6 C       15   6 C                                       1.5388191
    15   6 C       16   6 C                                       1.4795903
    16   6 C       17   7 N                                       1.3236998
    17   7 N       18   6 C                                       1.4443410
    18   6 C       19   6 C                                       1.5412992 (max)
    20   6 C       21   6 C                                       1.3885338
    21   6 C       22   6 C                                       1.3824184
    22   6 C       23   6 C                                       1.3956616
    23   6 C       24   8 O                                       1.3466109
    24   8 O       25   6 C                                       1.4100955
    23   6 C       26   6 C                                       1.4007494
    27   8 O       28   6 C                                       1.1956409
    20   6 C       29   6 C                                       1.3922190
    26   6 C       29   6 C                                       1.3769011
    17   7 N       30   6 C                                       1.4446878
    31   6 C       32   6 C                                       1.5270496
    31   6 C       33   6 C                                       1.5261154
     5   6 C       34   1 H                                       1.0773680 (min)
     8   6 C       35   1 H                                       1.0943570
     8   6 C       36   1 H                                       1.0881495
     8   6 C       37   1 H                                       1.0951782
    11   6 C       38   1 H                                       1.0940127
    11   6 C       39   1 H                                       1.0882347
    11   6 C       40   1 H                                       1.0946601
    12   6 C       41   1 H                                       1.0778697
    13   6 C       42   1 H                                       1.0790057
    14   6 C       43   1 H                                       1.0896507
    14   6 C       44   1 H                                       1.0907417
    15   6 C       45   1 H                                       1.0886868
    15   6 C       46   1 H                                       1.0984591
    16   6 C       48   1 H                                       1.0806698
    18   6 C       49   1 H                                       1.0936263
    18   6 C       50   1 H                                       1.0918583
    19   6 C       51   1 H                                       1.0916028
    19   6 C       52   1 H                                       1.0910026
    21   6 C       53   1 H                                       1.0801209
    22   6 C       54   1 H                                       1.0785583
    25   6 C       55   1 H                                       1.0941906
    25   6 C       56   1 H                                       1.0935871
    25   6 C       57   1 H                                       1.0884874
    28   6 C       58   1 H                                       1.1010380
    28   6 C       59   1 H                                       1.1017132
    26   6 C       60   1 H                                       1.0776052
    29   6 C       61   1 H                                       1.0800234
    30   6 C       62   1 H                                       1.0921554
    30   6 C       63   1 H                                       1.0923774
    30   6 C       64   1 H                                       1.0869378
    31   6 C       65   1 H                                       1.0963774
    32   6 C       66   1 H                                       1.0854937
    32   6 C       67   1 H                                       1.0875853
    32   6 C       68   1 H                                       1.0869724
    33   6 C       69   1 H                                       1.0852634
    33   6 C       70   1 H                                       1.0863901
    33   6 C       71   1 H                                       1.0866657

 * 4 distinct bonds (by element types)

   Z      Z             #   av. dist./Å        max./Å        min./Å
   1 H    6 C          37     1.0888291     1.1017132     1.0773680
   6 C    6 C          17     1.4302021     1.5412992     1.3769011
   6 C    7 N           4     1.3654294     1.4446878     1.2489888
   6 C    8 O           7     1.3522719     1.4100955     1.1956409


optimized geometry written to: xtbopt.xyz


           -------------------------------------------------
          | TOTAL ENERGY              -99.358168381636 Eh   |
          | GRADIENT NORM               0.003920273366 Eh/α |
          | HOMO-LUMO GAP               1.761000565765 eV   |
           -------------------------------------------------

------------------------------------------------------------------------
 * finished run on 2024/04/06 at 11:14:40.136     
------------------------------------------------------------------------
 total:
 * wall-time:     0 d,  0 h,  0 min,  0.468 sec
 *  cpu-time:     0 d,  0 h,  0 min,  0.437 sec
 * ratio c/w:     0.932 speedup
 SCF:
 * wall-time:     0 d,  0 h,  0 min,  0.119 sec
 *  cpu-time:     0 d,  0 h,  0 min,  0.118 sec
 * ratio c/w:     0.995 speedup
 ANC optimizer:
 * wall-time:     0 d,  0 h,  0 min,  0.302 sec
 *  cpu-time:     0 d,  0 h,  0 min,  0.294 sec
 * ratio c/w:     0.974 speedup

