25
 energy: 0.000000000000 xtb: 6.6.1 (8d0f1dd)
C            3.23720163006194        1.16630919979326        0.08434469647475
N            2.29877817382611        0.07527477071623        0.03981603040599
C            2.58028210190900       -1.21425402444508        0.03006176031096
N            1.43813958087363       -1.93419271955128        0.00098261760884
C            0.39035688448383       -1.05887472636071       -0.00790371836672
C            0.93510056364412        0.21347819449412        0.01709077491437
C            0.09450143893243        1.40504303904423       -0.00410947031874
O            0.49712751527797        2.54126714362870       -0.00342325688240
N           -1.25076640035757        1.06271879480407       -0.03085478223738
C           -2.21907211982101        2.15522099834493       -0.05001256985998
C           -1.81739487048744       -0.20012725993278       -0.04692818574614
O           -2.99983886758376       -0.37846417018721       -0.07008878229737
N           -0.92618586207120       -1.30210215599479       -0.03682761578324
C           -1.46982264913417       -2.64643102187190       -0.06029820460571
H            3.71247264356769        1.21471455160235        1.06488849150277
H            4.00791497605742        1.03430808813993       -0.67357694370751
H            2.69910007168542        2.09770118228144       -0.09130154882931
H            3.56654120610678       -1.63682992603973        0.04233140067262
H           -1.67107961066214        3.09322851271934       -0.02552706933167
H           -2.82428953597071        2.09428624779827       -0.95318082946668
H           -2.87644029173232        2.07745725625962        0.81450067533302
H           -1.17061996399332       -3.19584890659852        0.83242232437030
H           -1.14560257411436       -3.17511610292205       -0.95688275822323
H           -2.55549792440841       -2.55659984320617       -0.07459039797972
H            1.38130855184625       -2.94313852034425       -0.01389874181052
25
 energy: -5.399712187575 xtb: 6.6.1 (8d0f1dd)
C            3.24555223664747        1.17645862499632        0.08672898977686
N            2.30869671309835        0.09530430407709        0.03769445029624
C            2.59993701079515       -1.23292246444112        0.02997065909419
N            1.42765826631055       -1.94019614475078        0.00066924721094
C            0.39664522180075       -1.05579719150881       -0.00826339671713
C            0.93057730707833        0.22282304563410        0.01528231631342
C            0.10108098648384        1.39608937508040       -0.00496048689705
O            0.49788997858731        2.56188322175256       -0.00405025338950
N           -1.26173678769547        1.05115635817740       -0.03108735115392
C           -2.22269696634868        2.14731394104670       -0.04987493880411
C           -1.82461210677874       -0.20047068742059       -0.04740589052435
O           -3.02120602464751       -0.38360947814832       -0.07063419577185
N           -0.93407527331449       -1.30029594867344       -0.03698277809048
C           -1.47100958631787       -2.64255955390057       -0.06009649390617
H            3.72305239874190        1.22291344333790        1.06909209969908
H            4.01438594585979        1.04039280694482       -0.67525073008889
H            2.69993855412827        2.10136873828072       -0.09021944891906
H            3.57809950693328       -1.65959235339009        0.04235975882822
H           -1.66150806748879        3.07873750775735       -0.02532383457199
H           -2.82851933451136        2.09464493990218       -0.95413512463172
H           -2.88079155394322        2.07793987093749        0.81575812368098
H           -1.16721125917860       -3.19367180404201        0.83196961973481
H           -1.14228007766666       -3.17306067390506       -0.95591679233338
H           -2.55628355621118       -2.55188414606787       -0.07438296611620
H            1.36063113557377       -2.94393712950436       -0.01390668657164
25
 energy: -6.563243417480 xtb: 6.6.1 (8d0f1dd)
C            3.25484382310657        1.18105399460355        0.08895437197359
N            2.31553150312636        0.10655632392001        0.03402095137113
C            2.60941000389576       -1.24613648422929        0.03002311497899
N            1.41557837320794       -1.93850820658195        0.00069920732436
C            0.40005671046628       -1.05087173731266       -0.00892753723367
C            0.92712215122933        0.23129482505912        0.01271001284349
C            0.10585382737088        1.38490949552338       -0.00644277888449
O            0.48524072067442        2.56539008982209       -0.00560324605432
N           -1.27375146397153        1.04140197397355       -0.03159113074420
C           -2.22629451490681        2.14132413745367       -0.04967088045248
C           -1.82810550266319       -0.20133166047451       -0.04792542583814
O           -3.02841600729745       -0.39167265308538       -0.07117272332529
N           -0.93966245987367       -1.29607765112549       -0.03711020495826
C           -1.46966287770404       -2.63766494677128       -0.05970117732187
H            3.73756145682183        1.23117699480459        1.07067883161093
H            4.02462697146762        1.04986281734963       -0.67486436972243
H            2.70707753552201        2.10489663620457       -0.08648769717378
H            3.58079397284438       -1.67926668728456        0.04233253358526
H           -1.64961785360159        3.06397263518271       -0.02501670285534
H           -2.83364779772127        2.09644832473293       -0.95400891764045
H           -2.88556184021109        2.07976430753909        0.81634542754702
H           -1.16302220887899       -3.19017154430196        0.83176495330948
H           -1.13824208983435       -3.16992598173439       -0.95473498497780
H           -2.55495503416597       -2.54722263465314       -0.07395471408454
H            1.33945726903278       -2.94017376644225       -0.01328301712992
25
 energy: -6.657673437683 xtb: 6.6.1 (8d0f1dd)
C            3.26039855187360        1.18056794316480        0.09003148474366
N            2.31840288779472        0.10780265497280        0.03089085600367
C            2.60926789620220       -1.25121362291734        0.03001156848783
N            1.41027250698675       -1.93593295639352        0.00103550665215
C            0.40037260488914       -1.04818857828015       -0.00955498260222
C            0.92693352615065        0.23523113522955        0.01071915019000
C            0.10649611526935        1.38305427288512       -0.00792451880073
O            0.47260808047495        2.56652550941526       -0.00733494455178
N           -1.28063509950882        1.03897663889365       -0.03226056719747
C           -2.22903654738863        2.14020865979533       -0.04956256054691
C           -1.82996436567924       -0.20274339109952       -0.04842307616252
O           -3.02948050274202       -0.39886723125802       -0.07167159885906
N           -0.94053555378694       -1.29360090891601       -0.03717662734783
C           -1.46671609925162       -2.63576157980555       -0.05919478605951
H            3.74629833649525        1.23151763548387        1.07072708614035
H            4.03148711441147        1.05504282161386       -0.67397682452146
H            2.71503780378698        2.10694929274919       -0.08227258171522
H            3.57794471325019       -1.68965040936063        0.04190298823512
H           -1.64459401805630        3.05781382293908       -0.02488633699090
H           -2.83740124739816        2.09873510665426       -0.95344382289450
H           -2.88846937514940        2.08183279532644        0.81661106497303
H           -1.15911390431991       -3.18750612996797        0.83247880795832
H           -1.13449013169817       -3.16784518562416       -0.95410924935927
H           -2.55224053562017       -2.54625735161485       -0.07339615164484
H            1.32937191095035       -2.93766234171349       -0.01218598798263
25
 energy: -6.662753036721 xtb: 6.6.1 (8d0f1dd)
C            3.26723406801804        1.17770759087396        0.09153124008404
N            2.32147840827209        0.10713957070412        0.02602997037960
C            2.60645943729211       -1.25495002070401        0.02976166993602
N            1.40548979019583       -1.93229494709272        0.00165192866441
C            0.39956105446328       -1.04432344685036       -0.01066719056662
C            0.92776486690499        0.23992088021551        0.00752518883093
C            0.10623814669022        1.38463270597642       -0.01060694132540
O            0.45676710993611        2.56967744329172       -0.01030858251859
N           -1.28804932385779        1.03795452762942       -0.03361914222382
C           -2.23315622549634        2.14014618241949       -0.04946696442402
C           -1.83295249605571       -0.20444692218919       -0.04937699387721
O           -3.03087505853455       -0.40748779195588       -0.07248766663983
N           -0.94054218637111       -1.29059900458032       -0.03731344433725
C           -1.46139631228395       -2.63451581032739       -0.05816368870093
H            3.75615561086966        1.22506887833240        1.07126164174405
H            4.03930481766246        1.05866700451096       -0.67298874350916
H            2.72649377695013        2.10835666885523       -0.07502775624614
H            3.57223005595840       -1.70036840865197        0.04060076496510
H           -1.64251788114234        3.05341276227319       -0.02489371943352
H           -2.84309064808774        2.10229375876139       -0.95246059502727
H           -2.89228846975380        2.08476655408072        0.81715033507348
H           -1.15205717910363       -3.18397369807226        0.83415876618247
H           -1.12774591712111       -3.16560745303243       -0.95297487697964
H           -2.54730944580102       -2.54792042878936       -0.07226708777055
H            1.31901866833196       -2.93422799350663       -0.01001421613286
25
 energy: -6.614329164134 xtb: 6.6.1 (8d0f1dd)
C            3.27449016547453        1.17286222523532        0.09375645722233
N            2.32387578422921        0.10620260421595        0.01969519170847
C            2.60223318985622       -1.25626585408297        0.02894681304561
N            1.40135720527122       -1.92821811124935        0.00226906752350
C            0.39760102715913       -1.03910812622068       -0.01238400036638
C            0.92864992677872        0.24525789519745        0.00303597478851
C            0.10536580706799        1.38874579471134       -0.01464075344738
O            0.44301307465518        2.57488936809912       -0.01461783545398
N           -1.29432301217966        1.03806738717457       -0.03583204919832
C           -2.23831522789300        2.14061636254245       -0.04945465166681
C           -1.83690909268146       -0.20529335967480       -0.05083274685624
O           -3.03336211863497       -0.41414602805406       -0.07353938600777
N           -0.94061706190907       -1.28732539685558       -0.03760518045132
C           -1.45444174516179       -2.63413356424753       -0.05646313017941
H            3.76572716752679        1.21027917157870        1.07298985579577
H            4.04641639336860        1.05881873260609       -0.67204379099595
H            2.73971132051173        2.10851990071699       -0.06457530607922
H            3.56522990022453       -1.70853755542015        0.03794217452698
H           -1.64544696066579        3.05211381452982       -0.02520000660340
H           -2.85036559548422        2.10576103229445       -0.95119159269562
H           -2.89643798324063        2.08708913520272        0.81811667489315
H           -1.14177018997033       -3.17996227667493        0.83679149908544
H           -1.11800588742881       -3.16389637500868       -0.95086666550782
H           -2.54080988386725       -2.55324775140271       -0.07039008797674
H            1.30934846492934       -2.93006042304153       -0.00687262895613
25
 energy: -6.410962096331 xtb: 6.6.1 (8d0f1dd)
C            3.28879493332155        1.16176781132161        0.09953535185357
N            2.32680658320348        0.10570483503206        0.00572115898727
C            2.59359768510235       -1.25619610207996        0.02619285205763
N            1.39315190016646       -1.92019980181190        0.00289859623176
C            0.39280481452806       -1.02763090071161       -0.01668792448357
C            0.92924959166385        0.25628066958194       -0.00745850377222
C            0.10281183296792        1.39809780514659       -0.02436817152439
O            0.42183728597101        2.58635589271352       -0.02505455177909
N           -1.30473062431711        1.03950151474947       -0.04140713815870
C           -2.24944228166055        2.14158074663540       -0.04965507311028
C           -1.84514443444981       -0.20502013848387       -0.05428953673179
O           -3.03937974965212       -0.42267100218726       -0.07570747141957
N           -0.94181771229795       -1.28068214431509       -0.03849474683572
C           -1.43990131797875       -2.63397186767708       -0.05208171363866
H            3.78408023634584        1.17214654585429        1.07817396586744
H            4.05897097804060        1.05521264483416       -0.66975872677043
H            2.76719489740347        2.10798842211817       -0.03943217721233
H            3.55176969591613       -1.72000403963611        0.03044478945203
H           -1.65700321438258        3.05299800682965       -0.02638967119534
H           -2.86625085892100        2.11062648807185       -0.94845614212141
H           -2.90442282843602        2.08908985938848        0.82056473906830
H           -1.11841122837851       -3.17133685970786        0.84323342656782
H           -1.09613662553816       -3.16148400072123       -0.94497864534148
H           -2.52715916250385       -2.56773013142652       -0.06548023570805
H            1.29094427182191       -2.92139565134668       -0.00003055413552
25
 energy: -4.988149507238 xtb: 6.6.1 (8d0f1dd)
C            3.33105128472185        1.12733625169283        0.11941797419802
N            2.33252749383394        0.10701642117375       -0.03773883509028
C            2.56872192266661       -1.25325726147401        0.01589519923892
N            1.36827246189959       -1.89678781949438        0.00302353012585
C            0.37819487214095       -0.99293257180202       -0.03106865643576
C            0.92890276879410        0.28907605100974       -0.04093576616575
C            0.09361978834786        1.42600899716651       -0.05592550651119
O            0.36760037904851        2.62007651640285       -0.05948439089450
N           -1.33318209192243        1.04552538268975       -0.05991697164501
C           -2.28362656795409        2.14406727163697       -0.05081186838059
C           -1.86910965858980       -0.20146871843441       -0.06530415557351
O           -3.05776772843656       -0.44141689043011       -0.08197718956473
N           -0.94708285841192       -1.26079658169566       -0.04174288868467
C           -1.39691988138149       -2.63331165772883       -0.03719040544788
H            3.83784001819805        1.04850731743563        1.09592982114196
H            4.09448639651542        1.04135276691323       -0.66125511147798
H            2.85113277431967        2.10599869839528        0.04322971119332
H            3.51398282277142       -1.74697337894082        0.00392754280061
H           -1.69774758138848        3.05906317918010       -0.03119945602055
H           -2.91549554533869        2.12077030437525       -0.94003783600277
H           -2.92744785174210        2.09010499278916        0.82838849838627
H           -1.04691101429144       -3.14378588386922        0.86467091486864
H           -1.02976855905710       -3.15558221596786       -0.92440802327234
H           -2.48655843572299       -2.61400602810903       -0.04857050746206
H            1.23749945891526       -2.89555654074267        0.02011827282327
25
 energy: -0.811512634697 xtb: 6.6.1 (8d0f1dd)
C            3.38620911428702        1.07811085985894        0.15071611600650
N            2.33780291643066        0.11042096078362       -0.10234969700999
C            2.53449418955160       -1.24622648796487       -0.00026388557205
N            1.33415323103516       -1.86474972643553        0.00163389817012
C            0.35720110078548       -0.94493526968211       -0.05325211931711
C            0.92681954535103        0.33367265000068       -0.09104751912893
C            0.08011678882142        1.46458167823948       -0.10398603086463
O            0.29862297800057        2.66538198608942       -0.11311754494550
N           -1.37052752971957        1.05447042268826       -0.08855767104724
C           -2.32892854089150        2.14889019808479       -0.05282395285305
C           -1.90269165623960       -0.19542460397823       -0.08183096868426
O           -3.08408562442513       -0.46321603360284       -0.09098217217598
N           -0.95591417657010       -1.23423778291119       -0.04694818924161
C           -1.33663100157978       -2.63338769651919       -0.01388949149609
H            3.90573310702632        0.86647112829062        1.12221110275196
H            4.13927940185027        1.02607465240965       -0.64672437623850
H            2.96344036754841        2.09904745834892        0.17063675488450
H            3.46279990654824       -1.77755710742759       -0.03934259380016
H           -1.75321414606486        3.07017336088838       -0.03916296012227
H           -2.98338247532610        2.13581771445971       -0.92740951596865
H           -2.95453409543682        2.09140857260726        0.84077215232575
H           -0.94547815887107       -3.10344990326527        0.89783313098473
H           -0.93567561133892       -3.14980373948219       -0.89178791418824
H           -2.42856591572379       -2.68326399404441       -0.02187965950024
H            1.16517095288716       -2.85924069526431        0.04858700317819
25
 energy: -1.918754729784 xtb: 6.6.1 (8d0f1dd)
C            3.37498420880546        1.07882763557959        0.15319265490009
N            2.33375012439313        0.11181398330825       -0.10117974786304
C            2.53818619159741       -1.24080117592062        0.00031793570476
N            1.33928993544438       -1.86837239056441        0.00001489303469
C            0.35786144544156       -0.94936823202402       -0.05408418290716
C            0.92528819069369        0.32769375629670       -0.09108078530379
C            0.08079504979191        1.46173089058003       -0.10596395689855
O            0.31778048799519        2.65918502727137       -0.11726600097909
N           -1.36228269500730        1.05494176151535       -0.09021890031710
C           -2.32147183095663        2.15054107033670       -0.05244218231148
C           -1.90012370108187       -0.19379874060689       -0.08212583519318
O           -3.08297230467163       -0.45297665748961       -0.09102583523651
N           -0.95712649567327       -1.23867119896505       -0.04741614262740
C           -1.34102303731895       -2.63488105766542       -0.01276842189268
H            3.88415252535494        0.87157423560086        1.12086756710829
H            4.12875698661382        1.02920893694737       -0.64147466519543
H            2.94401205255113        2.08657393848375        0.17245473286894
H            3.46935572633599       -1.76239717349151       -0.04563776448338
H           -1.74962208179105        3.07522468098100       -0.03933759775119
H           -2.97652694673866        2.13562650450347       -0.92601423841610
H           -2.94419390911645        2.09005601499637        0.84284015789526
H           -0.95220580955078       -3.10395501062272        0.89884304933389
H           -0.94082305499942       -3.15304209338767       -0.88954379432582
H           -2.43015669903961       -2.68452065029784       -0.02019802438462
H            1.17653030886315       -2.86118545319306        0.04628098138787
25
 energy: -1.624812218567 xtb: 6.6.1 (8d0f1dd)
C            3.37090881850291        1.05257949328241        0.18581477954007
N            2.32317416555365        0.12334350469217       -0.14282961393426
C            2.53235870582870       -1.22243779931850       -0.00884570668261
N            1.33228334072887       -1.86094500729672       -0.01067274030741
C            0.34982858124085       -0.93633690530898       -0.07330720029169
C            0.91676508952799        0.33510274024608       -0.12563134114983
C            0.07201718873828        1.47129122626626       -0.14722842057078
O            0.33522639563504        2.66539105737193       -0.17370705045241
N           -1.35952485158264        1.06135827022277       -0.11602398425940
C           -2.32516089931819        2.15627025919306       -0.05338341655889
C           -1.90877735785642       -0.18444931098440       -0.09413709677001
O           -3.09321409712037       -0.43178508191585       -0.09557186474517
N           -0.96708668065917       -1.23633936376594       -0.05313708311029
C           -1.32056437316147       -2.63578928696216        0.00930334548575
H            3.85290327155306        0.76888858828265        1.13291439767099
H            4.12648761144954        1.04042740098313       -0.60522416370838
H            2.95460340242113        2.04772742200211        0.27440344147887
H            3.46362084435407       -1.73306694472322       -0.10561477925863
H           -1.76769245015818        3.09217653720347       -0.04793223894086
H           -2.99893357396414        2.13933494771518       -0.91193594768738
H           -2.92469942379615        2.08300089105271        0.85736265972020
H           -0.91575976322007       -3.07414085038136        0.92793907271114
H           -0.90333303306066       -3.15994769317926       -0.85614987269255
H           -2.40080730153670       -2.72608382832588        0.00642830307464
H            1.16759105783614       -2.84654166417966        0.05420041758615
25
 energy: -0.193518284478 xtb: 6.6.1 (8d0f1dd)
C            3.36584080225206        1.01996004699431        0.23970242473841
N            2.30896896330188        0.14483897701844       -0.20855194917073
C            2.52799703174814       -1.20316020454328       -0.02613654483839
N            1.32065567170951       -1.85062426784886       -0.03475659601514
C            0.34337938603230       -0.92168893286973       -0.10464202438630
C            0.90343464405911        0.34465158400024       -0.17798560639056
C            0.05462423413088        1.47890887861311       -0.21145566348163
O            0.35131849503919        2.66971796940057       -0.26413449578049
N           -1.35868563429095        1.07175797584686       -0.15493664086757
C           -2.33330615802516        2.16049066815284       -0.05803410841459
C           -1.91415193384003       -0.17153560232732       -0.11130959126279
O           -3.10197315943833       -0.40365311148726       -0.09845887756663
N           -0.97873198629700       -1.23039976179674       -0.06345338581294
C           -1.29613346626178       -2.63035777745398        0.04721960260943
H            3.81460452857273        0.60867277654304        1.15355513718437
H            4.13154733591145        1.07402281977948       -0.54080826202418
H            2.97981577519895        2.00944404424808        0.44640941016190
H            3.45949487005730       -1.69692582339940       -0.21236705722408
H           -1.79037908358214        3.10631657609808       -0.06771037827703
H           -3.03639512010814        2.13415928235599       -0.89218230915998
H           -2.89824713076314        2.06914613941281        0.87438717196290
H           -0.87260575934781       -3.02260614572837        0.97858035898530
H           -0.85986674351845       -3.17065901015822       -0.79962384643750
H           -2.36511667763703       -2.77184173656654        0.05179827792670
H            1.15612578303249       -2.82960676211215        0.06192884968877
25
 energy: 1.669703729761 xtb: 6.6.1 (8d0f1dd)
C            3.34808570592536        0.99878136508797        0.30666504955372
N            2.29524913053591        0.17514671389013       -0.26810826775141
C            2.53715567523723       -1.19131354775064       -0.04824440803149
N            1.31568962739701       -1.84647152501211       -0.07643802586007
C            0.34862848164279       -0.92135665750875       -0.14145164309435
C            0.88988999837983        0.34422232521112       -0.22754327082179
C            0.02986061900532        1.47182321366937       -0.28166485423369
O            0.36975917894149        2.65830961316854       -0.36250827117929
N           -1.35203189821298        1.08533091815706       -0.19571161992913
C           -2.33634913304864        2.15972709243636       -0.06659937985373
C           -1.90137373047367       -0.15910202760633       -0.12817963118707
O           -3.09598391546813       -0.36986214709265       -0.09438872784794
N           -0.98388282993488       -1.22390361166566       -0.08174336993764
C           -1.28836403333676       -2.61441541917019        0.09263089858267
H            3.76561801152020        0.46075455562637        1.16905180932032
H            4.13610031069548        1.13323742738107       -0.44648524872150
H            2.99202424863267        1.97426780039372        0.63962373363521
H            3.46686202784345       -1.65527002843379       -0.35644963223146
H           -1.80311797615165        3.10881059622163       -0.09799111285844
H           -3.07161386256386        2.11055535600993       -0.87141326021968
H           -2.86376024700661        2.04922543310146        0.88565348816531
H           -0.85851139299930       -2.95964204049698        1.04021298539239
H           -0.84490398658012       -3.18694145342263       -0.73034764350377
H           -2.34880766027149       -2.78785798626513        0.10601921784012
H            1.16599231822733       -2.82502736375790        0.06244508091998
25
 energy: 3.840734234886 xtb: 6.6.1 (8d0f1dd)
C            3.34365380149709        0.98064946801185        0.36713651403991
N            2.29334979449532        0.19216404283281       -0.29553153975994
C            2.54300049819310       -1.18559436492341       -0.08228338064826
N            1.31525953875779       -1.84181188369434       -0.12095017484117
C            0.35346853285647       -0.91739086946691       -0.17428835373866
C            0.88765105703781        0.34903757665973       -0.26207432122743
C            0.01455176498230        1.47227030343533       -0.33532091372668
O            0.36541732109971        2.65470386084934       -0.42825322875420
N           -1.35154688484437        1.09628867736646       -0.22723580662984
C           -2.34448941038563        2.15883990630928       -0.07626557019182
C           -1.89350768441691       -0.15360835631455       -0.14049885912443
O           -3.09011862627945       -0.35760242386818       -0.08663049811381
N           -0.98250221663908       -1.21360546756428       -0.10170685332352
C           -1.28058056169108       -2.60138408823085        0.13049160137292
H            3.74942034096369        0.35949623920766        1.19070779764387
H            4.14224614370144        1.16856663220476       -0.36652812175340
H            3.00265288084822        1.93846229649389        0.77513617022216
H            3.45847423136436       -1.63359294534847       -0.46729593004662
H           -1.82239430125017        3.11239264153362       -0.12646999430657
H           -3.10404433975202        2.09198662747744       -0.85886381258753
H           -2.84482005305901        2.03921732638649        0.89041088531944
H           -0.84194033930906       -2.90697826019509        1.09314880468159
H           -0.83457334785196       -3.20356358234715       -0.67177234083948
H           -2.34128246906732       -2.78998215390794        0.15215939562901
H            1.17486899668466       -2.81993260073552        0.04981242685168
25
 energy: 4.576353651179 xtb: 6.6.1 (8d0f1dd)
C            3.32111936045277        0.99229715664896        0.44118664278334
N            2.30580085626402        0.21217980450254       -0.25471965456676
C            2.57768056427914       -1.20668959856536       -0.14214014671833
N            1.33534234188356       -1.85421309833824       -0.20729215570263
C            0.38406223231464       -0.94363186615116       -0.20917067319892
C            0.89769198089712        0.33550825745769       -0.26151422426112
C           -0.00123525579182        1.44628790351077       -0.37120318179934
O            0.34839459387448        2.62501292615658       -0.46931508935228
N           -1.34303520675031        1.10827641331701       -0.24669182577407
C           -2.34220162698355        2.14682377360714       -0.09485222953682
C           -1.85112831250413       -0.15862272882159       -0.14247722305016
O           -3.05204935572508       -0.35650401980941       -0.05912067568164
N           -0.96045081770750       -1.20190471584322       -0.13793534798477
C           -1.31125509995311       -2.56948549352324        0.17087447515620
H            3.73982262541621        0.37374592801973        1.20155577666093
H            4.14183990767948        1.21888039466360       -0.24342555194510
H            2.96661446455079        1.90486931270404        0.86288568236658
H            3.45914489152996       -1.62127568028646       -0.60142954787141
H           -1.82277174656936        3.09234343771717       -0.17162952015076
H           -3.11784546497294        2.04125716553883       -0.85536594719101
H           -2.82396656803357        2.02840589641460        0.87380811291590
H           -0.89081335236281       -2.84876813358201        1.14864186364238
H           -0.89419551916877       -3.22823499632666       -0.60425203642774
H           -2.38648683371842       -2.70500629606357        0.20345816919448
H            1.23213600903512       -2.84252314077571       -0.00284179535972
25