72
 energy: 50.612288676008 xtb: 6.6.1 (8d0f1dd)
N           -1.15684082163529        1.75260414644479        2.17975394300418
C           -1.23499731147325        2.11420113017362        0.95032890664628
C           -2.22744301783722        1.70408943087009        0.02820535825392
C           -3.06519668987282        0.54770913847280        0.23906130983023
C           -3.94928918123414        0.08153679059297       -0.75968315898363
C           -4.73064530538123       -1.03264130751354       -0.56645792317038
O           -5.61545557838983       -1.55035630733965       -1.47877739225084
C           -5.82281954053978       -0.85813938815770       -2.67416785109171
C           -4.67405313256676       -1.74091444219511        0.64715438344044
O           -5.49713701787238       -2.83347635682009        0.71092532011964
C           -5.46600466961643       -3.58697802143040        1.88704377351320
C           -3.81868884455070       -1.29946934980003        1.63778815973163
C           -3.04578249652810       -0.16839076776270        1.44321320828939
C           -2.01049476501651        2.20571883720633       -1.34112228796998
C           -1.09128520524997        1.23550207447335       -2.19877809132115
C            0.28694212031223        1.14560790482744       -1.75473941651744
N            0.79227631135249        0.15595236093430       -1.00101146274233
C            2.15104765575736        0.18059476197236       -0.53289100144052
C            3.13694337495484       -0.50596458741763       -1.50206011648982
C            4.54183258205435       -0.41921024439300       -0.98540134901386
C            5.30342746739096        0.71404511253065       -1.18474418029601
C            6.58777803048659        0.80785332801056       -0.66844421859965
C            7.13325323430366       -0.23538663313325        0.05590268228864
O            8.37964675621156       -0.25252340928315        0.59834585666597
C            9.20892979511371        0.86529020979066        0.39827808021256
C            6.35999826434089       -1.39678051686809        0.27263880371218
O            6.96780293544889       -2.37377490553639        0.99949435356820
C            6.26990236091577       -3.57094497042766        1.22443302436104
C            5.08141514624460       -1.46914598580783       -0.24643213188660
C            0.06163410267994       -1.06878867820678       -0.78349462562769
C           -4.57316605271028        2.95226534519412        1.22112588557285
C           -4.91407555452694        2.39408113556973        2.53095707091196
C           -3.85090408777968        4.25407119152884        1.10234591236063
H           -4.04332712144457        0.62210112001817       -1.68648922391336
H           -6.14866175800615        0.17515988452934       -2.50107984034474
H           -6.59814768895827       -1.40771126375542       -3.20472553832457
H           -4.92077664958973       -0.84854693153646       -3.28739133602113
H           -5.78219356648597       -3.00540517055485        2.76111132933753
H           -6.16229150529406       -4.40638843351700        1.72270324504279
H           -4.46497447054527       -3.97926618949498        2.07600914490029
H           -3.72508939315455       -1.83503456937050        2.56895920082138
H           -2.38046238713319        0.17271007824683        2.21657411913030
H           -2.92674769643511        2.28469141603024       -1.91478560156822
H           -1.50625935898615        3.17225990868479       -1.34545462439000
H           -1.57251836188811        0.26232136587904       -2.22084103356551
H           -1.10318790858710        1.68971184154050       -3.18192047150451
H           -0.47647704860540        2.77381505242155        0.47377938217699
H            0.92250749565423        1.99440614556152       -1.85649605598377
H            2.20650185754077       -0.30369706104685        0.44623375125834
H            2.44617831896587        1.21646330228057       -0.39021147361304
H            3.05903634047118       -0.00510149416251       -2.46428495550011
H            2.84787544286073       -1.54617276733635       -1.64376075094181
H            4.90161709008892        1.53668962235108       -1.75504132341122
H            7.15711495624165        1.70543203684532       -0.84618369501919
H            8.77693705647403        1.76946111094893        0.84080754373924
H            9.39848341964421        1.03890290469426       -0.66676679194326
H           10.14455555503788        0.62390301013728        0.90470199764028
H            6.95073062751455       -4.19724881552013        1.79988599099573
H            5.35099369657418       -3.40659650999361        1.79842382646051
H            6.02273170118154       -4.07840323833010        0.28578215454122
H            4.47892200810466       -2.34930034859296       -0.09028106354008
H           -0.11648007290182       -1.57762778576929       -1.73881277509295
H           -0.88997196370998       -0.87252917221268       -0.28011708360966
H            0.64501922732811       -1.71541696626887       -0.13090585065349
H           -5.23610346456809        2.67985378514873        0.41818783817167
H           -4.31475262698222        2.84502488905074        3.31241144200856
H           -4.79292597415413        1.31131296718621        2.54204207775288
H           -5.97194641517175        2.59708979245409        2.72360190401431
H           -2.95578773997482        4.24849490881350        1.72391515482281
H           -3.58170259447626        4.52112166310210        0.07591427064368
H           -4.50430206413285        5.04276184820498        1.50515982973580
H           -0.31757282126542        2.06780075329340        2.66106738245097
