72
 energy: 26.295336734755 xtb: 6.6.1 (8d0f1dd)
N           -1.37955521039033        2.20061791105258        2.30265549311571
C           -1.41424596359458        2.17180231457069        1.04211236860219
C           -2.59793191371410        1.93334962710552        0.17681396576847
C           -3.19435936703952        0.57740525603225        0.27145398643175
C           -4.11098661557580        0.16862712950882       -0.70011739586186
C           -4.78421597227042       -1.02326548770432       -0.56284413030583
O           -5.70783376801905       -1.52641397704346       -1.42763212085169
C           -6.08308652602389       -0.73721394222901       -2.51918882520918
C           -4.54874964890871       -1.83192843509010        0.56247505587856
O           -5.28210515452101       -2.98340332633298        0.57628529579919
C           -5.11211911139774       -3.82242524167725        1.67977443122838
C           -3.63878433297685       -1.42171471284578        1.51594792614138
C           -2.97329067349760       -0.21494488261996        1.37266117272687
C           -2.15843843938953        2.26978535173306       -1.27624863629104
C           -1.20297072723651        1.25206091572306       -1.96081187597328
C            0.15078535680797        1.23469533550969       -1.35809287445422
N            0.77117364037856        0.03530123908612       -0.90017810749166
C            2.10737997559748        0.06848108859578       -0.37893252405447
C            3.07395987434163       -0.54212533197689       -1.40378565799765
C            4.48086743515673       -0.44381983229186       -0.92440562982307
C            5.21143620831044        0.71269718994506       -1.11556285234565
C            6.50513245116399        0.81969405913670       -0.62602404369829
C            7.08455530668058       -0.22878575483802        0.06842999215906
O            8.35263797327252       -0.23979795197796        0.57138524954860
C            9.15394192329602        0.89123497829611        0.36016041858940
C            6.33893927391285       -1.40506040695958        0.29064212649924
O            6.98577729459525       -2.38961497764424        0.98429515076426
C            6.30457513616210       -3.59767196506735        1.20285823389385
C            5.04910337688715       -1.49022787935221       -0.20119344351511
C            0.03001197701718       -1.18344824212752       -0.71436599094887
C           -4.12522995092593        2.89889578385888        0.88104595723249
C           -4.69648122360357        2.53278208525908        2.24227107634733
C           -3.65119376698904        4.35550487631037        0.83883123638423
H           -4.31431294705943        0.79821084110336       -1.54996363206247
H           -6.46414954392209        0.23873294622069       -2.19631811356633
H           -6.86001897088985       -1.29821028242877       -3.03431432024763
H           -5.24469601392403       -0.57860484403176       -3.19827061255360
H           -5.38124716037469       -3.31970748698094        2.61455818697851
H           -5.77499201555301       -4.66641926062056        1.50528193601396
H           -4.07730382088746       -4.15971985933509        1.75175082227045
H           -3.42803463036355       -2.02147788253953        2.38425331735958
H           -2.27631711442100        0.11604180362127        2.12313476038585
H           -3.01855326831929        2.35471229740049       -1.92785919753329
H           -1.61505603201895        3.21459540784522       -1.29336676084277
H           -1.64041133309759        0.25563771393402       -1.93323595100186
H           -1.15713073791204        1.54030484222745       -3.02142574390949
H           -0.51164658360830        2.27270999541889        0.44271432628175
H            0.82890628016651        2.04730339303243       -1.46722606641982
H            2.22621315911610       -0.46499381592845        0.57687488433859
H            2.37231247357978        1.10621553164664       -0.18334212563673
H            2.93575417403957        0.01303025692860       -2.33248588354502
H            2.79427628486047       -1.58149420905644       -1.57665360234536
H            4.78116438184069        1.53778314248016       -1.66265127738873
H            7.05742876191058        1.72889592907658       -0.80436353097269
H            8.72249661788755        1.78482561548379        0.82530525972055
H            9.31066276820185        1.08047955552877       -0.70765819129198
H           10.11150460563053        0.66315475966402        0.83173685317822
H            7.00251379882365       -4.23338369427790        1.74711858996487
H            5.39660161133251       -3.44982742042399        1.79918716254161
H            6.04042419098125       -4.08562697151674        0.25756921207456
H            4.45911230211703       -2.37680734409854       -0.04249618970434
H           -0.15585223416442       -1.66388945777801       -1.68102775676395
H           -0.93087485753745       -1.02770906598582       -0.20351070002877
H            0.60762957976470       -1.86352977726028       -0.09065903014848
H           -4.93707977815360        2.76531337160365        0.15048762438816
H           -4.05148062302343        2.86035352342957        3.05235883130285
H           -4.85793587293086        1.46834779474529        2.29903252526258
H           -5.68405455984818        2.99635796281895        2.40783263018694
H           -2.79581621495332        4.43805295210765        1.50347114685078
H           -3.34997146583811        4.64243576666914       -0.16970239329998
H           -4.41178987137026        5.06634157128078        1.18566113514417
H           -0.45776605212384        2.36467374520191        2.71027193857270
