25
 energy: -42.088013072826 gnorm: 0.017254358994 xtb: 6.6.1 (8d0f1dd)
C            3.11948454899553        1.56955813020090        0.01835534904762
N            2.37024786283177        0.38799744370981       -0.01732507149803
C            2.51230840720176       -2.60091377597530       -0.01265944883481
N            1.26384553938953       -2.30960781417585       -0.01206694404127
C            0.52444946466582       -1.11765073283713       -0.01085203434312
C            1.09743674375779        0.18636955925890       -0.00595955926872
C            0.13990051488566        1.35947719292551        0.00341122354806
O            0.53622735787575        2.50044098217612        0.01543221700622
N           -1.19121643532393        1.05283237843507       -0.00760555325916
C           -2.16107664383878        2.14279409746317       -0.00913332906907
C           -1.73694403611645       -0.21171986512957       -0.00642070573637
O           -2.92359797857695       -0.39501681029571       -0.00469131100220
N           -0.83047508195822       -1.28301855434612       -0.00522314916328
C           -1.44649552631504       -2.60121264129240        0.00470868850089
H            3.67347866530835        1.58324483996577        0.96430793824796
H            3.86355177529097        1.51630086003715       -0.78285943169545
H            2.56251381103509        2.53203728142098       -0.06781988100946
H            3.26781958763183       -1.82209726539034       -0.01580669596269
H           -1.62376436435958        3.08731982009061       -0.00232654603776
H           -2.78852860821916        2.06931973767051       -0.89715512007020
H           -2.79959167797985        2.06296915025235        0.87042210265991
H           -1.18514547204828       -3.15723153689168        0.90745644246527
H           -1.19973453808521       -3.16527084521462       -0.89709364201411
H           -2.52703217034818       -2.44454394730288        0.01250205102003
H            0.64276976839988       -3.12413914315525       -0.01042597159025
25
 energy: -42.091270793662 gnorm: 0.011297631205 xtb: 6.6.1 (8d0f1dd)
C            3.13092334774326        1.51891839276396        0.01904809268375
N            2.36491690604195        0.35467905292877       -0.01305627527606
C            2.53881181803941       -2.51045112654976       -0.01400056243347
N            1.27731278683179       -2.28060515601652       -0.01155306098843
C            0.50980695625628       -1.11272670888630       -0.00897373014310
C            1.08814077866855        0.18197987232457       -0.00340873785268
C            0.13682076102914        1.35864513748013        0.00440118952702
O            0.53587251134522        2.49850767226873        0.01676567935643
N           -1.19540542109447        1.05341752888020       -0.00747066924630
C           -2.16267511078138        2.14538617138624       -0.00922245165087
C           -1.74571933416663       -0.21040612112393       -0.00658213037409
O           -2.93262278207284       -0.39046295965875       -0.00605288102233
N           -0.84221138647319       -1.28390924498479       -0.00461271844814
C           -1.45364651910609       -2.60382540510946        0.00440235645572
H            3.68174736546071        1.54497770044968        0.96651647740636
H            3.86914335927747        1.47091219245408       -0.78775770073580
H            2.55217308869409        2.45486085846128       -0.07246338129292
H            3.26447822441734       -1.70617767412148       -0.01477640574795
H           -1.62298470324884        3.08859900163051       -0.00234303863320
H           -2.78989488087762        2.07286228958959       -0.89742015680178
H           -2.80121577098898        2.06657094214030        0.87033915071630
H           -1.19050186966688       -3.15916534131730        0.90695573272092
H           -1.20399458219457       -3.16644347715843       -0.89744372821529
H           -2.53438297851266       -2.44947287019929        0.01153154160654
H            0.68553894947902       -3.11843218603202       -0.01165097371062
25
 energy: -42.093961908618 gnorm: 0.013381718035 xtb: 6.6.1 (8d0f1dd)
C            3.14512526408344        1.44353347629967        0.01935208143595
N            2.35451920633156        0.29761715793639       -0.00738088545818
C            2.57262670548033       -2.36379682865956       -0.01520974031074
N            1.29076400117098       -2.24193908866986       -0.01066730130031
C            0.48126904556914       -1.10933243486391       -0.00628100567302
C            1.07059401317556        0.17234040160444        0.00005409840511
C            0.13505105108122        1.35657388341220        0.00610624843152
O            0.54295068100611        2.49408352735380        0.01683934866176
N           -1.19924729324540        1.05394409566804       -0.00698249593468
C           -2.16227596764610        2.14987779267439       -0.00936219572513
C           -1.76020162473939       -0.20817614863395       -0.00673735374577
O           -2.94780277359079       -0.38059279146356       -0.00806001973224
N           -0.86450908846514       -1.28769833918488       -0.00373616649879
C           -1.46370861423700       -2.61127061234073        0.00380594634900
H            3.69903970296103        1.48191019753193        0.96388626397513
H            3.87876110751594        1.39836331319395       -0.79105714098152
H            2.54495774649161        2.35609312679043       -0.07571206052958
H            3.24136856452698       -1.50863239721927       -0.01229143817690
H           -1.61954524014733        3.09132909751779       -0.00253353598399
H           -2.78983689401730        2.07949233923696       -0.89748695322953
H           -2.80159451010516        2.07368176822523        0.86987138615915
H           -1.19017895977603       -3.16397167372261        0.90432528280071
H           -1.20229656739267       -3.16984073323984       -0.89675166443059
H           -2.54578023544222       -2.46712849016703        0.01011814479302
H            0.75038219351068       -3.11822209768004       -0.01293722540038
25
 energy: -42.094381521641 gnorm: 0.009504348940 xtb: 6.6.1 (8d0f1dd)
C            3.15225389641884        1.41586737761266        0.01903934622126
N            2.34792897675550        0.27680185561074       -0.00503522750822
C            2.58015349786376       -2.30253218293187       -0.01437347808178
N            1.29651010335251       -2.22787803694822       -0.01006675844605
C            0.46950763157483       -1.10917216047555       -0.00472209388711
C            1.06120728184614        0.17005801701020        0.00213463360970
C            0.13370586853288        1.35619204938216        0.00656533539309
O            0.54517807978565        2.49252201350131        0.01563806242803
N           -1.20092872633214        1.05311046263485       -0.00635906351418
C           -2.16183631922128        2.15111035790464       -0.00919791600508
C           -1.76661963866134       -0.20839277742878       -0.00655675790493
O           -2.95448028154007       -0.37773658800428       -0.00884887615549
N           -0.87430775335201       -1.29067047631885       -0.00329354573335
C           -1.46784277191703       -2.61600585722621        0.00298938760191
H            3.71066423817480        1.44963736120340        0.96069115689981
H            3.88275252833729        1.36247156678706       -0.79353912801740
H            2.55495071311637        2.33076830139354       -0.07521033591026
H            3.21631163461811       -1.42053114348024       -0.00919536708084
H           -1.61683771810872        3.09130270673106       -0.00265216393793
H           -2.78961321240678        2.08231830553194       -0.89734602709876
H           -2.80159534528874        2.07713556276690        0.86996758071613
H           -1.18868339871411       -3.16772030943393        0.90233044069943
H           -1.19986511644501       -3.17227508701598       -0.89704193253875
H           -2.55074702874504       -2.47996776311690        0.00884836041645
H            0.78266437445565       -3.11817501408972       -0.01359401426572
