25
 energy: 0.000000000000 xtb: 6.6.1 (8d0f1dd)
C            3.23720163006194        1.16630919979326        0.08434469647475
N            2.29877817382611        0.07527477071623        0.03981603040599
C            2.58028210190900       -1.21425402444508        0.03006176031096
N            1.43813958087363       -1.93419271955128        0.00098261760884
C            0.39035688448383       -1.05887472636071       -0.00790371836672
C            0.93510056364412        0.21347819449412        0.01709077491437
C            0.09450143893243        1.40504303904423       -0.00410947031874
O            0.49712751527797        2.54126714362870       -0.00342325688240
N           -1.25076640035757        1.06271879480407       -0.03085478223738
C           -2.21907211982101        2.15522099834493       -0.05001256985998
C           -1.81739487048744       -0.20012725993278       -0.04692818574614
O           -2.99983886758376       -0.37846417018721       -0.07008878229737
N           -0.92618586207120       -1.30210215599479       -0.03682761578324
C           -1.46982264913417       -2.64643102187190       -0.06029820460571
H            3.71247264356769        1.21471455160235        1.06488849150277
H            4.00791497605742        1.03430808813993       -0.67357694370751
H            2.69910007168542        2.09770118228144       -0.09130154882931
H            3.56654120610678       -1.63682992603973        0.04233140067262
H           -1.67107961066214        3.09322851271934       -0.02552706933167
H           -2.82428953597071        2.09428624779827       -0.95318082946668
H           -2.87644029173232        2.07745725625962        0.81450067533302
H           -1.17061996399332       -3.19584890659852        0.83242232437030
H           -1.14560257411436       -3.17511610292205       -0.95688275822323
H           -2.55549792440841       -2.55659984320617       -0.07459039797972
H            1.38130855184625       -2.94313852034425       -0.01389874181052
25
 energy: -5.391600764995 xtb: 6.6.1 (8d0f1dd)
C            3.24443799670962        1.17895556345788        0.08674311496843
N            2.30901949185814        0.09643826970170        0.03779023802915
C            2.60116893818561       -1.23151437653574        0.03015744100740
N            1.42939365589621       -1.93985926184193        0.00093582003771
C            0.39747611559183       -1.05666894456286       -0.00821529214081
C            0.93105303984112        0.22249592467358        0.01530612251521
C            0.10242091218465        1.39582209610963       -0.00524011740695
O            0.49873018214550        2.56181646669920       -0.00462895345304
N           -1.25938610258046        1.04998276570805       -0.03109766950040
C           -2.21994103089031        2.14575133007520       -0.04985125658516
C           -1.82241434513321       -0.20139494442835       -0.04729789578786
O           -3.01901640525854       -0.38383749394062       -0.07042349729382
N           -0.93347805034195       -1.30192142868136       -0.03705135796466
C           -1.47547917811792       -2.64305802844056       -0.06034324470227
H            3.72304497081483        1.22508222407890        1.06862963316538
H            4.01244912959687        1.04478593688388       -0.67644748273013
H            2.69735605832325        2.10347456311766       -0.08850360391958
H            3.57969599652295       -1.65714638991545        0.04284642435890
H           -1.65872500692874        3.07721030668977       -0.02539591426194
H           -2.82528465107116        2.09194963164450       -0.95425548803472
H           -2.87742473673416        2.07535269280121        0.81604959708384
H           -1.17531790754061       -3.19585591792485        0.83178601028105
H           -1.15020782524584       -3.17527111439281       -0.95630560579387
H           -2.56056329957819       -2.55000021663761       -0.07471310476468
H            1.36320671968668       -2.94356105216696       -0.01344002095987
25
 energy: -6.541705954493 xtb: 6.6.1 (8d0f1dd)
C            3.25261736995395        1.18940502535708        0.08938413656568
N            2.31827822826620        0.10968226404312        0.03426157297368
C            2.61468884887504       -1.24388682488486        0.03052867266772
N            1.42061905735379       -1.93818647195321        0.00151057948527
C            0.40306478924291       -1.05357369516222       -0.00887083105766
C            0.92938139176026        0.23006947394848        0.01249181651947
C            0.10987779537202        1.38292654600236       -0.00766188372683
O            0.48714962081543        2.56492272540486       -0.00783301347260
N           -1.26810661424277        1.03654198074138       -0.03181748198656
C           -2.21930683972578        2.13545730598749       -0.04962491952390
C           -1.82332902037805       -0.20482722034464       -0.04777701221640
O           -3.02434895635119       -0.39320450848513       -0.07054914446491
N           -0.93807128978545       -1.30077794167505       -0.03735986792618
C           -1.48281143511794       -2.63808829167174       -0.06039070425722
H            3.73991698914929        1.23988097598779        1.06917119075866
H            4.01967405371477        1.06646840324723       -0.67885203623438
H            2.69873459966836        2.11126364906313       -0.08004971977402
H            3.58685497956974       -1.67579930652580        0.04396052802914
H           -1.63949398832650        3.05623195278704       -0.02529052958202
H           -2.82568966157498        2.08908473628649       -0.95435069182277
H           -2.87698651712052        2.07274351864791        0.81733497762143
H           -1.18675160880682       -3.19562752506943        0.83127278938780
H           -1.16134324459307       -3.17537982542889       -0.95584288057528
H           -2.56751354858673       -2.53658240808818       -0.07492155280102
H            1.34510966880429       -2.93971593604320       -0.01169009843981
25
 energy: -6.523725593993 xtb: 6.6.1 (8d0f1dd)
C            3.25726410007922        1.19610797009090        0.09120382008120
N            2.32499296991428        0.11271168353362        0.03107318690584
C            2.61983843378273       -1.24908400481268        0.03081639371258
N            1.41935857370906       -1.93599882711048        0.00267092935244
C            0.40657337358133       -1.05341252317782       -0.00957802305581
C            0.93191528438359        0.23234890910107        0.00984529081695
C            0.11336159014393        1.37741631383483       -0.01096373206006
O            0.47417156079426        2.56389097134929       -0.01255298005808
N           -1.27223165806540        1.02879177153744       -0.03314694582187
C           -2.21756044722065        2.12905947301782       -0.04954540671194
C           -1.82232903973896       -0.21011207973674       -0.04838962843040
O           -3.02306243390053       -0.40364231255410       -0.07057215783985
N           -0.93709768402302       -1.30196605090178       -0.03767562877174
C           -1.48984413319956       -2.63526573430229       -0.06034427644010
H            3.75378588440339        1.24844197317883        1.06718164300250
H            4.02299228795151        1.09039276050294       -0.68199385688579
H            2.69900930932620        2.11824615161676       -0.06737628953186
H            3.58907707137190       -1.68708447509195        0.04523955333094
H           -1.62460676041900        3.04142097678214       -0.02560798875401
H           -2.82521037620489        2.08692082957490       -0.95363772601757
H           -2.87439163077069        2.07061430902860        0.81838772488574
H           -1.20188913638055       -3.19620893458680        0.83179963416783
H           -1.17594948769804       -3.17656700475003       -0.95604914427264
H           -2.57403679093837       -2.52051894018118       -0.07509478487507
H            1.33808380705443       -2.93747460377124       -0.00865571058192
25
 energy: -5.813061723709 xtb: 6.6.1 (8d0f1dd)
C            3.26404746334054        1.21163665690708        0.09588653076378
N            2.34065264708986        0.11554349829226        0.02326744520422
C            2.63060500633092       -1.25595516972221        0.03101986636533
N            1.42442886356189       -1.93247165769685        0.00628552379711
C            0.41521105109604       -1.05581358088523       -0.01154467333038
C            0.94118501385225        0.23377473477241        0.00268247089005
C            0.12101334051968        1.36858288965731       -0.02132698618826
O            0.44861138410501        2.56086646617615       -0.02742616483413
N           -1.27642516827243        1.01277993811363       -0.03784456648577
C           -2.21148701318698        2.11545095733580       -0.04965495249872
C           -1.81796839089169       -0.22378431147871       -0.05042852388009
O           -3.01722615938885       -0.42702844955178       -0.07046540878603
N           -0.93062315369228       -1.30796408969402       -0.03862679664818
C           -1.50913113510281       -2.63045413000043       -0.05995022941261
H            3.78513178032625        1.25871410014907        1.06097127881496
H            4.02182294025348        1.15339283990571       -0.69394558660121
H            2.69189255895608        2.13370359657446       -0.02700774559581
H            3.59449481582448       -1.70683890502740        0.04887227736492
H           -1.59471483003473        3.01193487479865       -0.02752698795578
H           -2.82335021779985        2.08151412361296       -0.95108752303363
H           -2.86462128992713        2.06494838508391        0.82147284125003
H           -1.24529800824083       -3.19972705071937        0.83411645185552
H           -1.21758184356299       -3.18237873176880       -0.95647633076617
H           -2.59136662929792       -2.47718425339529       -0.07545527807207
H            1.33291164207814       -2.93421412926729        0.00122696393019
25
 energy: -1.119963038832 xtb: 6.6.1 (8d0f1dd)
C            3.27319675033177        1.24955952168475        0.10877936447434
N            2.37691472925192        0.11991558712416        0.00396069017596
C            2.65767942207667       -1.26624921830806        0.03035204626692
N            1.44570970658013       -1.92707911898383        0.01601661910447
C            0.43680090600011       -1.06539584930556       -0.01695065408321
C            0.96533675118296        0.23238208856007       -0.01651787723497
C            0.14156293540657        1.34974064542539       -0.05076891375105
O            0.40177578141162        2.55191947606630       -0.06983343257797
N           -1.27823456137084        0.97714921326732       -0.05203993215614
C           -2.19409922638132        2.08443016917406       -0.05047742556295
C           -1.80416287643514       -0.25517637329679       -0.05639141080773
O           -3.00063683434889       -0.47520067135601       -0.06985416786939
N           -0.91206131923867       -1.32645997751391       -0.04142230172424
C           -1.55955775100468       -2.62142103214258       -0.05841263175314
H            3.86002576186695        1.26710682967957        1.04365444494547
H            4.00092605437549        1.31436015212334       -0.73009949215494
H            2.66060300199431        2.16820621266595        0.08869017996323
H            3.61088185309879       -1.74343941366828        0.05876928899595
H           -1.53274287147059        2.95014358660394       -0.03450726636194
H           -2.81828633918755        2.06678992570943       -0.94364502240427
H           -2.83521467898823        2.04901333115584        0.83024433699567
H           -1.35867187714619       -3.21091404186750        0.84081382041864
H           -1.32591534271407       -3.20095143347151       -0.95621688140704
H           -2.63524273697567       -2.36995821003596       -0.07616941188194
H            1.33562742962066       -2.92944279711807        0.02905992653754
25
 energy: 8.091509543769 xtb: 6.6.1 (8d0f1dd)
C            3.27580726436792        1.28987269203588        0.12444694329927
N            2.41287504827765        0.12251070982684       -0.01702480895375
C            2.68628590339137       -1.27148909975629        0.02930195725812
N            1.47503275887316       -1.92364262073410        0.02746971236941
C            0.45867890136777       -1.07916184401319       -0.02396241520759
C            0.99157018780348        0.22644444594874       -0.03975649573835
C            0.16671789801095        1.33255056426774       -0.08726359956594
O            0.36804913689488        2.53964553236737       -0.12247014504321
N           -1.27263199894773        0.94397196654331       -0.07021741137153
C           -2.17381814416978        2.05412470404015       -0.05094431201749
C           -1.78714355282872       -0.28451493747959       -0.06384955142318
O           -2.98197888166008       -0.51192213336604       -0.06846202838571
N           -0.89206070690302       -1.34996707535740       -0.04541372429425
C           -1.61512585195749       -2.61565361792123       -0.05666750550085
H            3.93874302111523        1.26398959350497        1.02078237507945
H            3.95955149977170        1.48930958243217       -0.76891434737413
H            2.61972498437072        2.20002796716280        0.22516520899444
H            3.63035624211431       -1.77183542001588        0.07076487737551
H           -1.47893894513251        2.89447075194164       -0.04332288704799
H           -2.81338119615215        2.04965458528849       -0.93311167202765
H           -2.79832481556772        2.02889010546029        0.84205058864299
H           -1.48368445963019       -3.22394968397115        0.84792789722326
H           -1.44548390553954       -3.22367550528841       -0.95467646722746
H           -2.68028165393264       -2.26387045114087       -0.07699435964396
H            1.35167593399845       -2.92675220960415        0.06217606672784
25
 energy: 10.231337703710 xtb: 6.6.1 (8d0f1dd)
C            3.26287069338191        1.30838230102854        0.13508213817744
N            2.42530941228999        0.11765115290593       -0.02882794241608
C            2.69661108937210       -1.25944830774796        0.03032817186058
N            1.50452314593038       -1.92512396170618        0.03588287868642
C            0.46529960484913       -1.09248033719330       -0.03025744291663
C            1.00679870675316        0.21447465921349       -0.05780295731340
C            0.18475402176780        1.33345509769096       -0.11502303310450
O            0.38127908742174        2.52917861838388       -0.16238316590589
N           -1.25387759293511        0.93837653646874       -0.08442896081742
C           -2.16058188079632        2.04564553677266       -0.04890791995432
C           -1.77498637058403       -0.29102694465676       -0.06937970341306
O           -2.97130173518213       -0.49813109959675       -0.06586178958584
N           -0.88107786379342       -1.37039789456547       -0.04962979933645
C           -1.64490345800941       -2.62280362122098       -0.05651354244355
H            3.96912173793939        1.24198630391897        1.00025265062477
H            3.90459031025231        1.57335521387076       -0.78134176056666
H            2.59078224148081        2.20368175560218        0.30724179281872
H            3.64059260479345       -1.76359003818474        0.08020464663349
H           -1.47895574083347        2.88901487479596       -0.04838797440907
H           -2.81187867609362        2.03973038078920       -0.92130146971859
H           -2.76967370665332        2.01283338012322        0.85367230755219
H           -1.55174753480626       -3.23314011517443        0.84993724141888
H           -1.51124640249027       -3.24011873410466       -0.95258905058921
H           -2.69732806509967       -2.23345721508702       -0.07808317816844
H            1.38724103898083       -2.92901894015418        0.08515175903389
25
 energy: 7.886964383846 xtb: 6.6.1 (8d0f1dd)
C            3.22171258467282        1.32178556063310        0.15173263183358
N            2.42040990686297        0.11271991950291       -0.04298446308977
C            2.70223783989748       -1.21081659348658        0.03827288801054
N            1.55629039364228       -1.93314171043130        0.04908017384980
C            0.46250196487812       -1.11644558027752       -0.04237233947530
C            1.01698029698485        0.18760735472363       -0.09109058425767
C            0.20633712837793        1.34599914980458       -0.15905684934342
O            0.45666892230126        2.52406332957905       -0.23700953431000
N           -1.19861582604584        0.94589676374416       -0.10698978142723
C           -2.13800165999982        2.04422314076727       -0.03902994618726
C           -1.75522409044793       -0.28213760410383       -0.07722635967607
O           -2.96210118281899       -0.41874632761160       -0.05668562522648
N           -0.87505492586793       -1.40867506903833       -0.05902132712027
C           -1.68074751783037       -2.64664252639042       -0.06016512958577
H            3.96570158590978        1.18877025492498        0.95797995018490
H            3.77783387973740        1.62183973248642       -0.75866351553059
H            2.55922423801147        2.16724796995201        0.39706965582136
H            3.65714495605034       -1.69596192151569        0.09640077482717
H           -1.52152313829528        2.92729045350682       -0.05227431677589
H           -2.81225816008710        2.02394983961964       -0.89280202176702
H           -2.71791823872890        1.98023472201836        0.88143084200843
H           -1.62282069222850       -3.24224180078786        0.84446424704912
H           -1.58193969550782       -3.26010513680611       -0.94888893606687
H           -2.70297816362906       -2.25129810988087       -0.08285459457667
H            1.47835426209678       -2.93638720876072        0.11771805697861
25
 energy: 17.412176278168 xtb: 6.6.1 (8d0f1dd)
C            3.19320001113350        1.35576279307417        0.17640300424475
N            2.43680482003828        0.11826856308535       -0.06994476630140
C            2.73188100010956       -1.18684921919196        0.04951416289144
N            1.60627413920729       -1.93935641376972        0.06789852027521
C            0.47913161004095       -1.14360038235099       -0.05644473071924
C            1.03378818124271        0.16608393158724       -0.13520482898060
C            0.23767448991261        1.33502393519845       -0.22204675527384
O            0.49766659574654        2.51066888736384       -0.34232191432241
N           -1.15744316523145        0.92934893495926       -0.13740953046656
C           -2.10693321516260        2.02231904641425       -0.03138115170394
C           -1.72609606653274       -0.29234832293763       -0.08845538715170
O           -2.93911622356263       -0.38949757642058       -0.04721976621944
N           -0.86116424375105       -1.44850156761809       -0.07018296384388
C           -1.74381761195347       -2.65450338836506       -0.06279258606564
H            4.02459776950032        1.14011381642561        0.90738164616730
H            3.64470242080200        1.78935128026764       -0.78191174354008
H            2.49746739078412        2.15627442909673        0.58269562605221
H            3.69081478555350       -1.66435263442947        0.12192666720017
H           -1.51274499853075        2.91919846572694       -0.06271080149945
H           -2.81228615842477        1.99589339878912       -0.86088053432281
H           -2.65003700264799        1.93950663853886        0.91267161196386
H           -1.75476614036791       -3.25533651812612        0.84604955633859
H           -1.70902166567290       -3.29017844172785       -0.94620158651308
H           -2.74127683387133       -2.18233746580460       -0.08944507570336
H            1.55291477957401       -2.94192358761327        0.16704722364114
25
 energy: 18.495200587713 xtb: 6.6.1 (8d0f1dd)
C            3.16638095855748        1.35696758249987        0.19277062475274
N            2.41767568200597        0.15237106621617       -0.09597426777804
C            2.76476251671163       -1.17307896040407        0.08224665912932
N            1.62016055266400       -1.95667400587942        0.07952419102819
C            0.49699346443117       -1.16123261181104       -0.06681301802326
C            1.00853245986602        0.15487686406155       -0.17880451153143
C            0.23064797780181        1.30675733231607       -0.26534157610465
O            0.58055926808999        2.50611897071141       -0.43897267365379
N           -1.12700502147628        0.92735708429330       -0.15368162577948
C           -2.08571384043510        2.01372653573876       -0.02098105427189
C           -1.69840899871699       -0.28381602423582       -0.09399100413015
O           -2.91638990336156       -0.36560191117772       -0.03457694122098
N           -0.86792519509593       -1.46737504114999       -0.08112410588297
C           -1.77654301291342       -2.64664523301062       -0.06933141511968
H            4.03256203638093        1.09387029352799        0.85071466981051
H            3.50925219516517        1.86518313213902       -0.78441005308896
H            2.45806997837575        2.09214270970456        0.72282370268865
H            3.73918621763321       -1.60213482023027        0.14766354440131
H           -1.52068714970618        2.94629886170035       -0.06908883838512
H           -2.81680194798130        1.96513492216322       -0.82817490815146
H           -2.59656262810177        1.90466363053674        0.93967202286167
H           -1.80597184463278       -3.25355335588418        0.84362638999854
H           -1.75777450775397       -3.30328096132516       -0.94709932445070
H           -2.76240906927580       -2.12991816458355       -0.10113915946824
H            1.61962447970369       -2.95312929374503        0.19749656851711
25
 energy: 25.616271073381 xtb: 6.6.1 (8d0f1dd)
C            3.12468871273679        1.38248196520718        0.22294802870022
N            2.41859477764960        0.15658879078315       -0.12057609552956
C            2.79015984435278       -1.15652989955417        0.10272354742637
N            1.65588211452383       -1.96249695377009        0.08921534150349
C            0.51721144269571       -1.18979787373557       -0.09078678421737
C            1.01586149814131        0.12769292765314       -0.23937394079499
C            0.24335382923574        1.28577124700392       -0.36185534208010
O            0.61781386897143        2.47335259136148       -0.53406710023351
N           -1.09790698095626        0.92046578811250       -0.19106631967063
C           -2.05770550882520        1.99976456644760       -0.00246650389624
C           -1.66935801147121       -0.29034016072987       -0.10587154956658
O           -2.88935614284044       -0.35391343611035       -0.01142449431546
N           -0.85882306876375       -1.49138264144855       -0.10043544759913
C           -1.83324949024679       -2.63786836034857       -0.07559653903527
H            4.04448102583049        1.08999191670564        0.80137014455763
H            3.39182515029786        1.97642399124715       -0.73690693131831
H            2.43709222603796        2.06320862370512        0.83761520127895
H            3.77808791817952       -1.55757758834308        0.17307314151693
H           -1.49999440683291        2.93635809767641       -0.07266871586274
H           -2.83097499627419        1.94134198260639       -0.77534184942914
H           -2.51825481406815        1.87173105253821        0.98849906801454
H           -1.90461721728117       -3.24633386003235        0.83891136994720
H           -1.85750049512435       -3.31480189820475       -0.94465606076345
H           -2.79903738911882       -2.07594983528288       -0.10880848588542
H            1.69394078108582       -2.95915243131549        0.24458021339977
25
 energy: 26.517006640224 xtb: 6.6.1 (8d0f1dd)
C            3.06682023078656        1.38562284637433        0.25407384995701
N            2.39307462847267        0.15951839026307       -0.13929148605118
C            2.80259548427891       -1.15992165639056        0.13436251411772
N            1.64833178047987       -1.96234761904091        0.08579180903712
C            0.54189273317843       -1.21623239033497       -0.11930789107279
C            1.00636644801977        0.09231409890318       -0.30744837226163
C            0.22147465590527        1.24416256672086       -0.49174665775636
O            0.64176106801135        2.40786183851115       -0.59750349467584
N           -1.09556631711577        0.93501323204904       -0.22752060928249
C           -2.03544225941430        2.00223589974245        0.02383214102000
C           -1.64322792124795       -0.28453499561410       -0.11003263389904
O           -2.85853783277454       -0.36054983469640        0.02923719245283
N           -0.86864501459899       -1.47872332079602       -0.12449162676232
C           -1.86578312369896       -2.60032394827023       -0.08614014965301
H            3.99666986004229        1.14699870875534        0.73345242080195
H            3.28781780486164        1.99615543027765       -0.59228084800017
H            2.47823184495890        1.98977269192295        0.86718960265430
H            3.81813343184421       -1.49764062695413        0.18019082534039
H           -1.46204390659976        2.92469735024162       -0.06563005474136
H           -2.85021762488565        1.92751549447806       -0.70429976548850
H           -2.44021826049184        1.85993493231819        1.03568256688586
H           -1.92081208686581       -3.20234437932042        0.82465316504782
H           -1.88073243614581       -3.28579708670680       -0.93948006115895
H           -2.82057950371594       -2.07839464587275       -0.11871923445724
H            1.75085098465103       -2.95596437438846        0.28246069409309
25
 energy: 28.414805941911 xtb: 6.6.1 (8d0f1dd)
C            3.03788374677196        1.39083714862942        0.27149339468751
N            2.39832979457905        0.14843671283030       -0.16126327836122
C            2.80516557693770       -1.15113496145085        0.15325696978452
N            1.66866761426086       -1.96527981131643        0.10913794328647
C            0.54477020778591       -1.23900897692566       -0.13802032332552
C            1.01886869017244        0.06672967037518       -0.35000548092038
C            0.23916643969048        1.22945692902036       -0.56061240720997
O            0.65215747113998        2.37848042401775       -0.72327209584195
N           -1.07924901266275        0.92925835195643       -0.25476475631049
C           -2.00645186134983        1.99854834774983        0.03551909010688
C           -1.63322762172471       -0.28953737545018       -0.11221562629738
O           -2.84964797738478       -0.32911111816604        0.05839840972450
N           -0.87047337794595       -1.49528994773828       -0.14173854079128
C           -1.88861280789787       -2.60519118188793       -0.09597844213546
H            4.02949760974308        1.12857599224142        0.67548177839870
H            3.17334040947759        2.10651151637794       -0.58471129859144
H            2.43049567956988        1.95277606295558        1.04268149790666
H            3.82808270228387       -1.47264307533628        0.19550471891458
H           -1.44027990106702        2.91790468921116       -0.07216910444001
H           -2.85501603838916        1.92537494563089       -0.65610251980176
H           -2.37086661132107        1.85139010269538        1.06223163156330
H           -1.96384086276067       -3.18301123985719        0.82026141972430
H           -1.92112160556679       -3.28191693551564       -0.94136486193762
H           -2.82703067807837       -2.07171831251590       -0.13309048554330
H            1.79160708167166       -2.95140935535907        0.32837626355756
25
 energy: 31.211392581742 xtb: 6.6.1 (8d0f1dd)
C            2.99456712605973        1.39507904945127        0.30515931391232
N            2.39274725179170        0.14416045418929       -0.17595355837705
C            2.80035530355871       -1.13764227162046        0.18371760517230
N            1.68201560766011       -1.96846522049307        0.14166025914949
C            0.54832594126254       -1.26003237557448       -0.16312714489728
C            1.02280239874360        0.04174069576818       -0.40166814707172
C            0.24666021632389        1.20846954211518       -0.63914441575046
O            0.66227382712141        2.34540304810940       -0.89045355873569
N           -1.06707374231271        0.92272773830334       -0.28284203676929
C           -1.97408588150343        1.99910202984294        0.05884766547131
C           -1.62396246783926       -0.29816988253579       -0.10787161606704
O           -2.83733698915423       -0.31293567110193        0.10797210014101
N           -0.86980662170872       -1.50594089798612       -0.16722226646908
C           -1.88973854060167       -2.61040381135644       -0.11673530582071
H            4.03297393210389        1.13493433875693        0.62487055262311
H            3.03861162108281        2.17311202551605       -0.52633765500153
H            2.40847028896317        1.88635590738544        1.15454477344191
H            3.83104915645768       -1.43643300251470        0.20393937464496
H           -1.41652470409606        2.91824520087117       -0.07128764923556
H           -2.86359701302367        1.93685083741083       -0.58553072214975
H           -2.28647158613423        1.84796705895865        1.10483309800343
H           -1.98666925977440       -3.16964764533339        0.81534863185860
H           -1.93735717441088       -3.29131163348856       -0.96009318911435
H           -2.82577295624125       -2.03069889585359       -0.16366503120549
H            1.82975893360666       -2.94343801664792        0.37807281839379
25