25
 energy: 0.000000000000 xtb: 6.6.1 (8d0f1dd)
C            3.23720163006194        1.16630919979326        0.08434469647475
N            2.29877817382611        0.07527477071623        0.03981603040599
C            2.58028210190900       -1.21425402444508        0.03006176031096
N            1.43813958087363       -1.93419271955128        0.00098261760884
C            0.39035688448383       -1.05887472636071       -0.00790371836672
C            0.93510056364412        0.21347819449412        0.01709077491437
C            0.09450143893243        1.40504303904423       -0.00410947031874
O            0.49712751527797        2.54126714362870       -0.00342325688240
N           -1.25076640035757        1.06271879480407       -0.03085478223738
C           -2.21907211982101        2.15522099834493       -0.05001256985998
C           -1.81739487048744       -0.20012725993278       -0.04692818574614
O           -2.99983886758376       -0.37846417018721       -0.07008878229737
N           -0.92618586207120       -1.30210215599479       -0.03682761578324
C           -1.46982264913417       -2.64643102187190       -0.06029820460571
H            3.71247264356769        1.21471455160235        1.06488849150277
H            4.00791497605742        1.03430808813993       -0.67357694370751
H            2.69910007168542        2.09770118228144       -0.09130154882931
H            3.56654120610678       -1.63682992603973        0.04233140067262
H           -1.67107961066214        3.09322851271934       -0.02552706933167
H           -2.82428953597071        2.09428624779827       -0.95318082946668
H           -2.87644029173232        2.07745725625962        0.81450067533302
H           -1.17061996399332       -3.19584890659852        0.83242232437030
H           -1.14560257411436       -3.17511610292205       -0.95688275822323
H           -2.55549792440841       -2.55659984320617       -0.07459039797972
H            1.38130855184625       -2.94313852034425       -0.01389874181052
25
 energy: -5.396174445233 xtb: 6.6.1 (8d0f1dd)
C            3.24414816562072        1.17809942188190        0.08674969638582
N            2.30846301575868        0.09592648069844        0.03774486885308
C            2.60022190943643       -1.23214123639616        0.03009540737533
N            1.42824755047023       -1.94005012395252        0.00086122050321
C            0.39683572919088       -1.05631801470410       -0.00825027298171
C            0.93057295087446        0.22257899049649        0.01526697811156
C            0.10199187783276        1.39597815116941       -0.00525719394435
O            0.49848692269922        2.56189709219352       -0.00464314516683
N           -1.25993897575567        1.05039830226089       -0.03110566455621
C           -2.22028672458472        2.14639010954244       -0.04985013399096
C           -1.82311596466126       -0.20093225740522       -0.04730414256834
O           -3.01974132441191       -0.38334100141939       -0.07041644248737
N           -0.93388511830488       -1.30128337846770       -0.03705211211644
C           -1.47339311113836       -2.64295166742046       -0.06026306945147
H            3.72252395040941        1.22407431862342        1.06874545776439
H            4.01219132333480        1.04355076727469       -0.67632926181885
H            2.69726606347563        2.10269995247602       -0.08867140688568
H            3.57855143819866       -1.65819785586398        0.04275528363523
H           -1.65884533966597        3.07772456287934       -0.02537452669155
H           -2.82566309234901        2.09280401697696       -0.95425186189234
H           -2.87782254493513        2.07618942567976        0.81603383210932
H           -1.17132351230324       -3.19482679388663        0.83185357145608
H           -1.14625170371964       -3.17427498787198       -0.95612521403164
H           -2.55860336463983       -2.55120606010447       -0.07463393264596
H            1.36158454710395       -2.94375961248867       -0.01354403881699
25
 energy: -6.560285569017 xtb: 6.6.1 (8d0f1dd)
C            3.25088378912901        1.18550494665336        0.08903951845783
N            2.31530532542504        0.10771503294280        0.03420489869573
C            2.61077571906714       -1.24447647764835        0.03038428100137
N            1.41777073955704       -1.93857962699275        0.00128029494931
C            0.40088659174250       -1.05280817622323       -0.00884498736142
C            0.92743630134369        0.23000443032017        0.01266275137263
C            0.10844481620929        1.38403991602180       -0.00729921008822
O            0.48741622690823        2.56472092975006       -0.00737429420049
N           -1.26923213515835        1.03926609259287       -0.03168573752972
C           -2.22029764011936        2.13901688458198       -0.04964471357513
C           -1.82448876709711       -0.20273529492784       -0.04769373874559
O           -3.02508417449197       -0.39092421533261       -0.07053101231061
N           -0.93900120455909       -1.29895860652661       -0.03728145414931
C           -1.47596996718762       -2.63859216086834       -0.06015493977144
H            3.73632660250650        1.23457662655671        1.06950345117223
H            4.01829882004072        1.05955521967726       -0.67808299995180
H            2.69887793419079        2.10806409331058       -0.08174028929636
H            3.58271901998897       -1.67588064391185        0.04353825788851
H           -1.64256757921974        3.06113464572118       -0.02523198586948
H           -2.82672075092643        2.09247012793634       -0.95427020175664
H           -2.87825234600541        2.07604636183614        0.81700942873398
H           -1.17414346342156       -3.19323981760430        0.83147400957816
H           -1.14887249103097       -3.17304801624576       -0.95534663285676
H           -2.56103493087848       -2.54362493806446       -0.07468123802172
H            1.34273823192337       -2.94021873138315       -0.01219956021777
25
 energy: -6.656820090182 xtb: 6.6.1 (8d0f1dd)
C            3.25372322238379        1.18772669858426        0.09018310680421
N            2.31852335003398        0.10891544961181        0.03129498661617
C            2.61215755219214       -1.24913320643121        0.03061053228323
N            1.41456721746146       -1.93676014670068        0.00205983979388
C            0.40212917661553       -1.05200627505301       -0.00934544287044
C            0.92787771891083        0.23230062772172        0.01065846796223
C            0.11069720231011        1.38099981352163       -0.00941081071998
O            0.47685586546983        2.56454571960750       -0.01036480107953
N           -1.27376386224714        1.03559563693982       -0.03250402394973
C           -2.21998026038307        2.13692882018491       -0.04958938285316
C           -1.82454772922219       -0.20509290713737       -0.04806911467187
O           -3.02461221814564       -0.39772139074948       -0.07058171670536
N           -0.93918517453076       -1.29839842307843       -0.03740684718887
C           -1.47668098905798       -2.63705629983012       -0.05994011998620
H            3.74458102557094        1.23718310433593        1.06847122212820
H            4.02061745929016        1.07220823346675       -0.67968109319337
H            2.70028925343915        2.11137965538731       -0.07376539014104
H            3.58189638782972       -1.68470595067045        0.04408025992231
H           -1.63357381373081        3.05345719733694       -0.02537761569930
H           -2.82726391273368        2.09364308486332       -0.95377012895567
H           -2.87756760237202        2.07720095176831        0.81754787849890
H           -1.17701217278612       -3.19240963152161        0.83197331925895
H           -1.15143333680972       -3.17269466812986       -0.95510908478222
H           -2.56174249399684       -2.53853978870249       -0.07464558803231
H            1.33566280244450       -2.93853770315351       -0.01028455629174
25
 energy: -6.674858217005 xtb: 6.6.1 (8d0f1dd)
C            3.25582007123802        1.18937558518636        0.09179917889888
N            2.32238157747259        0.10784678829733        0.02692746619613
C            2.61222971967617       -1.25263740210589        0.03076513410517
N            1.41347558083818       -1.93484894395600        0.00348772022730
C            0.40308965556793       -1.05161118595164       -0.01017406529231
C            0.92986604603003        0.23388005506986        0.00747356024862
C            0.11310834604202        1.38015158442879       -0.01319146675468
O            0.46496681454535        2.56504510969048       -0.01555817753246
N           -1.27753949519011        1.03261758366442       -0.03417708920078
C           -2.21929193671562        2.13561579974964       -0.04964629802724
C           -1.82466732110629       -0.20825481418205       -0.04881112262438
O           -3.02359318554776       -0.40570237930657       -0.07061373800426
N           -0.93791415209749       -1.29850415196240       -0.03759406574380
C           -1.47722757631652       -2.63626965108930       -0.05942793456086
H            3.75408686258910        1.23439185012024        1.06685722892329
H            4.02018306783143        1.08926234397208       -0.68336687957085
H            2.69973035601034        2.11443981400601       -0.05949076705247
H            3.57990860340077       -1.69333223289723        0.04468551713296
H           -1.62514261047855        3.04686558994242       -0.02599294058838
H           -2.82816850964827        2.09610066282970       -0.95283418614036
H           -2.87583648262159        2.07943815679706        0.81843746771606
H           -1.18095300978038       -3.19185796455254        0.83320308326542
H           -1.15476992116283       -3.17315747920485       -0.95459966725046
H           -2.56223005605520       -2.53283960385939       -0.07448739931925
H            1.33070222341490       -2.93698651251449       -0.00663666290400
25
 energy: -6.652591827128 xtb: 6.6.1 (8d0f1dd)
C            3.25648580370388        1.19065381952722        0.09423215925584
N            2.32606002372136        0.10600352019183        0.02128555069463
C            2.61203083020691       -1.25430970316449        0.03052184102283
N            1.41421163510586       -1.93346688385121        0.00537216708779
C            0.40368042196861       -1.05134670322227       -0.01143078957437
C            0.93237213563616        0.23478359971156        0.00293672671712
C            0.11589695026344        1.38054444842892       -0.01887835631599
O            0.45653512431856        2.56625388757005       -0.02322849415191
N           -1.27937139053660        1.03020802435330       -0.03694331356693
C           -2.21813413864388        2.13481260907044       -0.04993004268976
C           -1.82486812960045       -0.21097548737306       -0.04998645485266
O           -3.02286857563099       -0.41184658497587       -0.07055814365031
N           -0.93616460330142       -1.29922067508374       -0.03789340514153
C           -1.47782125749709       -2.63635241275303       -0.05848019700568
H            3.76441824033461        1.22410982345623        1.06499262172027
H            4.01503206136289        1.10936522643862       -0.68964860437154
H            2.69559942271131        2.11651319251368       -0.03784737359469
H            3.57795068404057       -1.69970583793595        0.04513105603149
H           -1.61928765289395        3.04275630302553       -0.02738049860247
H           -2.82946678727192        2.09888828413744       -0.95155141398268
H           -2.87270011728849        2.08178079880834        0.81981734597163
H           -1.18504820087337       -3.19170223923944        0.83515579441718
H           -1.15793127266363       -3.17482705276895       -0.95332835620789
H           -2.56265246943881       -2.52811211408776       -0.07411192319500
H            1.32825593020260       -2.93577924060532       -0.00121399986808
25
 energy: -6.454401839135 xtb: 6.6.1 (8d0f1dd)
C            3.25603271073911        1.19373571623591        0.10196940078322
N            2.33380311490772        0.10201156045793        0.00574597521128
C            2.61204035152768       -1.25651759502082        0.02888002329800
N            1.41689676169791       -1.93111969615772        0.01017683573075
C            0.40478333246800       -1.05092178123233       -0.01533055475648
C            0.93783620539483        0.23619449978838       -0.01039345351272
C            0.12299906889127        1.38158466210474       -0.03586137793271
O            0.44311083498500        2.56919372765743       -0.04610658651298
N           -1.28127400451913        1.02511679532482       -0.04559869197442
C           -2.21467574171572        2.13321795515141       -0.05112523210828
C           -1.82511897367692       -0.21598267016224       -0.05354289477024
O           -3.02152862647627       -0.42260089190972       -0.07017264004817
N           -0.93242090526380       -1.30147431111497       -0.03889815856660
C           -1.47960595007764       -2.63727731429545       -0.05531080911692
H            3.79253555752498        1.18828201066937        1.05970719753892
H            3.99468722502835        1.16377537191424       -0.70865106872031
H            2.68069085664535        2.12070679998988        0.02779567158572
H            3.57426794057385       -1.71167312352843        0.04579890288490
H           -1.60811325558218        3.03580498890370       -0.03234423068288
H           -2.83335095407654        2.10468865274993       -0.94795527809696
H           -2.86260762303513        2.08634836877321        0.82399312426888
H           -1.19458107147582       -3.19128019733330        0.84114607658769
H           -1.16469841567954       -3.18052753345091       -0.94851953701101
H           -2.56390791522782       -2.51874605328725       -0.07269649488438
H            1.32441414435860       -2.93351134005577        0.01432769695298
25
 energy: -4.048213264327 xtb: 6.6.1 (8d0f1dd)
C            3.25203571205013        1.20247168870120        0.12749653682370
N            2.35414958186695        0.09146606949173       -0.04211010739927
C            2.61265293625240       -1.26099691626654        0.02280165848744
N            1.42499311779455       -1.92554306486962        0.02403401158141
C            0.40763247114938       -1.05022213349004       -0.02826507591082
C            0.95238523803214        0.23916371339270       -0.05291683936979
C            0.14355725271224        1.38431206149693       -0.08989560777677
O            0.41308703921523        2.57674039440167       -0.11889036905986
N           -1.28406927534882        1.01187157126774       -0.07363530170505
C           -2.20410449919294        2.12918022291986       -0.05514227006771
C           -1.82528781177093       -0.22812222897610       -0.06490448168733
O           -3.01784679276818       -0.44823876050780       -0.06848492328031
N           -0.92259190391430       -1.30835657406339       -0.04248179318511
C           -1.48514569001842       -2.64048525261990       -0.04484149487917
H            3.87925053934806        1.07116577329835        1.04119916332126
H            3.92416187633490        1.33010473835933       -0.76565780756924
H            2.63403958999984        2.13041965714167        0.23648903214764
H            3.56512733212377       -1.74168698158617        0.04725685487253
H           -1.57927137894717        3.01916112309126       -0.04916123012959
H           -2.84630107352750        2.11966110842393       -0.93630621580239
H           -2.82977663447113        2.09756797042240        0.83758269091682
H           -1.22125459277196       -3.18913136873692        0.86044821330255
H           -1.18277858426285       -3.19897347410448       -0.93195500413030
H           -2.56782718872459       -2.49469607142933       -0.06778066577465
H            1.31539740677522       -2.92780466358640        0.06215492242127
25
 energy: -5.730972872971 xtb: 6.6.1 (8d0f1dd)
C            3.25105039261433        1.19859507091418        0.12079029946049
N            2.34495004513731        0.09617812725046       -0.02652123936043
C            2.61242195779585       -1.25653110505615        0.02515118517341
N            1.42302998550504       -1.92814704084523        0.01876652851476
C            0.40607072182416       -1.05061864725918       -0.02573747287262
C            0.94629637095673        0.23727358513201       -0.04180226969942
C            0.13564099968416        1.38401986239184       -0.07499513235171
O            0.43065195543471        2.57359644063699       -0.09840689050733
N           -1.28076503306147        1.01803709873677       -0.06560642531647
C           -2.20781971390426        2.13120273007834       -0.05219046826868
C           -1.82511379037828       -0.22211049935814       -0.06162145006548
O           -3.01960518548845       -0.43473956293593       -0.06789929217510
N           -0.92665187856987       -1.30628750088509       -0.04246694043950
C           -1.48318943905259       -2.64007260948352       -0.04849188753808
H            3.84395463926986        1.11179412925252        1.04515233678767
H            3.94443652407004        1.26766453384362       -0.73527997010126
H            2.65407021333632        2.12075506468970        0.16184784682365
H            3.56929653976579       -1.72569626925755        0.04634866762100
H           -1.59379275538401        3.02851505472963       -0.04293929991924
H           -2.84396970026934        2.11367275490305       -0.93700723342675
H           -2.83823215557850        2.09140722917717        0.83625515706570
H           -1.21052490183189       -3.18958534755960        0.85391528316105
H           -1.17525359316029       -3.19378661901240       -0.93700705368291
H           -2.56628749843290       -2.50614863764946       -0.06947566826738
H            1.32154996765364       -2.92995924026197        0.04625528553189
25
 energy: -5.644557521834 xtb: 6.6.1 (8d0f1dd)
C            3.24635328199160        1.19945609433833        0.13259136170284
N            2.34633115477599        0.09604932371069       -0.04281807425337
C            2.61312186123763       -1.25373603434853        0.02401600619796
N            1.42535699719132       -1.92793834574864        0.02160719814944
C            0.40615993078196       -1.05089827193811       -0.03380459530488
C            0.94762203752468        0.23655234779143       -0.06155056337435
C            0.13946940861702        1.38469504023410       -0.09878486825343
O            0.43521139273757        2.57389418067445       -0.13052516145421
N           -1.27787822863859        1.01729592536486       -0.07769329525024
C           -2.20502097386357        2.13105729766523       -0.05056587998454
C           -1.82451346905426       -0.22170972668608       -0.06637334867558
O           -3.01917338268337       -0.43300412973890       -0.06493326086950
N           -0.92584150905473       -1.30822265721128       -0.04640827108481
C           -1.48477668520165       -2.64146056364008       -0.04522489494022
H            3.86127009320863        1.07617461010214        1.03523897854089
H            3.91648190880507        1.31015924586060       -0.73324062489479
H            2.64728189683417        2.11228442683116        0.22316469079296
H            3.56933766508448       -1.72428508228911        0.04608744597014
H           -1.59273339549422        3.02964945478302       -0.04804720484360
H           -2.85309638722610        2.11551963803073       -0.92666475093095
H           -2.82249046712136        2.08973018770408        0.84705753524096
H           -1.21471534205332       -3.18685578748550        0.86042968078807
H           -1.17739612214417       -3.20116957686108       -0.93012359100052
H           -2.56733347580908       -2.50530929286604       -0.06779250004821
H            1.32318647749028       -2.92889970210537        0.06139188392722
25
 energy: -5.163496713901 xtb: 6.6.1 (8d0f1dd)
C            3.24203502269545        1.20099641373545        0.14773150452627
N            2.34987204836713        0.09505575363558       -0.06443613079758
C            2.61399392223954       -1.25260414152542        0.02267409683719
N            1.42758916599641       -1.92701679360605        0.02547031142037
C            0.40687611463717       -1.05122652858573       -0.04419750182784
C            0.95019893074427        0.23620743462023       -0.08676303343715
C            0.14477371467807        1.38493859558434       -0.13002219040816
O            0.43467889635008        2.57434837917244       -0.17320120782387
N           -1.27620598243431        1.01515085268560       -0.09364027246917
C           -2.20124223176550        2.13043354010533       -0.04886515379574
C           -1.82369947464205       -0.22276894337094       -0.07263432061022
O           -3.01805111863533       -0.43475634771671       -0.06116118502857
N           -0.92416189752460       -1.31032605591337       -0.05168835436254
C           -1.48681847242084       -2.64247676650142       -0.04078645922324
H            3.88747265071614        1.02892955971283        1.02449440185803
H            3.88338986297972        1.37142293335124       -0.73600815926442
H            2.63605619206816        2.10510891056368        0.30785714077527
H            3.56863792398346       -1.72693725869200        0.04592373997189
H           -1.58723079238828        3.02797958379380       -0.05539294228090
H           -2.86535833623668        2.11880667813548       -0.91333467404589
H           -2.80205440850117        2.08923907609947        0.86068017926399
H           -1.22131310485980       -3.18242793598321        0.86947868058840
H           -1.18128589591481       -3.21037538616100       -0.92106112631211
H           -2.56883079650877       -2.50143165461860       -0.06543523627892
H            1.32289273431248       -2.92724129634890        0.08135178887215
25
 energy: -4.604707206088 xtb: 6.6.1 (8d0f1dd)
C            3.23730404496084        1.20187792851131        0.16444791199213
N            2.35284807832998        0.09454296586774       -0.08662025404174
C            2.61481132430149       -1.25109069091551        0.02215529091316
N            1.42961120194334       -1.92606336404887        0.02871695444639
C            0.40764074398417       -1.05160776192067       -0.05639993136401
C            0.95237214416694        0.23561440127215       -0.11442878140664
C            0.14911110230970        1.38496287857463       -0.16476248752476
O            0.43464530364313        2.57422049000476       -0.22129889515428
N           -1.27438162521143        1.01349099366367       -0.11119128354109
C           -2.19742467840976        2.13002211730101       -0.04580823449464
C           -1.82270024954483       -0.22348589508492       -0.07944248469087
O           -3.01682258584455       -0.43566457910572       -0.05613495426362
N           -0.92265091614268       -1.31209610033228       -0.05860865064678
C           -1.48863488764388       -2.64318456520270       -0.03642317173226
H            3.91043643705386        0.98294955289282        1.01365939310150
H            3.85060713073838        1.43140577776171       -0.73200295990673
H            2.62695331586235        2.09449018682361        0.39196962452811
H            3.56834563545177       -1.72817267300977        0.04545550266285
H           -1.58225165424567        3.02685146595179       -0.06297245293673
H           -2.88022243799440        2.12191453152885       -0.89639148066572
H           -2.77876975655389        2.08808834453567        0.87730267882860
H           -1.22695387454943       -3.17646962576953        0.87897572786790
H           -1.18463630859786       -3.22005506621857       -0.91142219917130
H           -2.57018483145938       -2.49812292802674       -0.06300494242011
H            1.32316201138770       -2.92538978288229        0.10126397576791
25
 energy: -4.246952900384 xtb: 6.6.1 (8d0f1dd)
C            3.23241997843532        1.20171287649961        0.18120681982076
N            2.35434855337530        0.09507457922377       -0.10629191992523
C            2.61554006966577       -1.24903212962820        0.02314782402488
N            1.43089967280294       -1.92529058591937        0.03059174356965
C            0.40833861455158       -1.05200140890335       -0.06960015772424
C            0.95343042963387        0.23470184911619       -0.14186947542980
C            0.15146349156839        1.38448861782028       -0.20003073453965
O            0.43643584808682        2.57307382621358       -0.27131185496521
N           -1.27230808520510        1.01288162800837       -0.12865009089291
C           -2.19396150308598        2.12996619048382       -0.04096570225233
C           -1.82150550023355       -0.22327266376630       -0.08608283210732
O           -3.01563640943345       -0.43448197504537       -0.04984069200631
N           -0.92182331339478       -1.31313196893329       -0.06710524316281
C           -1.48988128045548       -2.64337051200287       -0.03289330632333
H            3.92466953689211        0.94572586847580        1.00492835876978
H            3.82310953353719        1.47985680717489       -0.71846360726857
H            2.62135797969218        2.08032133366960        0.46267904115211
H            3.56888397859281       -1.72667415015828        0.04450388750960
H           -1.57910255713818        3.02701404822609       -0.06968207862517
H           -2.89673545587140        2.12405162569516       -0.87611354351569
H           -2.75417261310634        2.08573064223785        0.89626196296378
H           -1.23013783055201       -3.16910501347147        0.88763334234842
H           -1.18649462440855       -3.22913082695831       -0.90231509284751
H           -2.57114378030375       -2.49652809014841       -0.06090764909421
H            1.32421993429016       -2.92355196573763        0.11820489666858
25
 energy: -3.831454226000 xtb: 6.6.1 (8d0f1dd)
C            3.22702200962904        1.20114948188720        0.19913503877476
N            2.35579602427714        0.09572779659633       -0.12574160628927
C            2.61604564221351       -1.24678843756589        0.02538465719122
N            1.43195330598154       -1.92431134217389        0.03208243041399
C            0.40907836892946       -1.05233757028559       -0.08404489645659
C            0.95445461687120        0.23368279324059       -0.17065167070157
C            0.15333342372040        1.38376318567983       -0.23821587106106
O            0.43788406761553        2.57126459946164       -0.32673311949219
N           -1.27026547596830        1.01248959890181       -0.14720618912066
C           -2.19011693724437        2.13001666625893       -0.03485918074700
C           -1.82019764494718       -0.22295723737242       -0.09303885743077
O           -3.01422393643311       -0.43301207518929       -0.04236695122057
N           -0.92099550484347       -1.31385207394773       -0.07717447369051
C           -1.49079015525008       -2.64326746152588       -0.02963363321639
H            3.93629646639790        0.90996185690382        0.99757952043044
H            3.79670163003801        1.52683525299754       -0.70065166419141
H            2.61538327399614        2.06414940632536        0.53237014338916
H            3.56939616051673       -1.72470602960168        0.04297089705399
H           -1.57603906187785        3.02736930688175       -0.07658104199182
H           -2.91478285901205        2.12606860680731       -0.85241624783729
H           -2.72675223767133        2.08314494765313        0.91748467001188
H           -1.23247670973244       -3.16037649827680        0.89643653144542
H           -1.18794179476652       -3.23851183277156       -0.89293289130082
H           -2.57182626273367       -2.49510564665089       -0.05889984964019
H            1.32527825822954       -2.92136869206143        0.13473815182454
25
 energy: -3.594823877343 xtb: 6.6.1 (8d0f1dd)
C            3.22110646037621        1.19994031434018        0.21707975050346
N            2.35639379584382        0.09694330161687       -0.14260571563584
C            2.61629132841659       -1.24415719096085        0.02930923628139
N            1.43242430863595       -1.92335645998345        0.03269127663066
C            0.40974673420167       -1.05263288436406       -0.09898105688805
C            0.95486806326989        0.23242989619612       -0.19864468382450
C            0.15393573644704        1.38257983933353       -0.27686817690173
O            0.44012466463499        2.56846280683472       -0.38453046297762
N           -1.26807861085736        1.01275177883614       -0.16546619107963
C           -2.18605659086053        2.13031205756359       -0.02730454454863
C           -1.81872554326462       -0.22206774106611       -0.09975375611260
O           -3.01265075913498       -0.43022983685791       -0.03382148427167
N           -0.92056122986302       -1.31403997058711       -0.08861820443487
C           -1.49113696063719       -2.64276433977147       -0.02716604065238
H            3.94152228238636        0.88104209189038        0.99269879411293
H            3.77422971426086        1.56510040761367       -0.67675613812271
H            2.61019131541345        2.04576093516851        0.59189834553238
H            3.57019932194167       -1.72117352955651        0.04057469245937
H           -1.57396881776882        3.02858020145927       -0.08278403580825
H           -2.93321079021546        2.12736997511566       -0.82584375314293
H           -2.69780698713486        2.07991722672265        0.94011046932586
H           -1.23290299956921       -3.15049912598182        0.90443000149982
H           -1.18823321039745       -3.24738222086956       -0.88408230596081
H           -2.57208041359326       -2.49480061232183       -0.05728590133555
H            1.32659385540402       -2.91905831819843        0.14875378149919
25