25
 energy: 0.000000000000 xtb: 6.6.1 (8d0f1dd)
C            3.23720132972391        1.16630909158653        0.08434468864950
N            2.29877796055224        0.07527476373246        0.03981602671198
C            2.58028186251803       -1.21425391179017        0.03006175752192
N            1.43813944744728       -1.93419254010258        0.00098261751768
C            0.39035684826767       -1.05887462812143       -0.00790371763344
C            0.93510047688824        0.21347817468824        0.01709077332874
C            0.09450143016486        1.40504290868848       -0.00410946993748
O            0.49712746915594        2.54126690785742       -0.00342325656480
N           -1.25076628431515        1.06271869620815       -0.03085477937476
C           -2.21907191394203        2.15522079838987       -0.05001256521996
C           -1.81739470187490       -0.20012724136556       -0.04692818139228
O           -2.99983858926755       -0.37846413507442       -0.07008877579474
N           -0.92618577614240       -1.30210203518959       -0.03682761236648
C           -1.46982251276835       -2.64643077634382       -0.06029819901142
H            3.71247229913541        1.21471443890471        1.06488839270555
H            4.00791460421487        1.03430799217987       -0.67357688121503
H            2.69909982127087        2.09770098766290       -0.09130154035862
H            3.56654087521359       -1.63682977417947        0.04233139674524
H           -1.67107945562430        3.09322822573871       -0.02552706696334
H           -2.82428927394145        2.09428605349656       -0.95318074103337
H           -2.87644002486466        2.07745706351925        0.81450059976605
H           -1.17061985538665       -3.19584861009707        0.83242224714061
H           -1.14560246782873       -3.17511580834413       -0.95688266944647
H           -2.55549768731684       -2.55659960601237       -0.07459039105944
H            1.38130842369251       -2.94313824728853       -0.01389874052104
25
 energy: -5.570405363397 xtb: 6.6.1 (8d0f1dd)
C            3.23721230166330        1.17469992216318        0.08038577985319
N            2.30312341860810        0.10065674938602        0.03060327989195
C            2.60293610879187       -1.24278835763108        0.03212264188473
N            1.42147975626400       -1.94347254534113        0.00291842742876
C            0.39886826575390       -1.06644158693303       -0.00721773914562
C            0.91733412898139        0.22069501380184        0.01312212505597
C            0.11199979309393        1.38103347219089       -0.00633605100780
O            0.49094927156735        2.55603993730605       -0.01236874341672
N           -1.27505913212512        1.05386867404717       -0.02827184826175
C           -2.20588587415470        2.17929387547883       -0.03825703721511
C           -1.82250299790647       -0.19798915230139       -0.05022686752225
O           -3.02004352148824       -0.39219192046323       -0.07311143941700
N           -0.94032336489121       -1.30400840899937       -0.03661327428745
C           -1.46715567118006       -2.64995844629471       -0.05684220544584
H            3.71535822688701        1.22496484026466        1.06268693570463
H            4.00671482581408        1.03823333819933       -0.68163559136286
H            2.69189169619046        2.09956571861573       -0.09750161094596
H            3.58011702594083       -1.65526579823733        0.04266219078262
H           -1.68930443315192        3.14522300729311        0.04165583049425
H           -2.76636359743332        2.17843657133936       -0.96535768328166
H           -2.92163531392324        2.05304377343337        0.77114319937564
H           -1.16223576656211       -3.20121082449263        0.83640482237070
H           -1.13473422822060       -3.18515896612221       -0.95006543487776
H           -2.55278917832959       -2.57065438967592       -0.07292388982241
H            1.36932205109550       -2.94813190464090       -0.00851348058661
25
 energy: -3.980737678450 xtb: 6.6.1 (8d0f1dd)
C            3.23311890869509        1.17573232638313        0.07364311461450
N            2.30185233903626        0.09837478068579        0.02327584970293
C            2.60507343925665       -1.24840446141636        0.03259063211467
N            1.42104224258131       -1.94953164833377        0.00598374321655
C            0.39779696802936       -1.07297737893545       -0.00566033616383
C            0.91422934838544        0.21440623574862        0.01029634736468
C            0.10756739897179        1.37262657375509       -0.00787094853196
O            0.48594875350662        2.54740630207664       -0.02213029463296
N           -1.28446423866574        1.05698707943931       -0.01650842832827
C           -2.19481410992537        2.20812539297758       -0.02389950901587
C           -1.83095244928682       -0.20054895512873       -0.04599091159028
O           -3.02709996154686       -0.40171276654659       -0.07304975236333
N           -0.94351825843245       -1.30756881323478       -0.03496714636690
C           -1.46341620563765       -2.65744437842477       -0.05371826372320
H            3.71202948448483        1.23116470008663        1.05577366249831
H            4.00273724035773        1.03978580349687       -0.68850462888825
H            2.68449956236502        2.09834997336927       -0.10524450782967
H            3.58272631961853       -1.66327147611463        0.04408895838703
H           -1.71508668190172        3.19842151501270        0.11805106605366
H           -2.70057673871698        2.26270120594728       -0.97777251943875
H           -2.96646550086605        2.02637225462350        0.72167690980987
H           -1.15635349782811       -3.20689361861055        0.84051483705085
H           -1.12552953383283       -3.19439736892799       -0.94440665731762
H           -2.54925338991900       -2.58630829828718       -0.07219271033255
H            1.36670393465388       -2.95453359218293       -0.00108492929772
25
 energy: -1.778641686364 xtb: 6.6.1 (8d0f1dd)
C            3.22842912464606        1.17572408646777        0.06667606436472
N            2.29985207752728        0.09471204082720        0.01455357794761
C            2.60686937540299       -1.25468299949419        0.03296106331060
N            1.42026345430464       -1.95573501708755        0.00953078105389
C            0.39643513030015       -1.07969516509279       -0.00340118518517
C            0.91075677787058        0.20804181183880        0.00720388061672
C            0.10308127077734        1.36473573525023       -0.00932686731987
O            0.47989651904837        2.53978688444710       -0.03153676251937
N           -1.29371698853371        1.06091731521317        0.00018159633172
C           -2.18659656464877        2.23654572539062       -0.00745520403930
C           -1.83852971406383       -0.20237712823709       -0.03617287314305
O           -3.03296989441504       -0.41191079861882       -0.07049722457703
N           -0.94677316624866       -1.31112434779222       -0.03146070383833
C           -1.45975389446507       -2.66489760006612       -0.04987307561878
H            3.70844299549478        1.23589202086240        1.04851150179182
H            3.99836752203932        1.04095646697247       -0.69545115887258
H            2.67736862549564        2.09689903336763       -0.11248985534815
H            3.58532477823228       -1.67114901923648        0.04537161172109
H           -1.74231633758500        3.24553092893472        0.20141341231101
H           -2.62885010356935        2.34882082217016       -0.98867660467116
H           -3.01042203171895        1.99937547522848        0.66774519383582
H           -1.15044711873627       -3.21300705097422        0.84497361646870
H           -1.11656832160101       -3.20329676673580       -0.93826927846984
H           -2.54576773670025       -2.60218535299331       -0.07075442526786
H            1.36504238478177       -2.96104713956839        0.00738469193486
25
 energy: 1.008820747589 xtb: 6.6.1 (8d0f1dd)
C            3.22237024901111        1.17495380744809        0.06022512879544
N            2.29680805787123        0.08947561958612        0.00699090012480
C            2.60803595596368       -1.26208845928411        0.03246885224866
N            1.41907721169739       -1.96280042453098        0.01172542972026
C            0.39461660434657       -1.08710422789939       -0.00146602572072
C            0.90664011437962        0.20092831052650        0.00466333299686
C            0.09767493998424        1.35651453152324       -0.00915680796501
O            0.47287047235309        2.53185715423047       -0.03819405376178
N           -1.30321072187573        1.06581030850324        0.01888771393016
C           -2.17958154241338        2.26613986010615        0.00938506358645
C           -1.84564156935062       -0.20362973808114       -0.02494098561044
O           -3.03800708208718       -0.42283411778560       -0.06866165178316
N           -0.95007008918735       -1.31474608710641       -0.02734174550680
C           -1.45576093524522       -2.67214764684598       -0.04472356036782
H            3.70296562611542        1.24081779917507        1.04187148068619
H            3.99337963075565        1.04269533674598       -0.70144451643927
H            2.66847124431318        2.09438022807489       -0.11959700105418
H            3.58790898476601       -1.67933279663818        0.04396111368832
H           -1.76991931665014        3.28958850433849        0.28736204785323
H           -2.55630237428312        2.43263650991079       -0.99394640350117
H           -3.04852649594222        1.97735295231206        0.60905827597084
H           -1.14348247282698       -3.21734529443724        0.85142837820851
H           -1.10695376753998       -3.21222226595591       -0.93057021508393
H           -2.54186606387978       -2.61758201528951       -0.06782485662480
H            1.36509944689623       -2.96852750860725        0.01258898231967
25
 energy: 4.521714087925 xtb: 6.6.1 (8d0f1dd)
C            3.21587205596910        1.17350295071662        0.05344457531919
N            2.29290423569255        0.08344756515625        0.00095633680297
C            2.60772962057579       -1.26919898458535        0.03245997964356
N            1.41812001432647       -1.97056590479238        0.01297136059261
C            0.39278922193233       -1.09516923867418       -0.00094977898926
C            0.90181964466278        0.19338883466350        0.00165620659422
C            0.09029547671691        1.34790312682147       -0.00785091697208
O            0.46471448982807        2.52342400859600       -0.04236869593601
N           -1.31352148167193        1.07032502531154        0.04210705615614
C           -2.17720137487536        2.29693422076085        0.02727095536838
C           -1.85282041425995       -0.20567150723706       -0.01382553860771
O           -3.04280695560686       -0.43464830790176       -0.06738511384925
N           -0.95317036450066       -1.31890705695947       -0.02425683687075
C           -1.45188271481161       -2.67958125095021       -0.03999379778532
H            3.69611024917963        1.24605888111277        1.03518243606601
H            3.98898617550721        1.04401300107869       -0.70690596532076
H            2.65955340836829        2.09121651176323       -0.12846575686093
H            3.58951936073899       -1.68113669234061        0.03849536826121
H           -1.80320801236494        3.33412022280335        0.36647510014463
H           -2.48259861835873        2.51201674663249       -0.99453621467157
H           -3.08664544824473        1.96534418406813        0.54570196452137
H           -1.13712056313020       -3.22075241425179        0.85823718201280
H           -1.09779264155100       -3.22264201812640       -0.92258773626175
H           -2.53795870558883       -2.63221283370999       -0.06545089073038
H            1.36856487068565       -2.97678314685729        0.01781688008143
25
 energy: 9.066437137407 xtb: 6.6.1 (8d0f1dd)
C            3.21043388794592        1.17159798945498        0.04633560429310
N            2.28805968070071        0.07853180420931       -0.00298091294646
C            2.60392456626588       -1.27469117662993        0.03390755698238
N            1.41575961442048       -1.97755012610169        0.01726911735865
C            0.39009132917033       -1.10238784815662        0.00170467422828
C            0.89610170498296        0.18699263629487       -0.00042713317716
C            0.08181347447105        1.34041228855581       -0.00913426132120
O            0.45515265453659        2.51611680413171       -0.05230893366349
N           -1.32313755566338        1.07386100149264        0.06580550478708
C           -2.18285226005757        2.32360567334339        0.04248565954884
C           -1.85959226701864       -0.20884251821771       -0.00171145135644
O           -3.04729629934204       -0.44673144063633       -0.06357518285780
N           -0.95666439888041       -1.32370321093383       -0.01973136137058
C           -1.44765683298550       -2.68791029452001       -0.03646059742627
H            3.69318031917663        1.24925607643268        1.02682283550772
H            3.98345400864030        1.04317591862817       -0.71461972818282
H            2.65366709000275        2.08908174512503       -0.13598786680943
H            3.58841480824109       -1.67619525415357        0.02803166856127
H           -1.85212222740271        3.38400442660074        0.43027391064464
H           -2.40624916853416        2.58833134523660       -0.99242010791311
H           -3.12623533005842        1.95674130180618        0.47761209579427
H           -1.13030725806205       -3.22765974943049        0.86216797666563
H           -1.08750515743087       -3.23110053116943       -0.91704775690690
H           -2.53375580276134       -2.64940998569808       -0.06472929530746
H            1.37230677743529       -2.98413245304801        0.02566938542312
25
 energy: 13.603007224883 xtb: 6.6.1 (8d0f1dd)
C            3.20333002834746        1.17131120234862        0.03916991725263
N            2.28201602911268        0.07605738348415       -0.00806323585055
C            2.59834544318106       -1.27504762361151        0.03006261377309
N            1.41415355343608       -1.98361851879971        0.02079385602603
C            0.38706454715686       -1.10981555596951        0.00489637071197
C            0.88931543368611        0.18105123691002       -0.00220190867291
C            0.07238290318503        1.33362551871988       -0.00996169678745
O            0.44487027542239        2.50934104197428       -0.06147573773238
N           -1.33215556208605        1.07269043710601        0.08852959287419
C           -2.19538199097459        2.33470381455150        0.05058766361069
C           -1.86522321188116       -0.21449412797912        0.01168832734703
O           -3.05105353873288       -0.45935796014007       -0.05747932351262
N           -0.95989385278550       -1.33013608562718       -0.01432563297559
C           -1.44345859689786       -2.69719708022137       -0.03308117401803
H            3.68758064510975        1.25442812170889        1.01879868244664
H            3.97654476216198        1.04409208645153       -0.72208293070432
H            2.64459997434225        2.08727375577522       -0.14436554390955
H            3.58525632534119       -1.67039144382966        0.01919620588220
H           -1.91885688783094        3.42289532271332        0.49144000985047
H           -2.33047201688552        2.65818158425766       -0.98396136654593
H           -3.15848638620849        1.95014398433243        0.40744225232426
H           -1.12359454629716       -3.23628501484721        0.86537433098512
H           -1.07723949084072       -3.23907894764813       -0.91240299415342
H           -2.52955341432994       -2.66697988187413       -0.06433506094698
H            1.37879124399814       -2.99077875582584        0.03123508345601
25
 energy: 18.447008169808 xtb: 6.6.1 (8d0f1dd)
C            3.19653528000954        1.17133318687777        0.03523695806584
N            2.27522033356242        0.07560388227378       -0.01204235417704
C            2.59285144565220       -1.27227381412899        0.01883605499890
N            1.41270019762663       -1.98744881244755        0.02107576097369
C            0.38393513174469       -1.11549860106109        0.00869467376787
C            0.88243593524999        0.17700415350345       -0.00137009373726
C            0.06281661614579        1.32940047100529       -0.00425192307309
O            0.43331755990687        2.50506798315247       -0.06893241301451
N           -1.33926897744995        1.06823710021761        0.11258041501125
C           -2.20295964859155        2.33435870192289        0.05311167619334
C           -1.87065674321313       -0.22197527927964        0.02748237590517
O           -3.05498838419884       -0.47133689049403       -0.04668007421711
N           -0.96241142239608       -1.33700544757941       -0.00658693641512
C           -1.43773700452091       -2.70706469320209       -0.02862585855939
H            3.68355953191650        1.25429741139171        1.01372294136624
H            3.96839329675995        1.04646818761924       -0.72802416292452
H            2.63661209157207        2.08689567706971       -0.14537771495590
H            3.57995830630705       -1.66328321752426        0.01143026482933
H           -1.99174686893155        3.45592220541988        0.55251343494009
H           -2.24163641207811        2.71783978043778       -0.96686367566817
H           -3.18516072898151        1.94586395346545        0.32753210563324
H           -1.11330351656138       -3.24640104643645        0.86826833898551
H           -1.06549834941701       -3.24573896833778       -0.90771050514666
H           -2.52401836416242       -2.68783416879736       -0.06154667727908
H            1.38554212022334       -2.99481662188362        0.03017020869037
25
 energy: 24.945241431053 xtb: 6.6.1 (8d0f1dd)
C            3.19020419921321        1.17423117027900        0.03000512137848
N            2.27120795434356        0.07918978119801       -0.01526706578514
C            2.59086521780771       -1.26660551188902        0.01783251210898
N            1.41596628386662       -1.98862635500283        0.01933825654045
C            0.38332335422943       -1.12070078262509        0.01075741821647
C            0.87861528159377        0.17340216645692        0.00050117288430
C            0.05753752481047        1.32524456046917        0.00798017003705
O            0.42162306842025        2.50185171846939       -0.06871950746323
N           -1.34231877066933        1.06025609270207        0.13669812394232
C           -2.20321033667929        2.32865954037773        0.04588195102024
C           -1.87292010799009       -0.23190008725279        0.03934329275145
O           -3.05590852090404       -0.48442145553130       -0.04126033903774
N           -0.96213866402335       -1.34375899803542        0.00103567728927
C           -1.43225133060545       -2.71579244585283       -0.02494947574220
H            3.67618105308757        1.26131354940605        1.00860095890047
H            3.96230858581793        1.04916772235857       -0.73315390160641
H            2.62789441421400        2.08729832256341       -0.15319555291043
H            3.57818182416433       -1.65799168200551        0.00318022940388
H           -2.06224551297135        3.50504222126865        0.55029379323019
H           -2.14981372232583        2.75118503236774       -0.95348027578243
H           -3.19815190994313        1.94391928703574        0.24903213429056
H           -1.10615480016968       -3.25318080956732        0.87252457244160
H           -1.05458290567520       -3.25360743266207       -0.90245821464610
H           -2.51867795801380       -2.70316069020326       -0.06079282329995
H            1.39559988659882       -2.99624288124842        0.02960749207571
25
 energy: 34.190329798518 xtb: 6.6.1 (8d0f1dd)
C            3.18705802757621        1.17656732465473        0.02472173635365
N            2.27046365996931        0.08282379578914       -0.01409997077317
C            2.59479577771635       -1.26219408972496        0.01407850485814
N            1.42119104903535       -1.98571781614863        0.01792350811196
C            0.38431384756127       -1.12207751684663        0.01616394587174
C            0.87735516442628        0.17342335618527        0.00813584641354
C            0.05258189305456        1.32294228796611        0.01354807740848
O            0.41506888829966        2.49862145436999       -0.07945387724755
N           -1.34604918202607        1.05135662952683        0.14469125833066
C           -2.19557403669024        2.32064346224870        0.03456056952972
C           -1.87170104247136       -0.24299023736672        0.03946121584202
O           -3.05432819342909       -0.49870689316702       -0.04025701422776
N           -0.95947904586353       -1.35047802508698        0.00618301539471
C           -1.42637088491223       -2.72422857079652       -0.02362802289229
H            3.67318098284308        1.26740046119451        1.00242793896148
H            3.95785492556418        1.04898390139362       -0.73894151187129
H            2.62328441255020        2.08757377410004       -0.16191352796848
H            3.58146695956111       -1.66122970876234        0.00385360532994
H           -2.12322668324577        3.57899707637156        0.56677991949956
H           -2.05404532778027        2.77873028420867       -0.93470061093489
H           -3.20162442152630        1.94581959500391        0.16935807122626
H           -1.10164340246615       -3.26048953129230        0.87501392238691
H           -1.04409504373522       -3.26251096047840       -0.89891609994526
H           -2.51296719318792       -2.71525754360152       -0.06314919099613
H            1.40550271318290       -2.99350610503194        0.02488585846694
25
 energy: 47.352473359480 xtb: 6.6.1 (8d0f1dd)
C            3.18217806319434        1.17694549108927        0.02054681664321
N            2.26971864326199        0.08227693169952       -0.01409995454367
C            2.59943139620712       -1.26408491503035        0.01186463912517
N            1.42473330591683       -1.98552601371399        0.01535816174120
C            0.38503273978268       -1.12511175214637        0.01628350757487
C            0.87541616799807        0.17017200406294        0.00943784161328
C            0.04905692644398        1.31554507748108        0.01314771337404
O            0.41369460070523        2.49033031718166       -0.08202803129340
N           -1.34904521601527        1.03797031483957        0.13422131423053
C           -2.18562643492309        2.29543724641843        0.00857780509841
C           -1.87004901141734       -0.25804095697295        0.03436425637486
O           -3.05275770558436       -0.51409443868309       -0.03906080190330
N           -0.95738541057943       -1.35950223856962        0.00739314166456
C           -1.41928599143339       -2.73409587858464       -0.02054882669321
H            3.66599146796964        1.26818387037052        0.99857002052231
H            3.95276412193886        1.05053985800597       -0.74317009151390
H            2.61548076165237        2.08589820549393       -0.16680749166482
H            3.58537832394221       -1.66820482056722        0.00507527064894
H           -2.18550168005816        3.68168668692221        0.57239810062265
H           -1.94211254130988        2.80307698955548       -0.91060913352741
H           -3.20447392374899        1.94185882115760        0.08458391419219
H           -1.09169733562366       -3.26401450150533        0.88061217662830
H           -1.03144132008420       -3.27302834454424       -0.89275215674192
H           -2.50634779814874       -2.73121932799193       -0.06107990674305
H            1.40658515523227       -2.99220497353521        0.01678930524473
25
 energy: 71.715608303913 xtb: 6.6.1 (8d0f1dd)
C            3.17844364944773        1.17519521258820        0.01543368877221
N            2.27067876767946        0.07506407048445       -0.01028314714703
C            2.60198842190541       -1.26569724566768        0.01083099488735
N            1.43317787886075       -1.99180215041750        0.01750771698798
C            0.38797252248239       -1.13449983044604        0.01971753453403
C            0.87562889690743        0.16120002513087        0.01331369479528
C            0.04545490124078        1.30370802181137        0.00652556420333
O            0.41821799950439        2.47249444260055       -0.07916363088037
N           -1.34857743784322        1.01017107919494        0.10114437170719
C           -2.17258467351893        2.20092806319839       -0.04063124565042
C           -1.86493457922057       -0.28584893478063        0.03001494697986
O           -3.04773831057901       -0.53570138346719       -0.03361922551059
N           -0.95034580478816       -1.37603679535697        0.01113819505400
C           -1.41203022112898       -2.74888550788262       -0.01949898439144
H            3.66260612002924        1.26936960922154        0.99159584932282
H            3.94660261334137        1.04925405470876       -0.74944821491830
H            2.60752495260319        2.08229556030461       -0.17197130793101
H            3.58944399103797       -1.67390927028671        0.00693727099726
H           -2.27431696443046        3.92834291249533        0.58278732042239
H           -1.84625371184869        2.82158559809755       -0.85596291406343
H           -3.21468193739930        1.92128243450811        0.01037511489145
H           -1.08563803189304       -3.27409473697087        0.88376278878031
H           -1.01967749001743       -3.28479055528521       -0.89048316906782
H           -2.49968486232884       -2.74577678767270       -0.06298663111530
H            1.40450903537127       -2.99899585371985        0.01899400193135
25
 energy: 82.334093611760 xtb: 6.6.1 (8d0f1dd)
C            3.17592004298332        1.17311224800568        0.00749044795413
N            2.27084917153473        0.06868138810287       -0.00798176104585
C            2.60408005472008       -1.26730612297117        0.01096764950629
N            1.43970171932092       -1.99752667765032        0.01967703281590
C            0.39023538996490       -1.14204211937395        0.02082236970229
C            0.87670259522721        0.15417888846993        0.01518038213846
C            0.04320336294837        1.29429164267945        0.00224958433244
O            0.42224864173335        2.46057718346128       -0.06952068830046
N           -1.34456663641584        0.98387500404159        0.07496434941452
C           -2.16421687254613        2.12567552541789       -0.06181465519283
C           -1.85902650554268       -0.30911304593448        0.02280338961333
O           -3.04523659798930       -0.54957338677008       -0.02437102377079
N           -0.94323236014756       -1.39162223428497        0.01266032829904
C           -1.40402642971919       -2.76279586730511       -0.01666009479083
H            3.66185300003507        1.26705550589881        0.98168056899909
H            3.94195384400946        1.04708710803318       -0.75825079653721
H            2.60034572620841        2.07850979976746       -0.17827669696570
H            3.59231781785041       -1.68097806526254        0.01006729157265
H           -2.33165023058241        4.11937808813838        0.57173713326189
H           -1.77902562925680        2.83095248256888       -0.75641761081248
H           -3.21967668541919        1.90403509507983       -0.05287789960486
H           -1.07839670448784       -3.28216486895653        0.88965749571192
H           -1.00560563483725       -3.29502539793140       -0.88615404388898
H           -2.49226573527371       -2.76118188781698       -0.06434759537205
H            1.39934002276284       -3.00472186311884        0.02159306652225
25
 energy: 86.957608057662 xtb: 6.6.1 (8d0f1dd)
C            3.17398126392842        1.17084578588815        0.00453007889315
N            2.27197068068678        0.06357003821355       -0.00510977541834
C            2.60694010909771       -1.27083775622494        0.01253818346747
N            1.44449906123782       -2.00199290722605        0.02085379862829
C            0.39279964889310       -1.14739123234605        0.02182272384532
C            0.87861701534513        0.15108538897042        0.01754509723720
C            0.04700731818192        1.28728916291420       -0.00172846878534
O            0.42902483598591        2.45606587439507       -0.05721687312341
N           -1.33823725306181        0.96879205256641        0.04731917570547
C           -2.14166436996516        2.08652154739094       -0.09406606123939
C           -1.85364364487814       -0.32468766381161        0.01421144286571
O           -3.04420753622260       -0.55726278268476       -0.01634391615201
N           -0.93910856166949       -1.40171779145338        0.01406673565937
C           -1.40102310256038       -2.77120296945475       -0.01285385661717
H            3.65849115125412        1.26250231385897        0.97954760942767
H            3.93800531619248        1.04365337721821       -0.76385839164693
H            2.59333173730016        2.07379349042874       -0.18385860985558
H            3.59560765430554       -1.68846898762288        0.01515872389462
H           -2.33551961030428        4.27068566784685        0.53477251965330
H           -1.69872029131446        2.86082183960178       -0.67777516532615
H           -3.19374328222212        1.90190762175631       -0.11693544094557
H           -1.08122109660893       -3.28645281173454        0.89636191608037
H           -0.99504629515887       -3.29992710609301       -0.88060905703686
H           -2.48835156610559       -2.77500363797199       -0.06671784190541
H            1.39205908318829       -3.00891191271798        0.02223833905598
25