25
 energy: -43.831856238833 gnorm: 0.117844528440 xtb: 6.6.1 (8d0f1dd)
C            3.23268986051152        1.17112969292587        0.08006980854531
N            2.29806523892271        0.08134735866821        0.03712303998723
C            2.58506025032657       -1.21974926338447        0.03052848944549
N            1.43576943076730       -1.93917143607427        0.00287076324925
C            0.39153286331271       -1.06462612441595       -0.00749681806478
C            0.92903148291306        0.21178699137844        0.01490377468557
C            0.09382165593982        1.39386414110438       -0.00528859399396
O            0.48894970270807        2.54618411916775       -0.01013363583049
N           -1.26416927598003        1.04880332700632       -0.03272640413541
C           -2.19459400176125        2.17954675854180       -0.03859937740492
C           -1.82430814196775       -0.20944377735643       -0.05470638157576
O           -3.00991798009049       -0.38963146588364       -0.07385031282966
N           -0.93034894627106       -1.30937399987640       -0.03686160659663
C           -1.46650403092173       -2.65511674122540       -0.05725277117066
H            3.70747903848709        1.22265731624098        1.06127834440105
H            4.00295544014674        1.03679681749484       -0.67883046507810
H            2.69099266200644        2.09802465546701       -0.09791706102351
H            3.57025856254498       -1.64163347387988        0.04347134492479
H           -1.66334726272402        3.17099013948545        0.03551403694452
H           -2.76193781951144        2.17712768858905       -0.93852490922339
H           -2.91478346118953        2.05329111050051        0.76798559412511
H           -1.16563224142881       -3.20213316432614        0.83674080180334
H           -1.13770361783697       -3.18560893154943       -0.95160870581818
H           -2.55243462510236       -2.57091374627273       -0.07381312652412
H            1.37721808107688       -2.94787188496921       -0.00881322658574
25
 energy: -43.836969828166 gnorm: 0.042168770718 xtb: 6.6.1 (8d0f1dd)
C            3.24004110628073        1.17972167242692        0.08232445007536
N            2.30662188368527        0.09709194644807        0.03523891398773
C            2.59959118113483       -1.23512411589742        0.03071065397825
N            1.42481676888197       -1.94090945059015        0.00258557926618
C            0.39544496580678       -1.05793112200945       -0.00756362795507
C            0.92651165875578        0.22252931841948        0.01338745823356
C            0.10274672018280        1.39080348646210       -0.00724962051407
O            0.49361425153737        2.56062150600282       -0.01129102061455
N           -1.26840881516015        1.04876204391706       -0.03144435388083
C           -2.20980526057564        2.16245979296457       -0.04252135928847
C           -1.82816899421336       -0.20083560317714       -0.05012021391685
O           -3.02501071067320       -0.38635897552277       -0.07467048977747
N           -0.93772826283719       -1.30121490503230       -0.03652279525854
C           -1.46909925065410       -2.64616828143432       -0.05770573460014
H            3.71820288003095        1.23028704419914        1.06444565726143
H            4.00830182733599        1.04528205110430       -0.68080013530789
H            2.69033995842526        2.10201978281603       -0.09531045719997
H            3.57726383385536       -1.66159967999708        0.04390066008199
H           -1.64323988037564        3.10165042877803        0.04755847062463
H           -2.77376908425997        2.16992461861872       -0.96726014999405
H           -2.91190620864314        2.05844493230506        0.78454008205488
H           -1.16396821781414       -3.19563035138104        0.83540344158292
H           -1.13645972740242       -3.17944681315459       -0.95097714155500
H           -2.55490217549476       -2.56319680536984       -0.07373834950821
H            1.35711241706905       -2.94490641353953       -0.00885731551949
25
 energy: -43.838018104500 gnorm: 0.017368372417 xtb: 6.6.1 (8d0f1dd)
C            3.23425720854093        1.17763820842958        0.08089842274847
N            2.30219703362847        0.10303541631101        0.03261708777888
C            2.60572751829879       -1.24045183422514        0.03156555557798
N            1.42418609981955       -1.94554319494865        0.00316873293756
C            0.39877400009667       -1.06470272012952       -0.00791659232836
C            0.91832178893819        0.22087140359393        0.01298208364834
C            0.10966507368655        1.38213809083694       -0.00534694097660
O            0.49781848231561        2.55815599758682       -0.00599358248647
N           -1.26962710875537        1.05401708713583       -0.02904683019711
C           -2.20149334038139        2.18085340782864       -0.03625252540677
C           -1.82161150970769       -0.19690013852576       -0.05200308586352
O           -3.02120359306023       -0.38855021245444       -0.07629014282059
N           -0.93975441861131       -1.30520489535659       -0.03795328977906
C           -1.46680981775622       -2.65221599389658       -0.05746489688663
H            3.70844652705323        1.22445482360445        1.06522596723534
H            4.00364377779657        1.03586257418887       -0.68027941222561
H            2.68620820881935        2.09955439368033       -0.10060746086041
H            3.58224219106612       -1.65296532847886        0.04357761931070
H           -1.67396851730664        3.13615958624263        0.04218651332077
H           -2.76803883475005        2.18085729209335       -0.96327116819608
H           -2.90992384794537        2.06554587128379        0.78076323751650
H           -1.16252506228036       -3.20437114365418        0.83590355729838
H           -1.13380042152623       -3.18964510575110       -0.94950585246418
H           -2.55235387088063       -2.57404470298476       -0.07430782746020
H            1.36776529777989       -2.94827277505391       -0.00858656716500
25
 energy: -43.838250831076 gnorm: 0.009450956765 xtb: 6.6.1 (8d0f1dd)
C            3.23695865319116        1.17618335707485        0.08274544038164
N            2.30005662616311        0.10482154560952        0.03345028496260
C            2.60237762066752       -1.23775580942586        0.03216980917000
N            1.42250371480192       -1.94221564100266        0.00337991206341
C            0.39846533871130       -1.06488454461790       -0.00686982528553
C            0.91592728702390        0.22172304061042        0.01363129962004
C            0.10698851233927        1.37920123793511       -0.00904675036477
O            0.48507767547250        2.55615698920102       -0.01496348450799
N           -1.27254474004337        1.04946358528793       -0.03127348195113
C           -2.19843248352324        2.17723810766018       -0.03509566721170
C           -1.82101597556244       -0.20027682920705       -0.05157186027100
O           -3.01871425323047       -0.39536777542642       -0.07295923761349
N           -0.93974532371803       -1.30545557376984       -0.03695771311272
C           -1.47039496787131       -2.64855670980845       -0.05745107922357
H            3.71662108881936        1.22323563253261        1.06409537696668
H            4.00606083271842        1.04026767545123       -0.67973644425207
H            2.69452425472123        2.10217215341639       -0.09287810078391
H            3.57834534588678       -1.64679595681367        0.04289765261262
H           -1.65430044241068        3.12937973395679        0.03931494006443
H           -2.76824680396580        2.17357281306285       -0.95720432389054
H           -2.91123699660360        2.05414875880872        0.77703188504883
H           -1.16721902771919       -3.19975437882130        0.83648089817095
H           -1.14048301757331       -3.18176468133206       -0.95275229476992
H           -2.55555510465939       -2.56281763543161       -0.07307025979334
H            1.37212505124279       -2.94564298759413       -0.00930437377320
25
 energy: -43.838315497402 gnorm: 0.005850071249 xtb: 6.6.1 (8d0f1dd)
C            3.23589123029628        1.17423924376739        0.08011008433422
N            2.30079461512150        0.10069397819388        0.03329776420918
C            2.59954473771436       -1.24095807186724        0.03308637692242
N            1.41919708985357       -1.94198112059426        0.00361721513220
C            0.39727128897172       -1.06371168144415       -0.00704211791657
C            0.91739878249610        0.22173408167700        0.01500220447387
C            0.11003144574438        1.38172335866739       -0.00391070065348
O            0.48916259666122        2.55670676855037       -0.00562555919761
N           -1.27170457467321        1.05235645686743       -0.03070395132796
C           -2.20161106804296        2.17637585292288       -0.03660274795213
C           -1.82092899757169       -0.19676809946412       -0.05307754671253
O           -3.01833185060067       -0.38912613128709       -0.07729076072925
N           -0.94034583537235       -1.30274034950985       -0.03767230599754
C           -1.46639441652252       -2.64822578843420       -0.05760920782285
H            3.71259145679834        1.22937588209053        1.06252337276097
H            4.00668864132181        1.03992634800564       -0.68092709689341
H            2.68952267188459        2.09765674837930       -0.10106262985619
H            3.57536869842925       -1.65354149921041        0.04367632900933
H           -1.65429309187647        3.12700440693183        0.04395739082181
H           -2.77019772553465        2.17472598152983       -0.95895579172524
H           -2.91476738284271        2.05664465585078        0.77644872485885
H           -1.16072613145741       -3.19682618622087        0.83667955156349
H           -1.13136374738856       -3.18220734668225       -0.95029374908209
H           -2.55216125580360       -2.57070374603839       -0.07493363756968
H            1.36750568727211       -2.94609763532475       -0.00862860839344
25
 energy: -43.838347188293 gnorm: 0.004269687237 xtb: 6.6.1 (8d0f1dd)
C            3.23587932094826        1.17537828725277        0.08319825956194
N            2.30260555339771        0.10069438442057        0.03249728343460
C            2.60201250461111       -1.24068170131439        0.03119439899395
N            1.42165894906202       -1.94191268663671        0.00165061728154
C            0.39870397677696       -1.06465064494376       -0.00829632269314
C            0.91882797111482        0.22158937740285        0.01280470065937
C            0.11224725177318        1.38232835049831       -0.00796480854907
O            0.49185648438273        2.55713433373077       -0.01211680454356
N           -1.27123894246552        1.05266539108793       -0.03144192308039
C           -2.20302508960792        2.17577983496797       -0.03837643987816
C           -1.82046298978921       -0.19698376567509       -0.05018216013690
O           -3.01832539278613       -0.38921161456190       -0.07256903601871
N           -0.93971501770203       -1.30357624312800       -0.03707124169063
C           -1.46839299849704       -2.64910083231883       -0.05720913431969
H            3.71201898575474        1.22543836937161        1.06636367325071
H            4.00611940084775        1.04195457613519       -0.67854555782237
H            2.68915998379765        2.09991042317037       -0.09466144422059
H            3.57923967763524       -1.65247232621356        0.04223670812665
H           -1.66140978929585        3.12811711482101        0.04054027732327
H           -2.77274933617974        2.17408768757990       -0.96045806758060
H           -2.91142304888320        2.06133266531342        0.77992519901118
H           -1.16435393330874       -3.20137268739529        0.83543182447814
H           -1.13804001284770       -3.18505658545654       -0.95051415169960
H           -2.55406896004813       -2.56872723952864       -0.07262258760143
H            1.37101831618749       -2.94638836122330       -0.00975066003015
25
 energy: -43.838361705123 gnorm: 0.003052582744 xtb: 6.6.1 (8d0f1dd)
C            3.23627185441519        1.17584244492049        0.08060609973791
N            2.30176741542494        0.10233978117562        0.03320790020529
C            2.60186490882268       -1.23940249787939        0.03347827054598
N            1.42167608309064       -1.94134634790092        0.00445436573382
C            0.39834332461380       -1.06492790324453       -0.00669872264613
C            0.91731987536318        0.22214809359412        0.01449352734163
C            0.11068557023968        1.38150659079357       -0.00597918795513
O            0.48783842723727        2.55743615398336       -0.00919744145708
N           -1.27292127187638        1.05091092456667       -0.03095849696618
C           -2.20112645108173        2.17627221132489       -0.03655636461063
C           -1.82164011119534       -0.19885809806333       -0.05248049939078
O           -3.01958229917927       -0.39270516705498       -0.07639832029575
N           -0.94021673763020       -1.30455672761509       -0.03733927775123
C           -1.46892441480007       -2.64954614750194       -0.05801923475418
H            3.71512814942182        1.22534292151750        1.06246434088007
H            4.00475819315475        1.03826821479052       -0.68223111166033
H            2.69205607786289        2.10158565124160       -0.09789230961410
H            3.57941373182631       -1.64942557801017        0.04419481343240
H           -1.65888272316887        3.12824496849250        0.04421274741248
H           -2.76772688534081        2.17730088848017       -0.96047453653824
H           -2.91188092367527        2.05858471685370        0.77891922023963
H           -1.16646605498971       -3.20114151205692        0.83577817414528
H           -1.13721019539939       -3.18469959466529       -0.95145371503026
H           -2.55445526905742       -2.56708056034371       -0.07518354834425
H            1.37205259079977       -2.94581732004178       -0.00688409040386
25
 energy: -43.838372205788 gnorm: 0.002311903808 xtb: 6.6.1 (8d0f1dd)
C            3.23582273770838        1.17499881306254        0.08224432918086
N            2.30129206338470        0.10148083062039        0.03289621582435
C            2.60041244502142       -1.24050929034532        0.03203732883451
N            1.42002165386811       -1.94161375135656        0.00200371216759
C            0.39765527341021       -1.06460602347145       -0.00771428783550
C            0.91689960921449        0.22215489861319        0.01378551752221
C            0.11112434966519        1.38152717745257       -0.00648183331098
O            0.48793946388469        2.55734523564154       -0.00977960261943
N           -1.27283365581806        1.05127639691634       -0.03088750785138
C           -2.20057405367376        2.17653134495096       -0.03678063386456
C           -1.82164280553847       -0.19804992826916       -0.05181225563938
O           -3.01944202024733       -0.39165417704335       -0.07446411587958
N           -0.94057429748021       -1.30367069840886       -0.03733028016430
C           -1.46748975945629       -2.64880399962942       -0.05691158437841
H            3.71247612667843        1.22596255716439        1.06500982603766
H            4.00649849628466        1.03963627364920       -0.67877611406398
H            2.69070329476410        2.09972309526899       -0.09715626866543
H            3.57728920580423       -1.65114691145730        0.04220714381772
H           -1.65676040261106        3.12873384621544        0.04057420731402
H           -2.76877434403303        2.17476232328371       -0.95935892562342
H           -2.91199243732732        2.05762019572061        0.77788357612216
H           -1.16181603233088       -3.19824141682009        0.83710248851528
H           -1.13462805246916       -3.18262109082662       -0.95067830595657
H           -2.55316636561097       -2.56850683138455       -0.07284596625692
H            1.36970237178636       -2.94605276219052       -0.01070406097018
25
 energy: -43.838378945032 gnorm: 0.001468992492 xtb: 6.6.1 (8d0f1dd)
C            3.23605834827101        1.17523278147901        0.08146751375987
N            2.30227437282502        0.10082891914721        0.03288987448542
C            2.60114933974841       -1.24084070165147        0.03284963646308
N            1.42091236390816       -1.94182939657776        0.00357973141219
C            0.39832576371379       -1.06489886698677       -0.00724746253182
C            0.91793311370652        0.22182511814655        0.01391948685176
C            0.11248144630414        1.38186658051569       -0.00674624602988
O            0.49007961457552        2.55714312385013       -0.01042987022434
N           -1.27198635267580        1.05193019460227       -0.03103687111269
C           -2.20184371468879        2.17590082212393       -0.03689261392710
C           -1.82064140173448       -0.19738409412715       -0.05156851855291
O           -3.01835090772898       -0.39029621291022       -0.07457897746927
N           -0.93998973727644       -1.30356903189948       -0.03729902811650
C           -1.46835283527758       -2.64866721646952       -0.05798248683211
H            3.71345051713526        1.22697089981631        1.06384898084720
H            4.00603093104496        1.04134404707059       -0.68053599840554
H            2.68955559638695        2.09936681693145       -0.09713215994745
H            3.57819210571929       -1.65183684799490        0.04354438564486
H           -1.65890833357931        3.12834648510962        0.04190671466144
H           -2.77123858033346        2.17428992571392       -0.95886810384063
H           -2.91258262633410        2.05806291569985        0.77864752473391
H           -1.16456957259727       -3.19991905996885        0.83541741569503
H           -1.13644229511106       -3.18337036788753       -0.95148673447998
H           -2.55398082505044       -2.56785827084751       -0.07453269595730
H            1.37058653392715       -2.94636245552870       -0.00767089487091
25
 energy: -43.838371266500 gnorm: 0.002097430625 xtb: 6.6.1 (8d0f1dd)
C            3.23623563223368        1.17546652967275        0.08208068525590
N            2.30188603432820        0.10174636893279        0.03281124129204
C            2.60124026620925       -1.23967029967651        0.03180319764279
N            1.42136834836524       -1.94112272984442        0.00202238969698
C            0.39808637195874       -1.06480496468638       -0.00774613862351
C            0.91725130749466        0.22233124713790        0.01394071751145
C            0.11130922533191        1.38197399979001       -0.00590550923496
O            0.48795977945060        2.55762116019517       -0.00887704793557
N           -1.27321079793618        1.05133083152216       -0.03116101875004
C           -2.20170356117321        2.17641791058056       -0.03780086737042
C           -1.82164388343698       -0.19828925941246       -0.05205141088446
O           -3.01942542035936       -0.39174669455690       -0.07560065218434
N           -0.94029807083045       -1.30421670662978       -0.03729967861552
C           -1.46821893683945       -2.64982075295192       -0.05664457551582
H            3.71380424646257        1.22462773408468        1.06456805703674
H            4.00563602496237        1.03900249896493       -0.68002249082489
H            2.69200301815609        2.10114952052416       -0.09622573965784
H            3.57881323068948       -1.65001949591175        0.04209372719109
H           -1.65787958996821        3.12774033024119        0.04326396275602
H           -2.76883192257805        2.17737160319221       -0.96144476857374
H           -2.91267767865769        2.06061765546023        0.77785156371165
H           -1.16441821686847       -3.20073193971577        0.83702683279457
H           -1.13682315368118       -3.18584357282448       -0.94959120430946
H           -2.55386835075122       -2.56919485157525       -0.07278805639295
H            1.37154896231608       -2.94566001515643       -0.01024061375937
25
 energy: -43.828567707084 gnorm: 0.102757393660 xtb: 6.6.1 (8d0f1dd)
C            3.22806312719463        1.17555967816359        0.07570263744134
N            2.29716508825989        0.08694730837068        0.03420682442862
C            2.58971630151803       -1.22531105668799        0.03103456380597
N            1.43333365518541       -1.94405775087530        0.00483232177822
C            0.39231656282213       -1.07038064378493       -0.00700379343116
C            0.92304699086777        0.20995488132454        0.01267687753906
C            0.09308339297879        1.38276135726178       -0.00673905678235
O            0.48113272995523        2.54431273040855       -0.01697487234878
N           -1.27987782143300        1.03753455072959       -0.03159642618465
C           -2.17124975404047        2.20399724905211       -0.02579222933228
C           -1.83186055177396       -0.21932740378461       -0.05910243974105
O           -3.01916817508377       -0.40120106937734       -0.07754082694517
N           -0.93457177504825       -1.31659405976684       -0.03688482790398
C           -1.46309247211033       -2.66373629817620       -0.05415957576329
H            3.70242934768310        1.23047396799028        1.05753664550750
H            3.99797003626149        1.03926929020146       -0.68406543190128
H            2.68292526379477        2.09829145187572       -0.10457614722591
H            3.57401376244144       -1.64629047481843        0.04476242450951
H           -1.65393960556264        3.23956797841233        0.10461487403689
H           -2.69985047670866        2.26052946056301       -0.93468920399098
H           -2.95301828341649        2.02875219417663        0.72158452391518
H           -1.16059992126311       -3.20832328954448        0.84111778592562
H           -1.12975036524101       -3.19603159699128       -0.94629284974627
H           -2.54934283192044       -2.58522096017423       -0.07303126342450
H            1.37422758456342       -2.95253066848184       -0.00347135907142
25
 energy: -43.833919232659 gnorm: 0.039784535977 xtb: 6.6.1 (8d0f1dd)
C            3.23540153319028        1.18140781342591        0.07766560213199
N            2.30465012846964        0.09808342447550        0.03253770426008
C            2.59994289711174       -1.23791661214593        0.03137788503573
N            1.42289102999273       -1.94279418258586        0.00458688749467
C            0.39465928973847       -1.06129163325837       -0.00657251150262
C            0.92241125277171        0.22096059004640        0.01165830187339
C            0.10365619553078        1.38499379606466       -0.00918774515999
O            0.48998368916624        2.55683276902310       -0.01836568032141
N           -1.27769137270332        1.04774354877429       -0.02929083193588
C           -2.19958802781462        2.18011044377142       -0.03557259069355
C           -1.83251571785265       -0.20268320635337       -0.05084634697790
O           -3.02931162852041       -0.39165470038459       -0.07813147004714
N           -0.94079462486083       -1.30299188901727       -0.03578373490930
C           -1.46614951039076       -2.65075427627281       -0.05494974383697
H            3.71323126831834        1.23657916775220        1.05993325997412
H            4.00404287251204        1.04704820030301       -0.68531455479308
H            2.68329655454136        2.10157726990199       -0.10232270829512
H            3.57746958607023       -1.66320469251831        0.04510176233421
H           -1.63071195387268        3.12406982636869        0.12724522404890
H           -2.71703447635358        2.24876074607827       -0.98131236325069
H           -2.94928258927702        2.04187311218694        0.74691302367506
H           -1.15978146707427       -3.19859065394530        0.83921790453958
H           -1.12953288466708       -3.18660925073428       -0.94573848747348
H           -2.55240318828723       -2.57549783538448       -0.07290796133385
H            1.35626295418490       -2.94710494950503       -0.00379164974190
25
 energy: -43.835523278309 gnorm: 0.015845942608 xtb: 6.6.1 (8d0f1dd)
C            3.22965539286942        1.17947187362851        0.07664184400467
N            2.30103071142402        0.09942301469038        0.03033520788370
C            2.60395910251093       -1.24284847257832        0.03178358194645
N            1.42320169019926       -1.94796204002275        0.00477248653667
C            0.39640094842231       -1.06863422122513       -0.00789477876192
C            0.91668473616597        0.21697781165392        0.01084013994874
C            0.10825415489003        1.37784304781948       -0.00754330437042
O            0.49271259280870        2.55272461075002       -0.01163834857094
N           -1.27598730862961        1.05448846590093       -0.02545643649780
C           -2.18655822210921        2.20189821891325       -0.02341474929389
C           -1.82794561076180       -0.19939835674273       -0.05378276019619
O           -3.02630974017399       -0.39521558954136       -0.07965466092247
N           -0.94245504404787       -1.30764418538161       -0.03833679315690
C           -1.46382261442421       -2.65835750797101       -0.05489420754833
H            3.70475393127110        1.23326791816016        1.06038941790471
H            3.99919104679917        1.04160457345285       -0.68503610844762
H            2.67786438621713        2.09951308170422       -0.10595190256192
H            3.58153999785020       -1.65771810599567        0.04481932522476
H           -1.67274658142355        3.16754041623693        0.11101764875540
H           -2.70576325529319        2.26102821401913       -0.97223818647555
H           -2.94186864187794        2.04608261797484        0.74276765528994
H           -1.15775324491976       -3.20774291348820        0.83992440667429
H           -1.12626631208422       -3.19805069140820       -0.94414870658818
H           -2.54986622262697       -2.58771722602180       -0.07365255448644
H            1.36519591686805       -2.95162772846105       -0.00349904119591
25
 energy: -43.835656737831 gnorm: 0.010536953546 xtb: 6.6.1 (8d0f1dd)
C            3.23145640630511        1.17934719688387        0.07765096826119
N            2.29808946539326        0.10341048481023        0.03083392432104
C            2.60216032311149       -1.23882811148560        0.03310446199982
N            1.42274745792505       -1.94496759936123        0.00610691960471
C            0.39617752400332       -1.06976921083201       -0.00636838944273
C            0.91272634034524        0.21763906626505        0.01109859070226
C            0.10210298081376        1.37337427090468       -0.01227353279014
O            0.47576777491967        2.55092006637152       -0.02281033944641
N           -1.28120108239199        1.04828725022402       -0.02926949497320
C           -2.17985819235418        2.20357935552749       -0.01929554813705
C           -1.82980935641700       -0.20546075588792       -0.05575179239380
O           -3.02641687909390       -0.40702480102688       -0.07770123215488
N           -0.94290812395943       -1.31021574932263       -0.03739506503114
C           -1.46702229431779       -2.65726348403937       -0.05425137178458
H            3.71001260400992        1.23155424587920        1.05957600098260
H            4.00092577597686        1.04198935467546       -0.68435181213096
H            2.68642701802356        2.10343964210636       -0.10167024386033
H            3.57989120941757       -1.64855890799586        0.04466844631402
H           -1.64174854713675        3.16791253954800        0.11589277442965
H           -2.70367632962945        2.26149417590656       -0.96296029979962
H           -2.94684430076143        2.03318129913869        0.73209665095204
H           -1.16221302593279       -3.20573525235300        0.84130223664805
H           -1.13242368687894       -3.19229165485444       -0.94705340451529
H           -2.55251348859886       -2.57795563103488       -0.07203646236325
H            1.37125223715170       -2.94911096398051       -0.00299281029716
25
 energy: -43.835850753459 gnorm: 0.005122097555 xtb: 6.6.1 (8d0f1dd)
C            3.23212495308081        1.17698182011365        0.07669910089430
N            2.30018325565973        0.10008494183569        0.03106155624836
C            2.60115419759835       -1.24295840325361        0.03274936885133
N            1.41993045725207       -1.94540300708889        0.00493310497540
C            0.39635205833283       -1.06806913613513       -0.00597344832472
C            0.91531160890538        0.21812616026933        0.01348443591802
C            0.10736473453129        1.37615739482446       -0.00627318349700
O            0.48492050457159        2.55226557442364       -0.01367586266981
N           -1.27831727659042        1.05213386564465       -0.02745632247884
C           -2.18624486260273        2.20068946375956       -0.02412792269321
C           -1.82777615843025       -0.20023869936048       -0.05332125649024
O           -3.02453111513789       -0.39840482743969       -0.07862560101574
N           -0.94262110946773       -1.30641449349745       -0.03664337526189
C           -1.46414534604916       -2.65469174746020       -0.05485552290934
H            3.70908411987223        1.23378794414481        1.05916425090754
H            4.00198639559279        1.04218978897166       -0.68538671128962
H            2.68272719502324        2.09838923847302       -0.10483635428567
H            3.57786733390871       -1.65631931458322        0.04360529129666
H           -1.65323893333754        3.16647189807047        0.11236191682408
H           -2.71291201858642        2.25137023990818       -0.96702940895085