25
 energy: 0.000000000000 xtb: 6.6.1 (8d0f1dd)
C            3.23720163006194        1.16630919979326        0.08434469647475
N            2.29877817382611        0.07527477071623        0.03981603040599
C            2.58028210190900       -1.21425402444508        0.03006176031096
N            1.43813958087363       -1.93419271955128        0.00098261760884
C            0.39035688448383       -1.05887472636071       -0.00790371836672
C            0.93510056364412        0.21347819449412        0.01709077491437
C            0.09450143893243        1.40504303904423       -0.00410947031874
O            0.49712751527797        2.54126714362870       -0.00342325688240
N           -1.25076640035757        1.06271879480407       -0.03085478223738
C           -2.21907211982101        2.15522099834493       -0.05001256985998
C           -1.81739487048744       -0.20012725993278       -0.04692818574614
O           -2.99983886758376       -0.37846417018721       -0.07008878229737
N           -0.92618586207120       -1.30210215599479       -0.03682761578324
C           -1.46982264913417       -2.64643102187190       -0.06029820460571
H            3.71247264356769        1.21471455160235        1.06488849150277
H            4.00791497605742        1.03430808813993       -0.67357694370751
H            2.69910007168542        2.09770118228144       -0.09130154882931
H            3.56654120610678       -1.63682992603973        0.04233140067262
H           -1.67107961066214        3.09322851271934       -0.02552706933167
H           -2.82428953597071        2.09428624779827       -0.95318082946668
H           -2.87644029173232        2.07745725625962        0.81450067533302
H           -1.17061996399332       -3.19584890659852        0.83242232437030
H           -1.14560257411436       -3.17511610292205       -0.95688275822323
H           -2.55549792440841       -2.55659984320617       -0.07459039797972
H            1.38130855184625       -2.94313852034425       -0.01389874181052
25
 energy: -1.430724106215 xtb: 6.6.1 (8d0f1dd)
C            3.22367421109253        1.17891034790694        0.07158773896116
N            2.29622251889261        0.09065221635352        0.03165870833487
C            2.59608442762663       -1.23375073614646        0.03193295940164
N            1.43008472640553       -1.94991404440363        0.00750912453152
C            0.39242162959923       -1.07226051629775       -0.00680973365093
C            0.91947467277083        0.20870810642195        0.01128205049516
C            0.09295783851010        1.38102305013583       -0.00701029122476
O            0.48757304993419        2.54634215431270       -0.01130894010289
N           -1.26658029101212        1.04683001615441       -0.03278175771201
C           -2.17516601645454        2.19978018687981       -0.02813838679304
C           -1.82915859364065       -0.21582783438895       -0.05800908527427
O           -3.02424491878154       -0.40895897214083       -0.07982039888417
N           -0.93706180869974       -1.32072102110483       -0.03688911851510
C           -1.45938117186946       -2.67247951294507       -0.05087151682435
H            3.69821067108180        1.23669611422861        1.05428066630646
H            3.99388808939794        1.04125217922402       -0.68828644687860
H            2.67159368541981        2.09846138508213       -0.11421168598182
H            3.57734873079439       -1.65011736229271        0.04612976968091
H           -1.65967157506481        3.20164775455358        0.06386228113241
H           -2.71906820175596        2.23450690483880       -0.93449233263529
H           -2.95161485424836        2.02966775464116        0.72328496845356
H           -1.15441118103966       -3.21552551270927        0.84655450340726
H           -1.11888348032896       -3.20980107567945       -0.93901116403771
H           -2.54568098924060       -2.60180729352899       -0.07211205732138
H            1.37360349854700       -2.95428568692358       -0.00129595872134
25
 energy: 9.601271375854 xtb: 6.6.1 (8d0f1dd)
C            3.20060548696827        1.19003596294108        0.05028792340176
N            2.28675534026748        0.10215346088874        0.01755473905835
C            2.60820240169413       -1.25416884898492        0.03519174781045
N            1.41917953279530       -1.96531354368751        0.01700263736758
C            0.39275739456647       -1.09161997889028       -0.00367185739393
C            0.89736468676137        0.19845714995647        0.00177506424810
C            0.08985041557063        1.34434189221110       -0.01566167846446
O            0.46626859144439        2.53267565711662       -0.03045247512930
N           -1.29164728883562        1.03159909832734       -0.02957213060665
C           -2.12463957784819        2.25765136355673        0.00847249145133
C           -1.84315262711884       -0.23342352558871       -0.06160234202111
O           -3.04389658192794       -0.45293463321263       -0.09074162627369
N           -0.95089157626856       -1.34226204294293       -0.03406370405109
C           -1.44233679267053       -2.70683977627400       -0.03654816795952
H            3.67452198030921        1.26827949072792        1.03427904268737
H            3.97320252512533        1.05087127387613       -0.70899385323755
H            2.63310317704844        2.09726825143425       -0.14927202456083
H            3.58564933273100       -1.65822867076073        0.05142193633182
H           -1.63818953054607        3.33263411414419        0.22276073374712
H           -2.54646215479635        2.46882365303511       -0.94020830793949
H           -3.06650272215931        1.95315628140788        0.58371379945592
H           -1.13043135303659       -3.24018219850297        0.86810453286765
H           -1.07871565771708       -3.25691704728272       -0.91193696983394
H           -2.52993001198076       -2.66978731403144       -0.06822433555544
H            1.37154967756006       -2.96724146729279        0.01741872074679
25
 energy: 25.760101360321 xtb: 6.6.1 (8d0f1dd)
C            3.17505087267435        1.19714984782388        0.03055360918034
N            2.27417880854490        0.10286858174832        0.00533420074937
C            2.61077975386378       -1.26901820885728        0.03797235362692
N            1.41279280915368       -1.97859306075085        0.02485135926286
C            0.38999360390798       -1.11272444565620       -0.00071943582018
C            0.87852789791610        0.18410552244428       -0.00717603118323
C            0.07947844107680        1.31664127018071       -0.02826849980143
O            0.44059845030931        2.51481217988945       -0.05358416138870
N           -1.32050156479480        1.02366496830598       -0.01991475408421
C           -2.09798287481024        2.30048158545258        0.04696119183727
C           -1.85791647897121       -0.24992779688226       -0.05613370164600
O           -3.05664730902794       -0.49810494670558       -0.09709647635009
N           -0.96126947065837       -1.36162965224226       -0.03065276423944
C           -1.42446618340442       -2.73914293950592       -0.02514222362537
H            3.64675437109415        1.29750797266731        1.01508629647362
H            3.95178292638568        1.06083910949529       -0.72578687635534
H            2.59559947861430        2.09530529403728       -0.18162042333161
H            3.59022592706773       -1.66050633671637        0.05572084618040
H           -1.62670173941026        3.43191444466356        0.36926549431683
H           -2.36057924230762        2.69782335513116       -0.93391525960794
H           -3.14834122026578        1.91303064906712        0.43762403355067
H           -1.10754410215847       -3.26188772911769        0.88650040797785
H           -1.03778204908939       -3.29699707030453       -0.88875233230509
H           -2.51273488453508       -2.73735394836027       -0.06826040602393
H            1.37891844676105       -2.98123004363591        0.03418744875371
25
 energy: 39.128754132710 xtb: 6.6.1 (8d0f1dd)
C            3.15163125811629        1.19895596148248        0.01827401714969
N            2.26151402629392        0.09401942616126       -0.00174689469371
C            2.60470093994941       -1.27692574569830        0.03981786962689
N            1.41038685576307       -1.98778563539813        0.02915984627382
C            0.38449777676905       -1.13086012341016        0.00085161566620
C            0.86600838627826        0.16893762086287       -0.01358159077788
C            0.06655865431308        1.30155406556148       -0.04183844304357
O            0.41666194830710        2.49617771378991       -0.07635493439275
N           -1.34525119375981        1.02630536361464       -0.00561924527569
C           -2.09224443177102        2.32882247144643        0.07261483413907
C           -1.87053967632088       -0.26025366422475       -0.04345560472299
O           -3.06061321420500       -0.53375407818228       -0.10016982929771
N           -0.96770845175851       -1.37492405371296       -0.02860267057440
C           -1.40970570725890       -2.76367484067974       -0.02142541168130
H            3.61896594848266        1.31795201010713        1.00296246323186
H            3.93339026722486        1.06867003481539       -0.73352661634559
H            2.56429735672993        2.09130920336412       -0.20322105267865
H            3.58982392263072       -1.65804266291574        0.05863209787924
H           -1.63855322931643        3.51532207864093        0.45602902841289
H           -2.20353412653707        2.83161010235291       -0.87053232509610
H           -3.16806529710962        1.92343194013433        0.30052209995012
H           -1.09139672809920       -3.27844463897355        0.89530553836689
H           -1.00280079050066       -3.32297523610400       -0.87595426564791
H           -2.49714479370431       -2.79332171963058       -0.07595865190624
H            1.39133496741931       -2.99307699123188        0.04485202158510
25
 energy: 45.251933178669 xtb: 6.6.1 (8d0f1dd)
C            3.14081867609974        1.19664143384374        0.00842649657444
N            2.25475544992227        0.08297000910597       -0.00641666568427
C            2.59438304834829       -1.27234441783822        0.03560408144761
N            1.41435891917035       -1.98936316646917        0.02973287526083
C            0.37864778876831       -1.13915423519392        0.00220954830253
C            0.86340526213404        0.16027860677689       -0.01350885956735
C            0.05294010957185        1.30170866087728       -0.03917974653637
O            0.39697142732591        2.48761738609431       -0.08730564572240
N           -1.35775407743874        1.02820538939706        0.01562668606158
C           -2.11918270179939        2.31862082223712        0.08070522343827
C           -1.87922727570161       -0.26761380648307       -0.03280394532244
O           -3.05975519555588       -0.55226264064584       -0.09579775293146
N           -0.96751072862837       -1.38101179017935       -0.02491213273971
C           -1.40590382855029       -2.77238756090442       -0.01684413485578
H            3.60547212778384        1.32144046197464        0.99183262617405
H            3.92371770842699        1.06845110038145       -0.74140250712345
H            2.55279758995717        2.08745482433503       -0.21592790841452
H            3.58540121580235       -1.64906791067980        0.05213581474191
H           -1.67435532584013        3.55655645213014        0.53712563550164
H           -2.04755011659627        2.88502084660643       -0.82358377186650
H           -3.17489366857655        1.93318362526519        0.16597778232105
H           -1.08868927305667       -3.28174493594848        0.90237161594416
H           -0.99206938450272       -3.32582634708943       -0.86895833583087
H           -2.48983166326349       -2.81176191559933       -0.07579868935661
H            1.40526858413525       -2.99658228982248        0.04772560633088
25
 energy: 51.325699285150 xtb: 6.6.1 (8d0f1dd)
C            3.14032825057739        1.19319019336312        0.00059091512244
N            2.25250485236701        0.07678254877274       -0.01152694958697
C            2.58510640817163       -1.26023526298643        0.02692937364681
N            1.41884960427936       -1.98525642261440        0.02546115622436
C            0.37382052440956       -1.13769658592112        0.00533544212908
C            0.86504150082410        0.15984688520606       -0.00922954760762
C            0.04594419627930        1.30577934867615       -0.02238867774763
O            0.38952584278223        2.48563516330097       -0.08746913541841
N           -1.35562679094081        1.02375820558921        0.05334752932787
C           -2.14624953896049        2.29145383785949        0.07613081361574
C           -1.88334037420929       -0.27239320268977       -0.00998572303644
O           -3.05884125513513       -0.55402710270479       -0.08096337053270
N           -0.96485446131389       -1.38211055301858       -0.01636709804429
C           -1.40957155112952       -2.77133200029714       -0.01382446713819
H            3.60552480575881        1.31439098962940        0.98261393326209
H            3.92145976101812        1.06311255479423       -0.74986122085514
H            2.55506234311140        2.08513412058131       -0.22194973742429
H            3.57830269333877       -1.63874467906073        0.03906428290915
H           -1.72479525198043        3.58735160133101        0.59074805003237
H           -1.90050784111642        2.87850203641510       -0.77831932221253
H           -3.20516330967026        1.92429447080514        0.02407702017945
H           -1.09216025489076       -3.28094680815345        0.90364020300761
H           -0.99786216276417       -3.31801342853007       -0.86875313031276
H           -2.49223984220350       -2.80662417056704       -0.07092981315588
H            1.41195651933325       -2.99282313760863        0.04066336976313
25
 energy: 57.120708959129 xtb: 6.6.1 (8d0f1dd)
C            3.14046519461641        1.19367388541318        0.00077687136513
N            2.25001393439895        0.07766705089982       -0.01349837817377
C            2.58066773991359       -1.24989810178982        0.02434907105169
N            1.42108374706765       -1.98181882532715        0.02369216373929
C            0.37061042701327       -1.13444172891756        0.00623699211837
C            0.86320295821198        0.16266341551868       -0.00889888782906
C            0.03743438114094        1.30603118562885       -0.01780716381918
O            0.38262872715532        2.48554091818910       -0.08983672188857
N           -1.35523363574766        1.01219977899632        0.07347855617181
C           -2.16008321157447        2.27085859808717        0.06278345654840
C           -1.88766646407627       -0.28018167732806       -0.00041706508382
O           -3.06328765325553       -0.55508102820735       -0.07389962804391
N           -0.96398881263157       -1.38521950454077       -0.01322697153431
C           -1.41217290373123       -2.77300302167020       -0.01474539070729
H            3.60606540170745        1.31015738658350        0.98327266975557
H            3.92156227481783        1.06136322019963       -0.74926341902391
H            2.55754492706451        2.08714273024983       -0.22011280709776
H            3.57346341078080       -1.63268502317074        0.03549606927722
H           -1.75873989915587        3.61050362993957        0.58446231290763
H           -1.83893448378777        2.86647774644247       -0.72205661459633
H           -3.16957514251464        1.92864922530310       -0.03717648832769
H           -1.09456313264842       -3.28454982451451        0.90101521944188
H           -1.00347435075158       -3.31729887442189       -0.87271168543816
H           -2.49611047419181       -2.80072634741506       -0.07064124024367
H            1.41130170811433       -2.98899621197631        0.03576297557770
25
 energy: 62.804449514016 xtb: 6.6.1 (8d0f1dd)
C            3.14421794407160        1.19511630792001       -0.00474841293557
N            2.24992594901974        0.08325203887676       -0.01934476699691
C            2.58239536113961       -1.24385325847616        0.01754388147045
N            1.42329999514493       -1.98039242541395        0.02100974492926
C            0.37125321736157       -1.13160997481473        0.00879805335474
C            0.86090274595714        0.16691253179752       -0.00652156893340
C            0.02960957219406        1.30388580273822       -0.00418724247463
O            0.37544803126990        2.48875906860914       -0.08548288740055
N           -1.35707874915793        0.99693379303686        0.10512592935176
C           -2.17136324198736        2.24900558147132        0.05782437531491
C           -1.89003000338204       -0.28998883910340        0.01141691929905
O           -3.06885337891692       -0.55992479843289       -0.06171452538612
N           -0.96259610467071       -1.38942170763286       -0.00647743921272
C           -1.41540142224536       -2.77377514493230       -0.00979184616967
H            3.61387798280308        1.30490842666261        0.97717608832255
H            3.92269992066217        1.05875705826708       -0.75725150194358
H            2.56400110940622        2.09049828695452       -0.22211894457128
H            3.57308765467078       -1.63072974962960        0.02441017128716
H           -1.79849269141061        3.64326696544951        0.61339444899757
H           -1.72409819644284        2.88837876507044       -0.69916246682388
H           -3.20709312790078        1.89902885189030       -0.13301711163587
H           -1.09672706438227       -3.28837961630046        0.90375595801285
H           -1.01518198057345       -3.31682047363173       -0.87270194684670
H           -2.50066545774445       -2.78839103601839       -0.06054607965954
H            1.40907660305018       -2.98638785218608        0.02964506679735
25
 energy: 61.921382895032 xtb: 6.6.1 (8d0f1dd)
C            3.14494690517112        1.19436790038493       -0.00254975979508
N            2.25158942204573        0.08299155661891       -0.01725923791294
C            2.58574490899563       -1.25063465874320        0.02078099318372
N            1.42166048078471       -1.98285156220557        0.02274988667668
C            0.37392339183006       -1.13211724726528        0.00738407492226
C            0.86246784306044        0.16600535566128       -0.00762684774727
C            0.03613270721228        1.30437007038575       -0.00968485919727
O            0.38627128164082        2.48805376649972       -0.08217448505837
N           -1.35439771076119        1.00441969193652        0.09116208744718
C           -2.16073125464385        2.26176646575962        0.05628076853865
C           -1.88453140802348       -0.28372500926860        0.00222898167252
O           -3.06463808372206       -0.55348665445517       -0.06843051351035
N           -0.96248838827000       -1.38675889892581       -0.01002250163243
C           -1.41366405937475       -2.77191120098347       -0.01124250547697
H            3.61414450948668        1.30648664620570        0.97962994732506
H            3.92370841867835        1.05971281335088       -0.75512433160494
H            2.56322484882489        2.08920288320773       -0.22063163371209
H            3.57555877127915       -1.63745876594114        0.02880517995787
H           -1.79041854840873        3.64857003733003        0.59762905628832
H           -1.78424000713356        2.86723509999574       -0.70215500307912
H           -3.21010997282940        1.89805612454118       -0.09293618778780
H           -1.09541221633687       -3.28651987454690        0.90274785346421
H           -1.01284721340285       -3.31787743961400       -0.87261659059040
H           -2.49924626353105       -2.78988488460065       -0.06242525852356
H            1.40556630536424       -2.98898361315643        0.03251478229938
25
 energy: 61.946559761558 xtb: 6.6.1 (8d0f1dd)
C            3.14406767077800        1.19568026927356       -0.00137777584619
N            2.25063567629401        0.08495334219450       -0.01614677714009
C            2.58742070906998       -1.25229614349298        0.02289775012656
N            1.42126017488880       -1.98370662486141        0.02387161153137
C            0.37469481739696       -1.13317742365289        0.00623001541860
C            0.86065814498903        0.16557888793468       -0.00916828181829
C            0.03289262016434        1.30240351752781       -0.01452480954578
O            0.38358438330048        2.48702898766684       -0.08057164261872
N           -1.35910256194131        1.00179303598422        0.08236898885521
C           -2.16502795762739        2.25854803393007        0.05250053909773
C           -1.88470744140587       -0.28721332146915       -0.00341639214700
O           -3.06579753053629       -0.55765012497368       -0.07320572951525
N           -0.96297138544200       -1.38907042988157       -0.01203148869083
C           -1.41244590521157       -2.77436218017405       -0.01119784435623
H            3.61354902479264        1.30855482673559        0.98079770571922
H            3.92296877166918        1.06114457383993       -0.75403811661368
H            2.56223981058428        2.09042116066466       -0.21994009389489
H            3.57693106313757       -1.63859141858154        0.03179760039063
H           -1.78736422091749        3.65342744177486        0.59055642552265
H           -1.79222486295551        2.88317500027848       -0.70760907893514
H           -3.18971809648631        1.90472555893671       -0.06490144610268
H           -1.09359055633629       -3.28775147639507        0.90335393315779
H           -1.01182151036724       -3.32182931138235       -0.87196203145739
H           -2.49829412273950       -2.79300273187107       -0.06173549306401
H            1.40437795283775       -2.98975484783439        0.03448632807368
25
 energy: 65.254821199112 xtb: 6.6.1 (8d0f1dd)
C            3.14467084447871        1.19568537539683       -0.00203741042119
N            2.25007132170622        0.08628582828543       -0.01669312344151
C            2.58843849387897       -1.25208679574048        0.02209421934771
N            1.42170128386999       -1.98395809174180        0.02318303069496
C            0.37544099639541       -1.13320341131890        0.00645534344380
C            0.85984235452499        0.16572968906570       -0.00886806541698
C            0.03042488057939        1.30134589491436       -0.01286421003537
O            0.38270562773408        2.48654583864226       -0.07752819537259
N           -1.36045121243913        0.99780480690142        0.08659587489890
C           -2.16907358422629        2.25079575961083        0.04496950318041
C           -1.88373675136409       -0.29095826539575       -0.00127783126199
O           -3.06606214708394       -0.55918843002207       -0.07175624168266
N           -0.96257086979426       -1.39102135684949       -0.01084550559238
C           -1.41247336962145       -2.77550407906635       -0.01064555069608
H            3.61519189773969        1.30755490804685        0.97989182209502
H            3.92293652751834        1.06062403522874       -0.75540109212339
H            2.56349562363840        2.09102014977617       -0.21978298707235
H            3.57734715406103       -1.63895063804576        0.03004635883100
H           -1.79654799071497        3.67953812073030        0.59045055947540
H           -1.77067768486946        2.88414112445116       -0.69345339417656
H           -3.19573092138648        1.90109776259521       -0.07976648523508
H           -1.09314165134867       -3.28940150077755        0.90332857320424
H           -1.01375713064748       -3.32295352962445       -0.87248695815804
H           -2.49889831295255       -2.79206829432953       -0.05977542809125
H            1.40306928825982       -2.98984629856136        0.03320108975321
25
 energy: 68.803592068860 xtb: 6.6.1 (8d0f1dd)
C            3.14475951484939        1.19558080732682       -0.00215445495041
N            2.24941925968622        0.08700044693822       -0.01663926875415
C            2.58908635209838       -1.25221994463326        0.02236833019900
N            1.42216620023861       -1.98435561231470        0.02327759970538
C            0.37599313798562       -1.13389197875836        0.00625824879025
C            0.85905868711443        0.16529149433492       -0.00946395710258
C            0.02858503128733        1.30000968162778       -0.01453949592711
O            0.38194341795747        2.48532716899217       -0.07775878909934
N           -1.36207080396994        0.99460255309879        0.08502872134491
C           -2.17229396539684        2.24311317118651        0.03851684083712
C           -1.88301405283150       -0.29474230118472       -0.00193427101746
O           -3.06599421218663       -0.56182949151898       -0.07205590252250
N           -0.96234240538751       -1.39299552053530       -0.01069398671378
C           -1.41235817823760       -2.77692972460846       -0.01012098782815
H            3.61562038006794        1.30722112321123        0.97969469793244
H            3.92287210967365        1.06008341787669       -0.75566447808421
H            2.56414416825984        2.09134234888874       -0.21979529403715
H            3.57780663349292       -1.63885791854879        0.03011534807300
H           -1.80230036864188        3.70846723175025        0.59081150447823
H           -1.75778677728271        2.88891289670328       -0.67839730997358
H           -3.19729348396095        1.89547646929737       -0.08626886953315
H           -1.09309786017689       -3.29054697473906        0.90396366382472
H           -1.01460717673448       -3.32465119389516       -0.87228430355236
H           -2.49898172869841       -2.79217116470028       -0.05876705794008
H            1.40290078872980       -2.99020838362398        0.03353736799821
25
 energy: 72.836114615209 xtb: 6.6.1 (8d0f1dd)
C            3.14482726134822        1.19528656206467       -0.00224525311619
N            2.24887568874375        0.08727620883958       -0.01642253544064
C            2.58952879778592       -1.25234670035637        0.02271906759120
N            1.42287365912323       -1.98486996632022        0.02343471766774
C            0.37651317096786       -1.13491713841491        0.00626404557401
C            0.85832529114723        0.16459100888603       -0.00985506042610
C            0.02689157000708        1.29837778347885       -0.01635916494116
O            0.38115470618318        2.48357891835546       -0.07856227974218
N           -1.36371256407189        0.99113319471371        0.08254681229843
C           -2.17595716075179        2.23368647960474        0.03135626999083
C           -1.88234460221885       -0.29907345392572       -0.00200499485671
O           -3.06570104929862       -0.56529608210012       -0.07237011079989
N           -0.96197140804922       -1.39525620582264       -0.01030524541957
C           -1.41213644647875       -2.77871003126451       -0.00970083713479
H            3.61599705209686        1.30683518967226        0.97949730270084
H            3.92279538923773        1.05943841853777       -0.75588171063480
H            2.56468040105275        2.09140266025746       -0.21985326815634
H            3.57819466546061       -1.63866549872192        0.03030350508777
H           -1.80894088676601        3.74384928784046        0.59109699683595
H           -1.74523692618729        2.89541925179023       -0.66036014952112
H           -3.19856874133656        1.88932274108295       -0.09465592488430
H           -1.09294562975430       -3.29203317578040        0.90445165857634
H           -1.01527770054291       -3.32658108013606       -0.87215050238838
H           -2.49895135315852       -2.79270831301530       -0.05782501415784
H            1.40330148339655       -2.99071145709426        0.03391557144414
25
 energy: 77.672502852743 xtb: 6.6.1 (8d0f1dd)
C            3.14490737100184        1.19478017510399       -0.00235767486711
N            2.24831993522830        0.08724952121162       -0.01616265857240
C            2.58988607738762       -1.25239224251468        0.02322933536718
N            1.42394986862115       -1.98560901194386        0.02381542850994
C            0.37712139934328       -1.13633851784133        0.00624553477629
C            0.85746673417927        0.16357567820242       -0.01054895511536
C            0.02489671603805        1.29626508307818       -0.01921732372742
O            0.38048433083423        2.48094031757920       -0.07994608106072
N           -1.36547857134981        0.98677066117402        0.07842702988851
C           -2.18064592845870        2.22109746172595        0.02284914730521
C           -1.88137507894400       -0.30450867587882       -0.00273610355110
O           -3.06497866752775       -0.56983201475050       -0.07307347856768
N           -0.96126246032228       -1.39817418295277       -0.00989069309409
C           -1.41183590024433       -2.78101319079092       -0.00903852894745
H            3.61634276093667        1.30628164745681        0.97928406680859
H            3.92276280551682        1.05852074837096       -0.75606420530563
H            2.56525563322155        2.09127972336391       -0.21998903022466
H            3.57851793009820       -1.63845596551862        0.03085536684669
H           -1.81984428969373        3.79173048866227        0.59241462642640
H           -1.72969727996155        2.90438870065636       -0.63530618331734
H           -3.19863906982601        1.88007653567672       -0.10738184718126
H           -1.09293842671824       -3.29379886525232        0.90535490817261
H           -1.01615279071864       -3.32920977459680       -0.87176556223753
H           -2.49889931090529       -2.79314797588292       -0.05661011694786
H            1.40405088019962       -2.99144772216711        0.03464689476343
25