72
 energy: -99.327045088444 gnorm: 0.001898378742 xtb: 6.6.1 (8d0f1dd)
N           -2.32966920880494        3.05796641599744        2.39170017787921
C           -2.10222566438133        2.27018983220477        1.44955963404352
C           -3.07160509503524        1.97209218927306        0.33783425509429
C           -3.53010578441909        0.52477365803592        0.43139640635691
C           -4.34872415063155       -0.00583270980983       -0.56741831410933
C           -4.81196309000693       -1.30988695684720       -0.51043097776226
O           -5.63010974270536       -1.88472730748597       -1.41493073060015
C           -6.19950855185778       -1.09200029232375       -2.43097136405678
C           -4.41957966461912       -2.14518603463230        0.57113985991031
O           -4.89586827358434       -3.40490208900819        0.53424691288686
C           -4.59829967322762       -4.28277389309800        1.59495021582401
C           -3.60592244175717       -1.61314525547066        1.55916379144958
C           -3.17620311826838       -0.29360996038650        1.49400798924577
C           -2.29276716984062        2.18953111918996       -0.98795098757579
C           -1.27039704853020        1.09054575743852       -1.33119654179460
C           -0.04278818999237        1.14579170586454       -0.49548580568380
N            0.58146277490296        0.10532265185170        0.04679952357880
C            1.72124449535606        0.21123285471243        0.71780887486302
C            3.57507381197660       -0.63015620278800       -2.71263608673195
C            4.61766655391383       -0.35438341332384       -1.86086202207921
C            5.15215389058104        0.96008955542223       -1.75055411692618
C            6.22283580194272        1.22938492304321       -0.93734442693448
C            6.81366265424549        0.21983724227265       -0.17110886115310
O            7.86773529594806        0.36840795036830        0.63843871025950
C            8.52096346522797        1.61507371006570        0.71988575301126
C            6.27555831110914       -1.10728081954248       -0.23380836312715
O            6.90105364884068       -1.99877466505675        0.56297267458685
C            6.49483939667782       -3.34642897651105        0.52914962076019
C            5.21505425139639       -1.37391539726670       -1.06107889145738
C           -0.01154303073560       -1.21607061799724       -0.07142854627204
C           -4.33124009765763        2.88834387440000        0.36970880261328
C           -5.17218425257116        2.63683923828946        1.61925546442788
C           -4.00022536140633        4.37388483196473        0.25942423213904
H           -4.63969565084710        0.61615129006650       -1.39740603887690
H           -6.74444585687174       -0.23954899054172       -2.01437900010814
H           -6.89633954459715       -1.74404497181666       -2.95407696939474
H           -5.44226161315376       -0.73504891945213       -3.13636545634863
H           -4.97277932641600       -3.90055009084104        2.54910068729398
H           -5.10733067680559       -5.21405058958024        1.35466030466370
H           -3.52208468711103       -4.46788088564882        1.67209270419488
H           -3.31068971756744       -2.21552512233889        2.40306229937640
H           -2.57672616378424        0.09255152584228        2.30384943636608
H           -3.01290082272539        2.24261622056945       -1.80404615918407
H           -1.77842229177903        3.14972833580031       -0.93882966040730
H           -1.75851657566394        0.11917403300739       -1.27448102619088
H           -0.97850332493765        1.25218512769772       -2.37723039745475
H           -1.14177252024842        1.74379350301892        1.31208144977833
H            0.46349612654974        2.09636184531142       -0.42122744052356
H            2.15592795976844       -0.64617949655896        1.18620763435589
H            2.19768592095357        1.16720267223931        0.80843190147034
H            3.13154140324684        0.14236951514701       -3.31374473576725
H            3.20293691330162       -1.63104738030775       -2.84029735531598
H            4.71293948070388        1.74870426129647       -2.34117211725942
H            6.61586427974676        2.23272177126502       -0.89403880124075
H            7.87153499659462        2.37910454465488        1.15823989137237
H            8.86926751279543        1.94986006917486       -0.26121626857721
H            9.37793895746312        1.45401922518201        1.37163448540450
H            7.15244832375020       -3.86802755223680        1.22169999873352
H            5.45724194882039       -3.46044958420003        0.85911338201719
H            6.60866868082477       -3.77309412839450       -0.47171801657991
H            4.81201998525056       -2.37075407653312       -1.13901412991794
H           -0.06625510564525       -1.50817914625099       -1.11966108959474
H           -1.01697979151357       -1.22099437440733        0.35363771502128
H            0.59965127520234       -1.93988008881776        0.46101404475148
H           -4.93705898550413        2.61682508762396       -0.50218309914897
H           -4.61662517046686        2.92716940901417        2.50535574281373
H           -5.44812142870445        1.58836055452227        1.70363640623312
H           -6.08281625740930        3.22841762305079        1.57222229766913
H           -3.36847725157106        4.68327662139533        1.08631819032661
H           -3.50553669066859        4.61017655844728       -0.67891743619940
H           -4.92207797814193        4.94819437031677        0.30374548415131
H           -1.59460547793545        3.21019783694300        3.07492912203097
