      -----------------------------------------------------------      
     |                   =====================                   |     
     |                           x T B                           |     
     |                   =====================                   |     
     |                         S. Grimme                         |     
     |          Mulliken Center for Theoretical Chemistry        |     
     |                    University of Bonn                     |     
      -----------------------------------------------------------      

   * xtb version 6.6.1 (8d0f1dd) compiled by 'conda@1efc2f54142f' on 2023-08-01

   xtb is free software: you can redistribute it and/or modify it under
   the terms of the GNU Lesser General Public License as published by
   the Free Software Foundation, either version 3 of the License, or
   (at your option) any later version.
   
   xtb is distributed in the hope that it will be useful,
   but WITHOUT ANY WARRANTY; without even the implied warranty of
   MERCHANTABILITY or FITNESS FOR A PARTICULAR PURPOSE.  See the
   GNU Lesser General Public License for more details.
   
   Cite this work as:
   * C. Bannwarth, E. Caldeweyher, S. Ehlert, A. Hansen, P. Pracht,
     J. Seibert, S. Spicher, S. Grimme, WIREs Comput. Mol. Sci., 2020, 11,
     e01493. DOI: 10.1002/wcms.1493
   
   for GFN2-xTB:
   * C. Bannwarth, S. Ehlert and S. Grimme., J. Chem. Theory Comput., 2019,
     15, 1652-1671. DOI: 10.1021/acs.jctc.8b01176
   for GFN1-xTB:
   * S. Grimme, C. Bannwarth, P. Shushkov, J. Chem. Theory Comput., 2017,
     13, 1989-2009. DOI: 10.1021/acs.jctc.7b00118
   for GFN0-xTB:
   * P. Pracht, E. Caldeweyher, S. Ehlert, S. Grimme, ChemRxiv, 2019, preprint.
     DOI: 10.26434/chemrxiv.8326202.v1
   for GFN-FF:
   * S. Spicher and S. Grimme, Angew. Chem. Int. Ed., 2020, 59, 15665-15673.
     DOI: 10.1002/anie.202004239
   
   for ALPB and GBSA implicit solvation:
   * S. Ehlert, M. Stahn, S. Spicher, S. Grimme, J. Chem. Theory Comput.,
     2021, 17, 4250-4261. DOI: 10.1021/acs.jctc.1c00471
   
   for DFT-D4:
   * E. Caldeweyher, C. Bannwarth and S. Grimme, J. Chem. Phys., 2017,
     147, 034112. DOI: 10.1063/1.4993215
   * E. Caldeweyher, S. Ehlert, A. Hansen, H. Neugebauer, S. Spicher,
     C. Bannwarth and S. Grimme, J. Chem. Phys., 2019, 150, 154122.
     DOI: 10.1063/1.5090222
   * E. Caldeweyher, J.-M. Mewes, S. Ehlert and S. Grimme, Phys. Chem. Chem. Phys.
     2020, 22, 8499-8512. DOI: 10.1039/D0CP00502A
   
   for sTDA-xTB:
   * S. Grimme and C. Bannwarth, J. Chem. Phys., 2016, 145, 054103.
     DOI: 10.1063/1.4959605
   
   in the mass-spec context:
   * V. Asgeirsson, C. Bauer and S. Grimme, Chem. Sci., 2017, 8, 4879.
     DOI: 10.1039/c7sc00601b
   * J. Koopman and S. Grimme, ACS Omega 2019, 4, 12, 15120-15133.
     DOI: 10.1021/acsomega.9b02011
   
   for metadynamics refer to:
   * S. Grimme, J. Chem. Theory Comput., 2019, 155, 2847-2862
     DOI: 10.1021/acs.jctc.9b00143
   
   for SPH calculations refer to:
   * S. Spicher and S. Grimme, J. Chem. Theory Comput., 2021, 17, 1701-1714
     DOI: 10.1021/acs.jctc.0c01306
   
   with help from (in alphabetical order)
   P. Atkinson, C. Bannwarth, F. Bohle, G. Brandenburg, E. Caldeweyher
   M. Checinski, S. Dohm, S. Ehlert, S. Ehrlich, I. Gerasimov, C. Hölzer
   A. Katbashev, J. Koopman, C. Lavigne, S. Lehtola, F. März, M. Müller,
   F. Musil, H. Neugebauer, J. Pisarek, C. Plett, P. Pracht, F. Pultar,
   J. Seibert, P. Shushkov, S. Spicher, M. Stahn, M. Steiner, T. Strunk,
   J. Stückrath, T. Rose, and J. Unsleber
   
 * started run on 2024/06/05 at 19:58:58.882     

           -------------------------------------------------
          |                Calculation Setup                |
           -------------------------------------------------

          program call               : xtb xtbopt.xyz --opt crude --input .xc2 --gfn2
          hostname                   : n-62-29-9
          coordinate file            : xtbopt.xyz
          omp threads                :                     1

   ID    Z sym.   atoms
    1    6 C      1, 3, 5-7, 10, 11, 14
    2    7 N      2, 4, 9, 13
    3    8 O      8, 12
    4    1 H      15-25
########################################################################
[WARNING] Please study the warnings concerning your input carefully
-1- readin_getIntValue: could not parse ''
########################################################################

           -------------------------------------------------
          |                 G F N 2 - x T B                 |
           -------------------------------------------------

        Reference                      10.1021/acs.jctc.8b01176
      * Hamiltonian:
        H0-scaling (s, p, d)           1.850000    2.230000    2.230000
        zeta-weighting                 0.500000
      * Dispersion:
        s8                             2.700000
        a1                             0.520000
        a2                             5.000000
        s9                             5.000000
      * Repulsion:
        kExp                           1.500000    1.000000
        rExp                           1.000000
      * Coulomb:
        alpha                          2.000000
        third order                    shell-resolved
        anisotropic                    true
        a3                             3.000000
        a5                             4.000000
        cn-shift                       1.200000
        cn-exp                         4.000000
        max-rad                        5.000000

q/qsh data taken from xtbrestart
CAMM data taken from xtbrestart

          ...................................................
          :                      SETUP                      :
          :.................................................:
          :  # basis functions                  67          :
          :  # atomic orbitals                  67          :
          :  # shells                           39          :
          :  # electrons                        74          :
          :  max. iterations                   250          :
          :  Hamiltonian                  GFN2-xTB          :
          :  restarted?                       true          :
          :  GBSA solvation                  false          :
          :  PC potential                    false          :
          :  electronic temp.         7500.0000000     K    :
          :  accuracy                    1.0000000          :
          :  -> integral cutoff          0.2500000E+02      :
          :  -> integral neglect         0.1000000E-07      :
          :  -> SCF convergence          0.1000000E-05 Eh   :
          :  -> wf. convergence          0.1000000E-03 e    :
          :  Broyden damping             0.4000000          :
          ...................................................

 iter      E             dE          RMSdq      gap      omega  full diag
   1    -42.7466896 -0.427467E+02  0.691E-06    2.02       0.0  T
   2    -42.7466896  0.115818E-11  0.795E-06    2.02    2515.7  T
   3    -42.7466896 -0.282796E-11  0.202E-06    2.02    9899.2  T

   *** convergence criteria satisfied after 3 iterations ***

         #    Occupation            Energy/Eh            Energy/eV
      -------------------------------------------------------------
         1        2.0000           -0.8788164             -23.9138
       ...           ...                  ...                  ...
        31        1.9897           -0.6195880             -16.8598
        32        1.9857           -0.6117913             -16.6477
        33        1.9649           -0.5902679             -16.0620
        34        1.9551           -0.5842822             -15.8991
        35        1.8933           -0.5629678             -15.3191
        36        1.8873           -0.5616069             -15.2821
        37        1.7282           -0.5386052             -14.6562 (HOMO)
        38        0.4351           -0.4642645             -12.6333 (LUMO)
        39        0.1608           -0.4367958             -11.8858
        40        0.0229           -0.3888034             -10.5799
        41        0.0027           -0.3374025              -9.1812
        42        0.0011           -0.3157356              -8.5916
       ...           ...                  ...                  ...
        67                         14.0064713             381.1355
      -------------------------------------------------------------
                  HL-Gap            0.0743408 Eh            2.0229 eV
             Fermi-level           -0.4946679 Eh          -13.4606 eV

 SCC (total)                   0 d,  0 h,  0 min,  0.022 sec
 SCC setup                      ...        0 min,  0.000 sec (  1.523%)
 Dispersion                     ...        0 min,  0.000 sec (  1.872%)
 classical contributions        ...        0 min,  0.000 sec (  0.513%)
 integral evaluation            ...        0 min,  0.005 sec ( 22.072%)
 iterations                     ...        0 min,  0.005 sec ( 24.209%)
 molecular gradient             ...        0 min,  0.011 sec ( 49.062%)
 printout                       ...        0 min,  0.000 sec (  0.691%)

         :::::::::::::::::::::::::::::::::::::::::::::::::::::
         ::                     SUMMARY                     ::
         :::::::::::::::::::::::::::::::::::::::::::::::::::::
         :: total energy             -39.915602864351 Eh    ::
         :: gradient norm             11.569737963344 Eh/a0 ::
         :: HOMO-LUMO gap              2.022915060347 eV    ::
         ::.................................................::
         :: SCC energy               -42.746689602525 Eh    ::
         :: -> isotropic ES            0.132685194012 Eh    ::
         :: -> anisotropic ES         -0.007085060613 Eh    ::
         :: -> anisotropic XC          0.017396856135 Eh    ::
         :: -> dispersion             -0.020638927437 Eh    ::
         :: repulsion energy           2.831104027850 Eh    ::
         :: add. restraining           0.000000000000 Eh    ::
         :: total charge               1.000000000001 e     ::
         :::::::::::::::::::::::::::::::::::::::::::::::::::::

      ----------------------------------------------------------- 
     |                   =====================                   |
     |                        A N C O P T                        |
     |                   =====================                   |
     |               Approximate Normal Coordinate               |
     |                Rational Function Optimizer                |
      ----------------------------------------------------------- 

          ...................................................
          :                      SETUP                      :
          :.................................................:
          :   optimization level             crude          :
          :   max. optcycles                   200          :
          :   ANC micro-cycles                  20          :
          :   degrees of freedom                69          :
          :.................................................:
          :   RF solver                   davidson          :
          :   write xtbopt.log                true          :
          :   linear?                        false          :
          :   energy convergence         0.5000000E-03 Eh   :
          :   grad. convergence          0.1000000E-01 Eh/α :
          :   maxmium RF displ.          1.0000000          :
          :   Hlow (freq-cutoff)         0.1000000E-01      :
          :   Hmax (freq-cutoff)         5.0000000          :
          :   S6 in model hess.         20.0000000          :
          ...................................................

generating ANC from model Hessian ...
Using Lindh-Hessian (1995)
 Shifting diagonal of input Hessian by    9.1734694230427918E-003
 Lowest  eigenvalues of input Hessian
    0.000000    0.000000    0.000000    0.000000    0.000000    0.000000
    0.010000    0.010422    0.010666    0.010888    0.012906    0.014370
    0.016773    0.018094    0.021680    0.022106    0.023545    0.027752
 Highest eigenvalues
    2.105814    2.416101    2.556189    2.556788    4.180234    8.614761


........................................................................
.............................. CYCLE    1 ..............................
........................................................................

 iter      E             dE          RMSdq      gap      omega  full diag
   1    -42.7466896 -0.427467E+02  0.102E-06    2.02       0.0  T
   2    -42.7466896  0.568434E-13  0.724E-07    2.02   27627.9  T
   3    -42.7466896  0.355271E-13  0.434E-07    2.02   46065.0  T
     SCC iter.                  ...        0 min,  0.005 sec
     gradient                   ...        0 min,  0.011 sec
 * total energy  :   -39.9156029 Eh     change        0.4973799E-13 Eh
   gradient norm :    11.5697380 Eh/α   predicted     0.0000000E+00 (-100.00%)
   displ. norm   :     0.8399152 α      lambda       -0.9708690E+01
   maximum displ.:     0.8202025 α      in ANC's #68, #59, #61, ...

........................................................................
.............................. CYCLE    2 ..............................
........................................................................

 iter      E             dE          RMSdq      gap      omega  full diag
   1    -42.7694180 -0.427694E+02  0.111E+00    1.88       0.0  T
   2    -42.7741594 -0.474133E-02  0.579E-01    2.12       1.0  T
   3    -42.7744573 -0.297894E-03  0.428E-01    1.88       1.0  T
   4    -42.7755621 -0.110486E-02  0.204E-01    2.07       1.0  T
   5    -42.7769391 -0.137699E-02  0.345E-02    1.99       1.0  T
   6    -42.7769549 -0.158133E-04  0.233E-02    2.00       1.0  T
   7    -42.7769652 -0.103227E-04  0.852E-03    2.00       2.3  T
   8    -42.7769667 -0.148258E-05  0.152E-03    2.00      13.1  T
   9    -42.7769667 -0.475910E-08  0.681E-04    2.00      29.4  T
  10    -42.7769667 -0.701940E-08  0.202E-04    2.00      99.1  T
     SCC iter.                  ...        0 min,  0.014 sec
     gradient                   ...        0 min,  0.011 sec
 * total energy  :   -42.1671076 Eh     change       -0.2251505E+01 Eh
   gradient norm :     0.1714743 Eh/α   predicted    -0.8278878E+01 ( 267.70%)
   displ. norm   :     0.3203856 α      lambda       -0.3760637E-01
   maximum displ.:     0.1341231 α      in ANC's #14, #41, #39, ...

........................................................................
.............................. CYCLE    3 ..............................
........................................................................

 iter      E             dE          RMSdq      gap      omega  full diag
   1    -42.7572963 -0.427573E+02  0.302E-01    1.92       0.0  T
   2    -42.7575127 -0.216345E-03  0.219E-01    1.92       1.0  T
   3    -42.7574771  0.355501E-04  0.976E-02    1.93       1.0  T
   4    -42.7575982 -0.121126E-03  0.372E-02    1.94       1.0  T
   5    -42.7576420 -0.437826E-04  0.169E-02    1.92       1.2  T
   6    -42.7576488 -0.679001E-05  0.695E-03    1.93       2.9  T
   7    -42.7576491 -0.297520E-06  0.317E-03    1.93       6.3  T
   8    -42.7576493 -0.226228E-06  0.658E-04    1.93      30.4  T
   9    -42.7576493 -0.450009E-08  0.289E-04    1.93      69.1  T
     SCC iter.                  ...        0 min,  0.013 sec
     gradient                   ...        0 min,  0.011 sec
 * total energy  :   -42.1891279 Eh     change       -0.2202031E-01 Eh
   gradient norm :     0.0719847 Eh/α   predicted    -0.2073381E-01 (  -5.84%)
   displ. norm   :     0.1711878 α      lambda       -0.6339763E-02
   maximum displ.:     0.0899221 α      in ANC's #41, #7, #31, ...

........................................................................
.............................. CYCLE    4 ..............................
........................................................................

 iter      E             dE          RMSdq      gap      omega  full diag
   1    -42.7508987 -0.427509E+02  0.224E-01    1.94       0.0  T
   2    -42.7509416 -0.428806E-04  0.131E-01    1.94       1.0  T
   3    -42.7508945  0.470350E-04  0.481E-02    1.95       1.0  T
   4    -42.7509432 -0.486398E-04  0.197E-02    1.94       1.0  T
   5    -42.7509523 -0.909943E-05  0.631E-03    1.94       3.2  T
   6    -42.7509528 -0.467527E-06  0.361E-03    1.94       5.5  T
   7    -42.7509529 -0.147472E-06  0.145E-03    1.94      13.8  T
   8    -42.7509530 -0.867866E-07  0.313E-04    1.94      63.9  T
   9    -42.7509530 -0.541846E-09  0.157E-04    1.94     127.1  T
     SCC iter.                  ...        0 min,  0.013 sec
     gradient                   ...        0 min,  0.011 sec
 * total energy  :   -42.1932692 Eh     change       -0.4141334E-02 Eh
   gradient norm :     0.0659962 Eh/α   predicted    -0.3262833E-02 ( -21.21%)
   displ. norm   :     0.3644346 α      lambda       -0.4553691E-02
   maximum displ.:     0.2300975 α      in ANC's #7, #5, #41, ...

........................................................................
.............................. CYCLE    5 ..............................
........................................................................

 iter      E             dE          RMSdq      gap      omega  full diag
   1    -42.7351681 -0.427352E+02  0.436E-01    1.85       0.0  T
   2    -42.7348056  0.362515E-03  0.274E-01    1.96       1.0  T
   3    -42.7331734  0.163221E-02  0.277E-01    1.79       1.0  T
   4    -42.7356209 -0.244747E-02  0.443E-02    1.91       1.0  T
   5    -42.7356866 -0.657699E-04  0.143E-02    1.90       1.4  T
   6    -42.7356914 -0.470936E-05  0.639E-03    1.90       3.1  T
   7    -42.7356916 -0.232647E-06  0.211E-03    1.90       9.5  T
   8    -42.7356916 -0.576754E-07  0.561E-04    1.90      35.6  T
   9    -42.7356916  0.612637E-09  0.324E-04    1.90      61.6  T
     SCC iter.                  ...        0 min,  0.013 sec
     gradient                   ...        0 min,  0.011 sec
 * total energy  :   -42.1912620 Eh     change        0.2007220E-02 Eh
   gradient norm :     0.0769062 Eh/α   predicted    -0.2579253E-02 (-228.50%)
   displ. norm   :     0.2627072 α      lambda       -0.7267237E-02
   maximum displ.:     0.1979277 α      in ANC's #7, #5, #3, ...

........................................................................
.............................. CYCLE    6 ..............................
........................................................................

 iter      E             dE          RMSdq      gap      omega  full diag
   1    -42.7479054 -0.427479E+02  0.307E-01    1.98       0.0  T
   2    -42.7477539  0.151465E-03  0.186E-01    1.91       1.0  T
   3    -42.7469733  0.780654E-03  0.191E-01    2.01       1.0  T
   4    -42.7481148 -0.114147E-02  0.215E-02    1.94       1.0  T
   5    -42.7481259 -0.111004E-04  0.763E-03    1.95       2.6  T
   6    -42.7481272 -0.130111E-05  0.327E-03    1.95       6.1  T
   7    -42.7481272 -0.814470E-07  0.994E-04    1.95      20.1  T
   8    -42.7481273 -0.232599E-07  0.284E-04    1.95      70.3  T
     SCC iter.                  ...        0 min,  0.011 sec
     gradient                   ...        0 min,  0.011 sec
 * total energy  :   -42.1950588 Eh     change       -0.3796801E-02 Eh
   gradient norm :     0.0621247 Eh/α   predicted    -0.3884394E-02 (   2.31%)
   displ. norm   :     0.0491318 α      lambda       -0.5839031E-03
   maximum displ.:     0.0210616 α      in ANC's #14, #7, #3, ...

........................................................................
.............................. CYCLE    7 ..............................
........................................................................

 iter      E             dE          RMSdq      gap      omega  full diag
   1    -42.7501033 -0.427501E+02  0.486E-02    1.94       0.0  T
   2    -42.7501066 -0.331321E-05  0.312E-02    1.95       1.0  T
   3    -42.7500982  0.842534E-05  0.185E-02    1.94       1.1  T
   4    -42.7501063 -0.805661E-05  0.107E-02    1.95       1.9  T
   5    -42.7501107 -0.443809E-05  0.211E-03    1.94       9.5  T
   6    -42.7501108 -0.540532E-07  0.884E-04    1.94      22.6  T
   7    -42.7501108 -0.659236E-08  0.410E-04    1.94      48.7  T
     SCC iter.                  ...        0 min,  0.010 sec
     gradient                   ...        0 min,  0.011 sec
 * total energy  :   -42.1954877 Eh     change       -0.4288877E-03 Eh
   gradient norm :     0.0528191 Eh/α   predicted    -0.2926810E-03 ( -31.76%)
   displ. norm   :     0.0963087 α      lambda       -0.7925121E-03
   maximum displ.:     0.0530600 α      in ANC's #14, #3, #1, ...

........................................................................
.............................. CYCLE    8 ..............................
........................................................................

 iter      E             dE          RMSdq      gap      omega  full diag
   1    -42.7512371 -0.427512E+02  0.435E-02    1.93       0.0  T
   2    -42.7512388 -0.173137E-05  0.326E-02    1.95       1.0  T
   3    -42.7512411 -0.225957E-05  0.188E-02    1.93       1.1  T
   4    -42.7512444 -0.328391E-05  0.114E-02    1.94       1.8  T
   5    -42.7512491 -0.471331E-05  0.161E-03    1.94      12.4  T
   6    -42.7512491 -0.432895E-07  0.695E-04    1.94      28.8  T
   7    -42.7512492 -0.490905E-08  0.355E-04    1.94      56.3  T
     SCC iter.                  ...        0 min,  0.010 sec
     gradient                   ...        0 min,  0.011 sec
 * total energy  :   -42.1960750 Eh     change       -0.5872911E-03 Eh
   gradient norm :     0.0384193 Eh/α   predicted    -0.3999337E-03 ( -31.90%)
   displ. norm   :     0.1121141 α      lambda       -0.7859126E-03
   maximum displ.:     0.0598744 α      in ANC's #3, #5, #14, ...

........................................................................
.............................. CYCLE    9 ..............................
........................................................................

 iter      E             dE          RMSdq      gap      omega  full diag
   1    -42.7506554 -0.427507E+02  0.498E-02    1.92       0.0  T
   2    -42.7506535  0.189802E-05  0.333E-02    1.94       1.0  T
   3    -42.7506479  0.567170E-05  0.254E-02    1.92       1.0  T
   4    -42.7506647 -0.168135E-04  0.869E-03    1.93       2.3  T
   5    -42.7506670 -0.235627E-05  0.126E-03    1.93      15.8  T
   6    -42.7506671 -0.307983E-07  0.841E-04    1.93      23.8  T
   7    -42.7506671 -0.626047E-08  0.340E-04    1.93      58.8  T
     SCC iter.                  ...        0 min,  0.010 sec
     gradient                   ...        0 min,  0.011 sec
 * total energy  :   -42.1966262 Eh     change       -0.5512409E-03 Eh
   gradient norm :     0.0232074 Eh/α   predicted    -0.3978985E-03 ( -27.82%)
   displ. norm   :     0.0755639 α      lambda       -0.4958897E-03
   maximum displ.:     0.0474161 α      in ANC's #3, #5, #1, ...

........................................................................
.............................. CYCLE   10 ..............................
........................................................................

 iter      E             dE          RMSdq      gap      omega  full diag
   1    -42.7482531 -0.427483E+02  0.387E-02    1.91       0.0  T
   2    -42.7482521  0.965304E-06  0.229E-02    1.92       1.0  T
   3    -42.7482389  0.132026E-04  0.224E-02    1.91       1.0  T
   4    -42.7482559 -0.169824E-04  0.400E-03    1.92       5.0  T
   5    -42.7482562 -0.333343E-06  0.120E-03    1.92      16.7  T
   6    -42.7482562 -0.128498E-07  0.833E-04    1.92      24.0  T
   7    -42.7482563 -0.997310E-08  0.120E-04    1.92     167.2  T
     SCC iter.                  ...        0 min,  0.010 sec
     gradient                   ...        0 min,  0.011 sec
 * total energy  :   -42.1969708 Eh     change       -0.3445286E-03 Eh
   gradient norm :     0.0124041 Eh/α   predicted    -0.2493672E-03 ( -27.62%)
   displ. norm   :     0.0529337 α      lambda       -0.2495764E-03
   maximum displ.:     0.0292902 α      in ANC's #3, #14, #1, ...

........................................................................
.............................. CYCLE   11 ..............................
........................................................................

 iter      E             dE          RMSdq      gap      omega  full diag
   1    -42.7458380 -0.427458E+02  0.291E-02    1.91       0.0  T
   2    -42.7458383 -0.367927E-06  0.181E-02    1.91       1.1  T
   3    -42.7458368  0.152475E-05  0.737E-03    1.91       2.7  T
   4    -42.7458385 -0.166303E-05  0.184E-03    1.91      10.9  T
   5    -42.7458386 -0.917077E-07  0.108E-03    1.91      18.6  T
   6    -42.7458386 -0.248504E-07  0.389E-04    1.91      51.4  T
   7    -42.7458386 -0.246322E-08  0.129E-04    1.91     155.1  T
     SCC iter.                  ...        0 min,  0.010 sec
     gradient                   ...        0 min,  0.011 sec
 * total energy  :   -42.1971319 Eh     change       -0.1611735E-03 Eh
   gradient norm :     0.0055336 Eh/α   predicted    -0.1251419E-03 ( -22.36%)
   displ. norm   :     0.0406018 α      lambda       -0.6620758E-04
   maximum displ.:     0.0275478 α      in ANC's #14, #3, #13, ...

   *** GEOMETRY OPTIMIZATION CONVERGED AFTER 11 ITERATIONS ***

------------------------------------------------------------------------
 total energy gain   :        -2.2815291 Eh    -1431.6811 kcal/mol
 total RMSD          :         0.2362065 a0        0.1250 Å
 total power (kW/mol):      -544.5594305 (step)********** (real)
------------------------------------------------------------------------

 ANCopt (total)                0 d,  0 h,  0 min,  0.302 sec
 optimizer setup                ...        0 min,  0.000 sec (  0.135%)
 model hessian                  ...        0 min,  0.007 sec (  2.359%)
 ANC generation                 ...        0 min,  0.001 sec (  0.325%)
 coordinate transformation      ...        0 min,  0.000 sec (  0.032%)
 single point calculation       ...        0 min,  0.289 sec ( 95.632%)
 optimization log               ...        0 min,  0.002 sec (  0.785%)
 hessian update                 ...        0 min,  0.000 sec (  0.045%)
 rational function              ...        0 min,  0.002 sec (  0.505%)

================
 final structure:
================
25
 xtb: 6.6.1 (8d0f1dd)
C            4.48453222449117        0.47078419361710        0.00812048562020
N            4.06705499070290       -0.69425816216734       -0.26812240319308
C            3.18703245590102       -1.61123304650550       -0.06799551192152
N            1.84685242439221       -1.42218960529346       -0.01024559315741
C            1.21543154096927       -0.21432614737354       -0.03882071594579
C           -0.13073519519188        0.00883918192778       -0.01512732572135
C           -0.66107479266109        1.39048837648076       -0.03487438827742
O           -0.03786924417678        2.42550645713176       -0.06505355457379
N           -2.03199275260873        1.24791831445171        0.00096399204642
C           -2.97346080516444        2.33538980707263       -0.00854245109987
C           -2.39586634438776       -0.08472455170892        0.04518326704663
O           -3.50519856913753       -0.54064006101592        0.09080572396860
N           -1.21266579963873       -0.83020634146655        0.03479717640403
C           -1.25891821879842       -2.26769350089545        0.06635464548391
H            4.28854565294966        0.96075664892682        0.95725809525356
H            5.15499062362598        0.95384455810223       -0.68812827905904
H            1.85485956686189        0.65471823632090       -0.09362283045753
H            3.53164879956590       -2.63689803117353       -0.07342055425111
H           -2.45183295956400        3.24255156006646        0.29485457648793
H           -3.38671550221515        2.47505185862054       -1.01058370521635
H           -3.79122118807121        2.11238224540619        0.67727201660712
H           -0.77163880793763       -2.65935483400203        0.96212302948272
H           -0.81446164132239       -2.69710085437858       -0.83441146453372
H           -2.31375971429671       -2.54785812364678        0.09734117758306
H            1.26689476980853       -2.25350963689428        0.00504620932263

 Bond Distances (Angstroems)
 ---------------------------
C1-N2=1.2680         C1-H15=1.0860        C1-H16=1.0806        N2-C1=1.2680         N2-C3=1.2866         C3-N2=1.2866         
C3-N4=1.3547         C3-H18=1.0820        N4-C3=1.3547         N4-C5=1.3632         N4-H25=1.0137        C5-N4=1.3632         
C5-C6=1.3647         C5-H17=1.0803        C6-C5=1.3647         C6-C7=1.4801         C6-N13=1.3701        C7-C6=1.4801         
C7-O8=1.2085         C7-N9=1.3788         O8-C7=1.2085         N9-C7=1.3788         N9-C10=1.4384        N9-C11=1.3821        
C10-N9=1.4384        C10-H19=1.0895       C10-H20=1.0929       C10-H21=1.0903       C11-N9=1.3821        C11-O12=1.2002       
C11-N13=1.3985       O12-C11=1.2002       N13-C6=1.3701        N13-C11=1.3985       N13-C14=1.4386       C14-N13=1.4386       
C14-H22=1.0924       C14-H23=1.0924       C14-H24=1.0919       H15-C1=1.0860        H16-C1=1.0806        H17-C5=1.0803        
H18-C3=1.0820        H19-C10=1.0895       H20-C10=1.0929       H21-C10=1.0903       H22-C14=1.0924       H23-C14=1.0924       
H24-C14=1.0919       H25-N4=1.0137        
 C  H  Rav=1.0878 sigma=0.0049  Rmin=1.0803  Rmax=1.0929    10
 C  C  Rav=1.4224 sigma=0.0577  Rmin=1.3647  Rmax=1.4801     2
 N  H  Rav=1.0137 sigma=0.0000  Rmin=1.0137  Rmax=1.0137     1
 N  C  Rav=1.3679 sigma=0.0529  Rmin=1.2680  Rmax=1.4386    10
 O  C  Rav=1.2044 sigma=0.0042  Rmin=1.2002  Rmax=1.2085     2

 selected bond angles (degree)
 --------------------
H15-C1-N2=123.06               H16-C1-N2=118.34               H16-C1-H15=118.26              C3-N2-C1=147.79                
N4-C3-N2=125.72                H18-C3-N2=117.19               H18-C3-N4=116.59               C5-N4-C3=125.52                
H25-N4-C3=116.88               H25-N4-C5=117.51               C6-C5-N4=126.97                H17-C5-N4=116.08               
H17-C5-C6=116.95               C7-C6-C5=120.39                N13-C6-C5=132.80               N13-C6-C7=106.81               
O8-C7-C6=127.95                N9-C7-C6=105.03                N9-C7-O8=127.01                C10-N9-C7=124.92               
C11-N9-C7=111.24               C11-N9-C10=123.84              H19-C10-N9=108.32              H20-C10-N9=110.50              
H20-C10-H19=109.27             H21-C10-N9=109.40              H21-C10-H19=110.75             H21-C10-H20=108.62             

 selected dihedral angles (degree)
 ---------------------------------
C3-N2-C1-H15= 26.60           C3-N2-C1-H16=199.71           N4-C3-N2-C1= 45.03            H18-C3-N2-C1=216.62           
C5-N4-C3-N2=353.95            C5-N4-C3-H18=182.32           H25-N4-C3-N2=170.46           H25-N4-C3-H18=358.83          
C6-C5-N4-C3=178.29            C6-C5-N4-H25=  1.80           H17-C5-N4-C3=358.79           H17-C5-N4-H25=182.30          
C7-C6-C5-N4=179.22            C7-C6-C5-H17=358.71           N13-C6-C5-N4=359.67           N13-C6-C5-H17=179.17          
O8-C7-C6-C5=359.62            O8-C7-C6-N13=179.27           N9-C7-C6-C5=180.15            N9-C7-C6-N13=359.80           
C10-N9-C7-C6=180.31           C10-N9-C7-O8=  0.83           C11-N9-C7-C6=  0.20           C11-N9-C7-O8=180.72           
H19-C10-N9-C7=340.73          H19-C10-N9-C11=160.86         H20-C10-N9-C7=100.39          H20-C10-N9-C11=280.52         
H21-C10-N9-C7=219.92          H21-C10-N9-C11= 40.05         
           -------------------------------------------------
          |                Final Singlepoint                |
           -------------------------------------------------

          ...................................................
          :                      SETUP                      :
          :.................................................:
          :  # basis functions                  67          :
          :  # atomic orbitals                  67          :
          :  # shells                           39          :
          :  # electrons                        74          :
          :  max. iterations                   250          :
          :  Hamiltonian                  GFN2-xTB          :
          :  restarted?                      false          :
          :  GBSA solvation                  false          :
          :  PC potential                    false          :
          :  electronic temp.         7500.0000000     K    :
          :  accuracy                    1.0000000          :
          :  -> integral cutoff          0.2500000E+02      :
          :  -> integral neglect         0.1000000E-07      :
          :  -> SCF convergence          0.1000000E-05 Eh   :
          :  -> wf. convergence          0.1000000E-03 e    :
          :  Broyden damping             0.4000000          :
          ...................................................

 iter      E             dE          RMSdq      gap      omega  full diag
   1    -42.7458386 -0.427458E+02  0.503E-05    1.91       0.0  T
   2    -42.7458386 -0.648726E-11  0.303E-05    1.91     660.5  T
   3    -42.7458386 -0.160725E-10  0.203E-05    1.91     983.7  T

   *** convergence criteria satisfied after 3 iterations ***

         #    Occupation            Energy/Eh            Energy/eV
      -------------------------------------------------------------
         1        2.0000           -0.8771562             -23.8686
       ...           ...                  ...                  ...
        31        1.9895           -0.6175650             -16.8048
        32        1.9862           -0.6109440             -16.6246
        33        1.9655           -0.5890522             -16.0289
        34        1.9549           -0.5825298             -15.8514
        35        1.8959           -0.5619389             -15.2911
        36        1.8927           -0.5611620             -15.2700
        37        1.7133           -0.5354651             -14.5707 (HOMO)
        38        0.4729           -0.4651600             -12.6576 (LUMO)
        39        0.1316           -0.4299826             -11.7004
        40        0.0204           -0.3842922             -10.4571
        41        0.0025           -0.3341132              -9.0917
        42        0.0007           -0.3050624              -8.3012
       ...           ...                  ...                  ...
        67                          0.5751957              15.6519
      -------------------------------------------------------------
                  HL-Gap            0.0703052 Eh            1.9131 eV
             Fermi-level           -0.4930033 Eh          -13.4153 eV

 SCC (total)                   0 d,  0 h,  0 min,  0.020 sec
 SCC setup                      ...        0 min,  0.000 sec (  0.864%)
 Dispersion                     ...        0 min,  0.000 sec (  0.878%)
 classical contributions        ...        0 min,  0.000 sec (  0.330%)
 integral evaluation            ...        0 min,  0.004 sec ( 20.290%)
 iterations                     ...        0 min,  0.005 sec ( 23.462%)
 molecular gradient             ...        0 min,  0.011 sec ( 53.579%)
 printout                       ...        0 min,  0.000 sec (  0.542%)

         :::::::::::::::::::::::::::::::::::::::::::::::::::::
         ::                     SUMMARY                     ::
         :::::::::::::::::::::::::::::::::::::::::::::::::::::
         :: total energy             -42.197131928437 Eh    ::
         :: gradient norm              0.005536563667 Eh/a0 ::
         :: HOMO-LUMO gap              1.913101199937 eV    ::
         ::.................................................::
         :: SCC energy               -42.745838600032 Eh    ::
         :: -> isotropic ES            0.133975944722 Eh    ::
         :: -> anisotropic ES         -0.008621649734 Eh    ::
         :: -> anisotropic XC          0.018030164021 Eh    ::
         :: -> dispersion             -0.020573374923 Eh    ::
         :: repulsion energy           0.548716255677 Eh    ::
         :: add. restraining           0.000000000000 Eh    ::
         :: total charge               1.000000000005 e     ::
         :::::::::::::::::::::::::::::::::::::::::::::::::::::

           -------------------------------------------------
          |                Property Printout                |
           -------------------------------------------------

    * Orbital Energies and Occupations

         #    Occupation            Energy/Eh            Energy/eV
      -------------------------------------------------------------
         1        2.0000           -0.8771562             -23.8686
       ...           ...                  ...                  ...
        25        1.9987           -0.6681131             -18.1803
        26        1.9983           -0.6612314             -17.9930
        27        1.9981           -0.6588632             -17.9286
        28        1.9958           -0.6393635             -17.3980
        29        1.9951           -0.6359317             -17.3046
        30        1.9923           -0.6250969             -17.0098
        31        1.9895           -0.6175650             -16.8048
        32        1.9862           -0.6109440             -16.6246
        33        1.9655           -0.5890522             -16.0289
        34        1.9549           -0.5825298             -15.8514
        35        1.8959           -0.5619389             -15.2911
        36        1.8927           -0.5611620             -15.2700
        37        1.7133           -0.5354651             -14.5707 (HOMO)
        38        0.4729           -0.4651600             -12.6576 (LUMO)
        39        0.1316           -0.4299826             -11.7004
        40        0.0204           -0.3842922             -10.4571
        41        0.0025           -0.3341132              -9.0917
        42        0.0007           -0.3050624              -8.3012
        43        0.0000           -0.1797897              -4.8923
        44        0.0000           -0.1547955              -4.2122
        45        0.0000           -0.1234840              -3.3602
        46                         -0.0779108              -2.1201
        47                         -0.0690942              -1.8801
        48                         -0.0452609              -1.2316
       ...                                ...                  ...
        67                          0.5751957              15.6519
      -------------------------------------------------------------
                  HL-Gap            0.0703052 Eh            1.9131 eV
             Fermi-level           -0.4930033 Eh          -13.4153 eV

     #   Z          covCN         q      C6AA      α(0)
     1   6 C        2.769     0.009    27.798     8.635
     2   7 N        1.826    -0.034    22.619     7.047
     3   6 C        2.767     0.088    26.025     8.355
     4   7 N        2.688    -0.053    22.260     7.007
     5   6 C        2.837     0.004    27.928     8.660
     6   6 C        2.986     0.014    27.682     8.631
     7   6 C        2.850     0.260    22.633     7.797
     8   8 O        0.857    -0.333    20.383     6.053
     9   7 N        2.792    -0.067    22.540     7.051
    10   6 C        3.690    -0.056    21.780     6.679
    11   6 C        2.831     0.316    21.636     7.622
    12   8 O        0.857    -0.338    20.479     6.067
    13   7 N        2.785    -0.051    22.216     7.000
    14   6 C        3.690    -0.066    21.957     6.706
    15   1 H        0.925     0.113     1.667     2.019
    16   1 H        0.926     0.132     1.522     1.929
    17   1 H        0.926     0.107     1.720     2.051
    18   1 H        0.925     0.116     1.643     2.004
    19   1 H        0.925     0.114     1.664     2.017
    20   1 H        0.924     0.107     1.725     2.054
    21   1 H        0.924     0.111     1.688     2.032
    22   1 H        0.924     0.082     1.954     2.186
    23   1 H        0.924     0.082     1.958     2.188
    24   1 H        0.924     0.123     1.588     1.971
    25   1 H        0.860     0.218     1.019     1.581

 Mol. C6AA /au·bohr⁶  :       6653.119379
 Mol. C8AA /au·bohr⁸  :     152975.960850
 Mol. α(0) /au        :        125.345043


Wiberg/Mayer (AO) data.
largest (>0.10) Wiberg bond orders for each atom

 ---------------------------------------------------------------------------
     #   Z sym  total        # sym  WBO       # sym  WBO       # sym  WBO
 ---------------------------------------------------------------------------
     1   6 C    3.649 --     2 N    1.696    16 H    0.937    15 H    0.923
     2   7 N    3.306 --     1 C    1.696     3 C    1.487
     3   6 C    3.781 --     2 N    1.487     4 N    1.228    18 H    0.932
     4   7 N    3.513 --     3 C    1.228     5 C    1.189    25 H    0.912
     5   6 C    3.780 --     6 C    1.469     4 N    1.189    17 H    0.944
     6   6 C    3.811 --     5 C    1.469    13 N    1.154     7 C    1.004
     7   6 C    3.892 --     8 O    1.677     9 N    1.119     6 C    1.004
     8   8 O    1.930 --     7 C    1.677     9 N    0.121
     9   7 N    3.487 --     7 C    1.119    11 C    1.093    10 C    0.988
                             8 O    0.121    12 O    0.105
    10   6 C    3.882 --     9 N    0.988    19 H    0.959    21 H    0.954
                            20 H    0.943
    11   6 C    3.921 --    12 O    1.681     9 N    1.093    13 N    1.064
    12   8 O    1.965 --    11 C    1.681    13 N    0.106     9 N    0.105
    13   7 N    3.444 --     6 C    1.154    11 C    1.064    14 C    0.994
                            12 O    0.106
    14   6 C    3.920 --    13 N    0.994    23 H    0.960    22 H    0.960
                            24 H    0.959
    15   1 H    0.959 --     1 C    0.923
    16   1 H    0.966 --     1 C    0.937
    17   1 H    0.986 --     5 C    0.944
    18   1 H    0.976 --     3 C    0.932
    19   1 H    0.974 --    10 C    0.959
    20   1 H    0.961 --    10 C    0.943
    21   1 H    0.969 --    10 C    0.954
    22   1 H    0.978 --    14 C    0.960
    23   1 H    0.978 --    14 C    0.960
    24   1 H    0.980 --    14 C    0.959
    25   1 H    0.950 --     4 N    0.912
 ---------------------------------------------------------------------------

Topologies differ in total number of bonds
Writing topology from bond orders to xtbtopo.mol

molecular dipole:
                 x           y           z       tot (Debye)
 q only:        2.603      -1.387       0.034
   full:        2.586      -1.553       0.095       7.671
molecular quadrupole (traceless):
                xx          xy          yy          xz          yz          zz
 q only:       24.290     -14.647      -1.923       0.110       0.244     -22.367
  q+dip:       21.091     -14.251      -1.595       0.860       0.451     -19.496
   full:       20.145     -15.214      -2.405       1.401       0.291     -17.740

           -------------------------------------------------
          |                Geometry Summary                 |
           -------------------------------------------------

      molecular mass/u    :      195.1988581
   center of mass at/Å    :        0.0046472       0.0219223      -0.0165931
  moments of inertia/u·Å² :        0.3741314E+03   0.1281256E+04   0.1644695E+04
rotational constants/cm⁻¹ :        0.4505805E-01   0.1315711E-01   0.1024970E-01

 * 24 selected distances

     #   Z          #   Z                                           value/Å
     1   6 C        2   7 N                                       1.2680384
     2   7 N        3   6 C                                       1.2865977
     3   6 C        4   7 N                                       1.3546791
     4   7 N        5   6 C                                       1.3632474
     5   6 C        6   6 C                                       1.3647452
     7   6 C        8   8 O                                       1.2085357
     7   6 C        9   7 N                                       1.3787774
     9   7 N       10   6 C                                       1.4384183
     9   7 N       11   6 C                                       1.3821348
    11   6 C       12   8 O                                       1.2002327
     6   6 C       13   7 N                                       1.3700599
    11   6 C       13   7 N                                       1.3985045
    13   7 N       14   6 C                                       1.4385774 (max)
     1   6 C       15   1 H                                       1.0859771
     1   6 C       16   1 H                                       1.0805667
     5   6 C       17   1 H                                       1.0803286
     3   6 C       18   1 H                                       1.0820253
    10   6 C       19   1 H                                       1.0895357
    10   6 C       20   1 H                                       1.0928732
    10   6 C       21   1 H                                       1.0903239
    14   6 C       22   1 H                                       1.0923557
    14   6 C       23   1 H                                       1.0923883
    14   6 C       24   1 H                                       1.0918531
     4   7 N       25   1 H                                       1.0137445 (min)

 * 5 distinct bonds (by element types)

   Z      Z             #   av. dist./Å        max./Å        min./Å
   1 H    6 C          10     1.0878227     1.0928732     1.0803286
   6 C    6 C           1     1.3647452     1.3647452     1.3647452
   1 H    7 N           1     1.0137445     1.0137445     1.0137445
   6 C    7 N          10     1.3679035     1.4385774     1.2680384
   6 C    8 O           2     1.2043842     1.2085357     1.2002327


optimized geometry written to: xtbopt.xyz


           -------------------------------------------------
          | TOTAL ENERGY              -42.197131928437 Eh   |
          | GRADIENT NORM               0.005536563667 Eh/α |
          | HOMO-LUMO GAP               1.913101199937 eV   |
           -------------------------------------------------

------------------------------------------------------------------------
 * finished run on 2024/06/05 at 19:58:59.269     
------------------------------------------------------------------------
 total:
 * wall-time:     0 d,  0 h,  0 min,  0.387 sec
 *  cpu-time:     0 d,  0 h,  0 min,  0.357 sec
 * ratio c/w:     0.922 speedup
 SCF:
 * wall-time:     0 d,  0 h,  0 min,  0.022 sec
 *  cpu-time:     0 d,  0 h,  0 min,  0.022 sec
 * ratio c/w:     1.000 speedup
 ANC optimizer:
 * wall-time:     0 d,  0 h,  0 min,  0.328 sec
 *  cpu-time:     0 d,  0 h,  0 min,  0.321 sec
 * ratio c/w:     0.979 speedup

