25
 energy: -39.915602864351 gnorm: 11.569737964665 xtb: 6.6.1 (8d0f1dd)
C            4.53083745326384        0.42928143603837        0.00941204627457
N            4.05664893423259       -0.71144411186751       -0.26385639351060
C            3.15556627901948       -1.60454857762343       -0.05255099705177
N            1.82714957362042       -1.37292612377840       -0.01213422014413
C            1.29702070285165       -0.05202921859307       -0.05267347005852
C           -0.10072785046552        0.06715327180843       -0.02675268741956
C           -0.66651031567735        1.43634167274548       -0.04246397553219
O           -0.07635331703530        2.49037214359657       -0.07554469441756
N           -2.03639607698950        1.26170772996672        0.00088412234634
C           -3.00626061543293        2.32375911933798       -0.00254551943711
C           -2.36620340361596       -0.07684686555178        0.04373898585853
O           -3.46247672058058       -0.56184570927170        0.09541901593644
N           -1.16244375094648       -0.79480268695486        0.02474905542910
C           -1.18852463139937       -2.23378894355282        0.05512648970872
H            4.37243656150343        0.92180801046902        0.96395643875495
H            5.19745139356368        0.89347797518883       -0.70342109851418
H            1.53011405750406        0.25176304672014       -0.07397724307691
H            3.47470500734685       -2.63949525833256       -0.03641906549504
H           -2.50891258348959        3.24516227636250        0.29916705926633
H           -3.42878005011073        2.45280688027539       -1.00227725334446
H           -3.81425788955871        2.07718641811742        0.68713179268295
H           -0.69676546662466       -2.62048108211506        0.95066140103063
H           -0.74616065328189       -2.65680341921504       -0.84966434764935
H           -2.24027641775697       -2.52674379632571        0.09002505556976
H            1.21955129415753       -2.18082564583981        0.00518112069134
25
 energy: -42.167107581457 gnorm: 0.171477241864 xtb: 6.6.1 (8d0f1dd)
C            4.53084087767380        0.42927787595103        0.00940141355179
N            4.05658367346527       -0.71134140295733       -0.26385061120190
C            3.15554648746526       -1.60395553750573       -0.05256860575221
N            1.82349040837941       -1.38147061629084       -0.01168005439849
C            1.11193560954950       -0.29345226583267       -0.03578520847643
C           -0.10857282248743        0.06111813349108       -0.02626607658718
C           -0.66612842554288        1.43636720475947       -0.04248461877966
O           -0.07626466779770        2.49034140285997       -0.07553749368238
N           -2.03637792581052        1.26175800190401        0.00087822873390
C           -3.00625854094348        2.32377051788681       -0.00254441244341
C           -2.36627424371075       -0.07679610182154        0.04373612999535
O           -3.46249108727821       -0.56185145131791        0.09541810273295
N           -1.16349484620288       -0.79447693100124        0.02474307972729
C           -1.18856123339548       -2.23378743422939        0.05512942568876
H            4.37243223565022        0.92180381537427        0.96394746637375
H            5.19744193646505        0.89347709166854       -0.70341696985601
H            1.72679877499074        0.50775425559693       -0.09177602681308
H            3.47475507473004       -2.63944556966614       -0.03642170129722
H           -2.50891041160183        3.24515886332130        0.29916617245424
H           -3.42877875288577        2.45280799616161       -1.00227783352986
H           -3.81425584494845        2.07718866350034        0.68713048729516
H           -0.69676927429822       -2.62048142724078        0.95066244185452
H           -0.74616194417732       -2.65680518167857       -0.84966402105343
H           -2.24027638631250       -2.52674801515889        0.09002534210851
H            1.22018284312211       -2.18197334616921        0.00520696125333
25
 energy: -42.189127891254 gnorm: 0.071984716548 xtb: 6.6.1 (8d0f1dd)
C            4.52756544187348        0.43518084059221        0.00655814017462
N            4.06952945958682       -0.71438842047744       -0.26463713256955
C            3.18354409494262       -1.62238015584397       -0.05095266519423
N            1.85089015985315       -1.42608477525887       -0.00767640960688
C            1.17563984013251       -0.26424395426359       -0.03669996690512
C           -0.14040452537392        0.07310540216479       -0.02654178332093
C           -0.68443058173306        1.44316569816545       -0.04311247393588
O           -0.08590040145535        2.49075150797151       -0.07518327499464
N           -2.05312775921307        1.26581317051457        0.00071510107686
C           -3.01616015077641        2.33011752321406       -0.00243716806287
C           -2.39848182008779       -0.07219384793976        0.04400756410803
O           -3.49745751682971       -0.55074561045147        0.09597821903562
N           -1.20733376525116       -0.79120701679289        0.02528068433525
C           -1.20577004651239       -2.23018984275408        0.05544565102081
H            4.36705937443015        0.92578843908226        0.96176502004793
H            5.20021205551532        0.89848200881153       -0.70069882636823
H            1.79227693191866        0.53938128832496       -0.09255235833455
H            3.50681348152352       -2.65226657731936       -0.04358146618702
H           -2.51380786569705        3.24824776194420        0.29969615467513
H           -3.43608112399504        2.45665778936737       -1.00311588557754
H           -3.82221189527281        2.08135672578668        0.68798638650002
H           -0.70397904867193       -2.61112313230910        0.94923232663730
H           -0.75303087106958       -2.64779061952660       -0.84807316589323
H           -2.25117406401434       -2.53943099227266        0.09052349091873
H            1.25625211027524       -2.24776466912487        0.00924545631867
25
 energy: -42.193269225043 gnorm: 0.065996243723 xtb: 6.6.1 (8d0f1dd)
C            4.54563607874031        0.42595406614583        0.01769316282415
N            4.06804828960581       -0.71098737126707       -0.27219081443489
C            3.18362542499248       -1.61974951939347       -0.05487605693701
N            1.84657608330474       -1.43310030740885       -0.00597620301648
C            1.20078083972405       -0.22948259370672       -0.03829676977241
C           -0.14082258546168        0.05706720603173       -0.02508124131297
C           -0.68082175343311        1.42730847764533       -0.04221073949274
O           -0.07743422386051        2.47333560636226       -0.07474800672935
N           -2.05153570069334        1.26044310248669        0.00081709652639
C           -3.01160441349848        2.33134610981444       -0.00317595147455
C           -2.40517246067584       -0.07607527701785        0.04470391628139
O           -3.51011687856718       -0.54392137022400        0.09584158157348
N           -1.21810733710084       -0.80169348645462        0.02713629362482
C           -1.21785433582150       -2.23745034040910        0.05654932830128
H            4.34738632358376        0.93167877846349        0.95864348440440
H            5.18982881313701        0.91032289646832       -0.70241475254797
H            1.81819730085425        0.57922558638417       -0.09478179121051
H            3.51260098167619       -2.64949412902009       -0.04689696274646
H           -2.50856829816189        3.24914150383336        0.29877299927401
H           -3.43384090036843        2.46300151677742       -1.00260342035038
H           -3.82151080695245        2.08985508978073        0.68593590993508
H           -0.71370092163429       -2.61238009719097        0.95089372391750
H           -0.76186638494508       -2.64856937739625       -0.84774599703871
H           -2.26241236527793       -2.55094562331832        0.09103506131171
H            1.26312074493154       -2.26659190578183        0.01414776698858
25
 energy: -42.191262004590 gnorm: 0.076906227492 xtb: 6.6.1 (8d0f1dd)
C            4.43582717702977        0.49819168005210       -0.03567952585149
N            4.05944746927172       -0.69843966847404       -0.24847491961626
C            3.17652856301745       -1.61495340564154       -0.05826119633100
N            1.83440929604195       -1.43614009105280       -0.00748879893559
C            1.22439724962963       -0.19427470790492       -0.03970434170408
C           -0.13774952613395        0.03179117069470       -0.02262084116701
C           -0.67423147236928        1.40543392348489       -0.04027732718004
O           -0.06501519434649        2.44966030297644       -0.07295451355433
N           -2.04764751140758        1.25429944293074        0.00091063219331
C           -3.00391639299398        2.33196121356197       -0.00393978344115
C           -2.40792309762124       -0.08072599029692        0.04482646134092
O           -3.51886719638896       -0.53609834795304        0.09447820871221
N           -1.22464332164156       -0.81597527547423        0.02886468484117
C           -1.23228704910110       -2.24964749011234        0.05761201224596
H            4.40516730676593        0.92534130533762        0.97269078826333
H            5.23567775316260        0.87597893865018       -0.67864654262879
H            1.84394239082937        0.62291905081597       -0.09572117334620
H            3.51817808586309       -2.64366868998035       -0.05113216706436
H           -2.49857780265208        3.24850637375887        0.29822761554365
H           -3.42716754888838        2.46814635793688       -1.00283324365175
H           -3.81775691790395        2.09757188801776        0.68389152177804
H           -0.72878757420769       -2.62185360547489        0.95261731519491
H           -0.77525972309373       -2.65740595343296       -0.84686421666341
H           -2.27683455682045       -2.56501540325764        0.09104927268367
H            1.26352110805670       -2.27736447755756        0.01060169623662
25
 energy: -42.195058806078 gnorm: 0.062124714300 xtb: 6.6.1 (8d0f1dd)
C            4.51807930368579        0.44531421787387        0.00821184998893
N            4.06298150734257       -0.70508616064322       -0.26268669344530
C            3.17543334413752       -1.61162255921262       -0.05732927595493
N            1.83388067673709       -1.42655494551463       -0.00598971698331
C            1.22223598538172       -0.19426964031394       -0.04066893821678
C           -0.13458476683541        0.02958025624438       -0.02228821444286
C           -0.67253039147492        1.40481557102957       -0.04028909823427
O           -0.06320569485906        2.44873362207964       -0.07298238971333
N           -2.04585047670838        1.25536943002886        0.00081183778303
C           -3.00144990537631        2.33223156064769       -0.00393754822685
C           -2.40370681320077       -0.07988184204816        0.04470413080992
O           -3.51363943959016       -0.53582742939431        0.09402401192444
N           -1.21943601358788       -0.81603358390248        0.02940093126454
C           -1.23303026572694       -2.25150563909511        0.05796230157919
H            4.35322222873566        0.93609640546861        0.95893004478174
H            5.18613667106423        0.90941544380090       -0.69804990535977
H            1.84240588724962        0.62563709862715       -0.09721456365137
H            3.51378377494158       -2.64150919364608       -0.05219722232878
H           -2.49429035114388        3.24775082051665        0.29849780508238
H           -3.42313827411596        2.46729737586455       -1.00357111674614
H           -3.81466823886738        2.09694322299686        0.68420742747688
H           -0.73273657121827       -2.62829369988173        0.95282117929324
H           -0.77868526004110       -2.66320111896883       -0.84603261150843
H           -2.27859723727336       -2.56388941796509        0.09090660560664
H            1.26182183484136       -2.26327125298815        0.01393078711965
25
 energy: -42.195487693728 gnorm: 0.052819145069 xtb: 6.6.1 (8d0f1dd)
C            4.52332119288053        0.44347830147813        0.01113201161917
N            4.06225665320488       -0.70409668091240       -0.26574334066821
C            3.17535301108294       -1.61074063625029       -0.05816494624189
N            1.83507168736795       -1.42195887118367       -0.00602703806868
C            1.21564262449978       -0.20047807241820       -0.04004067241220
C           -0.13402537911297        0.02943112952907       -0.02145552014294
C           -0.67172076670836        1.40568524842471       -0.04006247935817
O           -0.06180830525144        2.44893255514605       -0.07264017953702
N           -2.04421291409579        1.25524233179458        0.00076676600836
C           -2.99861178039554        2.33177935623644       -0.00427030521975
C           -2.40088093426456       -0.08014065464470        0.04476645210601
O           -3.50958297531408       -0.53818237301366        0.09377708771909
N           -1.21587249377421       -0.81611440717858        0.02999571942628
C           -1.23461839704970       -2.25293436666316        0.05872285281320
H            4.34307434201007        0.94112213651296        0.95888539124270
H            5.18799615883037        0.91388181633766       -0.69856363412439
H            1.83683260755461        0.62219253792201       -0.09662523063946
H            3.51347796758947       -2.64003604747839       -0.05499984244179
H           -2.48971392090152        3.24630129007407        0.29822373191284
H           -3.41882227227044        2.46626301262945       -1.00436863716411
H           -3.81118136106826        2.09619112095994        0.68409252189515
H           -0.73729154816670       -2.63395105171192        0.95372407128794
H           -0.78270736290744       -2.66872861930570       -0.84485653330786
H           -2.28201631946468       -2.55904305421526        0.09123700351593
H            1.26047199982236       -2.25585746046487        0.01366636767828
25
 energy: -42.196074984789 gnorm: 0.038419375701 xtb: 6.6.1 (8d0f1dd)
C            4.51925811434482        0.44782956650775        0.01279124240162
N            4.06338517262290       -0.70236254648581       -0.26463848191096
C            3.17529836916542       -1.60910659145138       -0.06085584866391
N            1.83603829699486       -1.41429674827815       -0.00708545058447
C            1.21250064158463       -0.20190422233619       -0.03996382744226
C           -0.13158064476620        0.02230532654823       -0.01934713983470
C           -0.66779140362354        1.40126498097174       -0.03881442763936
O           -0.05455573231030        2.44229750679932       -0.07106468537304
N           -2.03933496281142        1.25300813642217        0.00074475246659
C           -2.99013908777120        2.33139021349897       -0.00521156844497
C           -2.39602854441274       -0.08212378849333        0.04489047907536
O           -3.50411623869425       -0.54075888459490        0.09279727253877
N           -1.21070561402080       -0.82051326438492        0.03163176764541
C           -1.24215879872183       -2.25898928092988        0.06058979098853
H            4.32682902485923        0.94980729649700        0.95857610827600
H            5.18013913208580        0.92522124134449       -0.69910408049529
H            1.83715744729535        0.63062033747057       -0.09641675629321
H            3.51409895775844       -2.63751830597685       -0.06040706832545
H           -2.47708738400449        3.24355171427763        0.29752406394980
H           -3.40783979128979        2.46667189905488       -1.00600276462494
H           -3.80314422802719        2.09806751963691        0.68293026505013
H           -0.75054052082100       -2.64711735156831        0.95592402241192
H           -0.79443438663364       -2.68159427595426       -0.84208681827577
H           -2.29336237983782       -2.55281068993854        0.09199517269164
H            1.25854607513171       -2.24470124703324        0.01177559831114
25
 energy: -42.196626225712 gnorm: 0.023207634694 xtb: 6.6.1 (8d0f1dd)
C            4.50521991785158        0.45837969066941        0.01097976431066
N            4.06494483047603       -0.69907348781603       -0.26320181844356
C            3.17797135602925       -1.60834971139122       -0.06371254080465
N            1.83921724288270       -1.40997183874949       -0.00814668165223
C            1.21236838808279       -0.20331530128246       -0.03992296384589
C           -0.12967410756728        0.01358216872605       -0.01686818508701
C           -0.66359180519771        1.39515508996567       -0.03702117015669
O           -0.04541189267591        2.43307558204367       -0.06856667835658
N           -2.03420566387408        1.24974327513531        0.00076755526190
C           -2.98027885325588        2.33172752133992       -0.00655608749330
C           -2.39255264073772       -0.08469725347704        0.04502961330102
O           -3.50052976366718       -0.54316366014673        0.09156163074531
N           -1.20739234800418       -0.82645636955840        0.03356422331782
C           -1.25212967710951       -2.26579238374016        0.06305149471547
H            4.30989241082130        0.95799117664997        0.95751101539005
H            5.17019996166216        0.93767051320173       -0.69594364408975
H            1.84265922108200        0.64420675958332       -0.09597727036263
H            3.51846980783248       -2.63553500097412       -0.06760258601741
H           -2.46225064073849        3.24106447570928        0.29649669846543
H           -3.39533316013601        2.46899229149733       -1.00802464224896
H           -3.79484431864628        2.10273266176564        0.68086858310254
H           -0.76576871639314       -2.65996622374720        0.95866488644618
H           -0.80809883740847       -2.69469983565764       -0.83850652173212
H           -2.30718881266404       -2.54678629345200        0.09339708266944
H            1.25873961545212       -2.23827530469134        0.00932986046367
25
 energy: -42.196970754291 gnorm: 0.012404542183 xtb: 6.6.1 (8d0f1dd)
C            4.49237306377062        0.46692600745934        0.00894118305386
N            4.06631423708212       -0.69594111383374       -0.26491256841581
C            3.18271329007752       -1.60933078834816       -0.06648774966374
N            1.84354087159557       -1.41355245335202       -0.00928076433382
C            1.21431638328119       -0.20723002584314       -0.03961055705566
C           -0.12967563750534        0.00886567288506       -0.01533726871864
C           -0.66154965942658        1.39122673622429       -0.03556913561889
O           -0.03962839314798        2.42690935841772       -0.06636438005271
N           -2.03194596724463        1.24774560433559        0.00087391012462
C           -2.97463835452659        2.33324343412521       -0.00775332377439
C           -2.39308205331845       -0.08575048687965        0.04517811453542
O           -3.50158981531964       -0.54317690298225        0.09086437731568
N           -1.20869766045503       -0.83006673197173        0.03475395478779
C           -1.25837239995525       -2.26878824333239        0.06511153450070
H            4.29691581449150        0.96136351637822        0.95698889750354
H            5.16183529726681        0.94750964971062       -0.69142849519318
H            1.85001708492137        0.65355706107506       -0.09510115232306
H            3.52543864478371       -2.63548269111292       -0.07183498651753
H           -2.45354303634143        3.24079712770907        0.29552815325693
H           -3.38819969738830        2.47229256805409       -1.00963085003632
H           -3.79110036186339        2.10827580782378        0.67877641294904
H           -0.77334698450510       -2.66375850807136        0.96083593301331
H           -0.81525124257708       -2.69966796028590       -0.83575190660454
H           -2.31452017705290       -2.54522716573185        0.09529282135599
H            1.26210826745352       -2.24250093084978        0.00708946381021
25
 energy: -42.197131927838 gnorm: 0.005534220040 xtb: 6.6.1 (8d0f1dd)
C            4.48453222449117        0.47078419361710        0.00812048562020
N            4.06705499070290       -0.69425816216734       -0.26812240319308
C            3.18703245590102       -1.61123304650550       -0.06799551192152
N            1.84685242439221       -1.42218960529346       -0.01024559315741
C            1.21543154096927       -0.21432614737354       -0.03882071594579
C           -0.13073519519188        0.00883918192778       -0.01512732572135
C           -0.66107479266109        1.39048837648076       -0.03487438827742
O           -0.03786924417678        2.42550645713176       -0.06505355457379
N           -2.03199275260873        1.24791831445171        0.00096399204642
C           -2.97346080516444        2.33538980707263       -0.00854245109987
C           -2.39586634438776       -0.08472455170892        0.04518326704663
O           -3.50519856913753       -0.54064006101592        0.09080572396860
N           -1.21266579963873       -0.83020634146655        0.03479717640403
C           -1.25891821879842       -2.26769350089545        0.06635464548391
H            4.28854565294966        0.96075664892682        0.95725809525356
H            5.15499062362598        0.95384455810223       -0.68812827905904
H            1.85485956686189        0.65471823632090       -0.09362283045753
H            3.53164879956590       -2.63689803117353       -0.07342055425111
H           -2.45183295956400        3.24255156006646        0.29485457648793
H           -3.38671550221515        2.47505185862054       -1.01058370521635
H           -3.79122118807121        2.11238224540619        0.67727201660712
H           -0.77163880793763       -2.65935483400203        0.96212302948272
H           -0.81446164132239       -2.69710085437858       -0.83441146453372
H           -2.31375971429671       -2.54785812364678        0.09734117758306
H            1.26689476980853       -2.25350963689428        0.00504620932263
