25
 energy: -40.560050865498 gnorm: 8.671769484737 xtb: 6.6.1 (8d0f1dd)
C            3.28923653260056        0.87495387499263        0.33824357956993
N            2.02066732258082       -0.83426969525585       -1.02671224930860
C            2.33802956330326       -0.27700830861660        0.32163969135867
N            1.16881954750640       -2.04684676699130       -0.83881203266733
C            0.22791326217768       -1.35031509654307       -0.24670471247781
C            0.96575917252936       -0.07154265379253       -0.22931089729373
C            0.17030173368065        1.17882783968316       -0.43128678824579
O            0.59855444608917        2.22093332256293       -0.84161649294908
N           -1.12298142947993        0.95259210633185       -0.00351742334748
C           -2.00660524052464        2.11597926263823        0.06777332154895
C           -1.75179173087456       -0.25222235025431        0.34217018343262
O           -2.87298769208155       -0.27815767131325        0.74889924289107
N           -1.03469658321354       -1.46023682240223        0.12045704385937
C           -1.73831674710531       -2.72831908772827        0.16303101779977
H            3.26486867264045        1.34698189442308        1.31943871354441
H            4.30639673704983        0.52389729620984        0.16894255108488
H            3.03305036260234        1.62279842854531       -0.40986629057745
H            2.48009645892999       -1.03761452631436        1.08579108003249
H           -1.42057930184311        3.00657060454305       -0.14347023808477
H           -2.81071041641050        2.01902960419851       -0.66138570897284
H           -2.44659203052381        2.17600554979300        1.06227496139337
H           -1.33013879270735       -3.35086066663321        0.95847201558105
H           -1.61855611197476       -3.24511590854096       -0.78885258942399
H           -2.79003114489382       -2.52914876292905        0.35825127195160
H            2.24072492402826       -0.75867292496791       -1.40267763279477
25
 energy: -42.053068775775 gnorm: 0.245716434122 xtb: 6.6.1 (8d0f1dd)
C            3.28925299844195        0.87484713931805        0.33788908746754
N            1.87944154410741       -0.88382045524111       -0.78393471796762
C            2.33581004180200       -0.27611222506807        0.33151057544553
N            1.16332172671454       -2.05072915889457       -0.83349826728534
C            0.22528408068068       -1.35138898328683       -0.24498964470580
C            0.95914626319048       -0.06968270384285       -0.22149107182893
C            0.17033273042180        1.17896340507967       -0.43163699324180
O            0.59861950051971        2.22096935979514       -0.84165618715391
N           -1.12302607567166        0.95265149967193       -0.00353447276561
C           -2.00660077850577        2.11597718517590        0.06776623332658
C           -1.75179613985852       -0.25227024254570        0.34216213816513
O           -2.87301599517298       -0.27813937861975        0.74890522561191
N           -1.03503777416225       -1.46013296314227        0.12036064713071
C           -1.73832680767379       -2.72835378149061        0.16302771393471
H            3.26491247160822        1.34698413067219        1.31938422138386
H            4.30637671370374        0.52388590566020        0.16890476264538
H            3.03302282779250        1.62277479330049       -0.40988311317707
H            2.48030450605420       -1.03746020949054        1.08641620091617
H           -1.42057791855883        3.00656966074197       -0.14347259345815
H           -2.81070637045747        2.01903002377127       -0.66138258190981
H           -2.44658953969387        2.17601173506645        1.06227611993206
H           -1.33014103670502       -3.35085533876857        0.95847658544115
H           -1.61855221416646       -3.24511188604846       -0.78884159200271
H           -2.79003827340630       -2.52915003641509        0.35825085461774
H            2.39901503308156       -0.70721893376016       -1.66983751261720
25
 energy: -42.086587138786 gnorm: 0.089423348596 xtb: 6.6.1 (8d0f1dd)
C            3.29717850505893        0.87500258093995        0.33833583752457
N            1.94672602497524       -0.88754086114430       -0.86314737141473
C            2.35198066224734       -0.27942492262247        0.35366160437684
N            1.15310805092656       -2.04765065395184       -0.82449633772043
C            0.20164560866626       -1.35499903832864       -0.22680140757050
C            0.95314351299911       -0.07260489486826       -0.20941487659091
C            0.16307738739188        1.17458048057038       -0.42754046098890
O            0.59508077576480        2.21644003147981       -0.83563810426496
N           -1.13152667653537        0.95195424010438        0.00008149875541
C           -2.01076928029453        2.11740854767940        0.07053692461369
C           -1.76745963467432       -0.25039771327485        0.34566732710108
O           -2.88811124134227       -0.27102179835984        0.75262105386465
N           -1.05952045704052       -1.46256196013681        0.12750301547852
C           -1.75219628415834       -2.73425944363239        0.16244300832836
H            3.26772484142765        1.35211032015283        1.31602205990766
H            4.31417083833788        0.52656304715592        0.16818261145490
H            3.03241909854672        1.61599925128086       -0.41410333396923
H            2.47913491855235       -1.01011789561897        1.15308118198550
H           -1.42160037683433        3.00596612554036       -0.14007229017764
H           -2.81456399462320        2.02163917931884       -0.65850881881576
H           -2.44888366114625        2.17698072549176        1.06568687997399
H           -1.33600532338284       -3.35308394673964        0.95667684448148
H           -1.62299238722612       -3.24584509919442       -0.79078370193952
H           -2.80317929342385       -2.53787983620201        0.35682535992474
H            2.46184989987312       -0.70901792400135       -1.74564688641425
25
 energy: -42.092358954510 gnorm: 0.030614770304 xtb: 6.6.1 (8d0f1dd)
C            3.29380114678904        0.86934539306135        0.34464077718391
N            1.97868113270069       -0.86819285703314       -0.91351897037253
C            2.34804240646023       -0.28420315903823        0.36516285955123
N            1.15690578886115       -2.04663678157853       -0.81601087842113
C            0.20404100974293       -1.35865098975337       -0.21576244829727
C            0.95426883392500       -0.07598072551360       -0.20085693631238
C            0.16455330752022        1.17018258367362       -0.41791345644574
O            0.59565729985422        2.21110320287173       -0.83109435770155
N           -1.13336356255215        0.94962859872828        0.00330974168460
C           -2.01195739107874        2.11682361203837        0.06811401880455
C           -1.77140328769520       -0.25118941003810        0.34896187615506
O           -2.89513680206116       -0.27002281466158        0.75119575738499
N           -1.06086432069315       -1.46351431735421        0.13506964833441
C           -1.75776830562104       -2.73462916250653        0.16784538402907
H            3.27355556091228        1.35728666277623        1.31720166065358
H            4.31058955817947        0.52179841755948        0.16948301611877
H            3.02657551978791        1.60382081314048       -0.41304131062357
H            2.46800301021753       -1.00881499959664        1.16881093198155
H           -1.42103780995852        3.00397676164805       -0.14359737825554
H           -2.81517640950258        2.02248085596168       -0.66182100734132
H           -2.45234091256067        2.18166686895245        1.06210068698906
H           -1.34579535065416       -3.35652662802653        0.96162664102512
H           -1.62787669895225       -3.24561955530595       -0.78538826039236
H           -2.81067756159042       -2.54141698148146        0.35951505451721
H            2.48915535205526       -0.68447684688513       -1.79286143234521
25
 energy: -42.092881364875 gnorm: 0.015910878868 xtb: 6.6.1 (8d0f1dd)
C            3.28943740715405        0.86877374060893        0.35069640641901
N            1.98802015521726       -0.86241951263274       -0.93201691934549
C            2.34226956345288       -0.28451296021574        0.36514090934220
N            1.15811298626533       -2.05009524230692       -0.81629629758439
C            0.21116187685660       -1.36033839487867       -0.21491274265523
C            0.95559992570256       -0.07670783250403       -0.19946599788174
C            0.16565977385748        1.16912640486705       -0.41293337860172
O            0.59558332812451        2.20993721759000       -0.82817979552332
N           -1.13354399479164        0.94915063672064        0.00558878066688
C           -2.01265756309863        2.11634622065668        0.06666800622686
C           -1.76952296135269       -0.25224088688619        0.35076015031880
O           -2.89462411662115       -0.27268471417354        0.74908411624071
N           -1.05512910214911       -1.46305960010729        0.13874927355021
C           -1.75811930154890       -2.73226303691645        0.17240752917389
H            3.27414819573338        1.36027080904063        1.32168811407352
H            4.30564646858826        0.51901634036590        0.17461348647315
H            3.02215919200242        1.60127766799825       -0.40857215316062
H            2.46556306007283       -1.01466694500567        1.16071509995701
H           -1.42117781289945        3.00273727593294       -0.14705141041170
H           -2.81472156362931        2.02013035901014       -0.66439567726610
H           -2.45503071913707        2.18467293559067        1.05966203731686
H           -1.35243319535155       -3.35706963786642        0.96718309228764
H           -1.63117920068567       -3.24427731059348       -0.78078257951583
H           -2.81135282354001       -2.53600624073939        0.36220047739171
H            2.49656193586352       -0.67685875191660       -1.80937890958774
25
 energy: -42.092970780313 gnorm: 0.011729968351 xtb: 6.6.1 (8d0f1dd)
C            3.28708089342289        0.86889999959839        0.35414574436081
N            1.99064597392943       -0.86072603967183       -0.93866097715861
C            2.33828910591931       -0.28389256599530        0.36256583531494
N            1.15744843695128       -2.05175124050068       -0.82005736387897
C            0.21522167325178       -1.36065330774544       -0.21746644716366
C            0.95633463214279       -0.07672044608831       -0.20097402679833
C            0.16581585699088        1.16886005910701       -0.41253945432559
O            0.59552905092750        2.21018997353645       -0.82682101478921
N           -1.13336791318631        0.94917778309463        0.00630405763711
C           -2.01294785846907        2.11593883490996        0.06600117773456
C           -1.76759925759836       -0.25295918586898        0.35115271922409
O           -2.89306764439723       -0.27468045314229        0.74800385959067
N           -1.05098175362025       -1.46270332753881        0.14023823636012
C           -1.75739915687411       -2.73054501389741        0.17585228979638
H            3.27066396592035        1.35878048064211        1.32571831485628
H            4.30323229515982        0.51765674151095        0.18019640449250
H            3.02166226770106        1.60283445183301       -0.40427035762554
H            2.46540645984909       -1.02006356507184        1.15201206576424
H           -1.42180749843305        3.00215279679160       -0.14947485269147
H           -2.81475337694637        2.01769183106329       -0.66515973110463
H           -2.45571177547830        2.18590682393326        1.05868176716889
H           -1.35518445973344       -3.35550554465368        0.97223169753281
H           -1.63215597167796       -3.24436748682024       -0.77666428056622
H           -2.81038318585326       -2.53077308025735        0.36454978581677
H            2.49846075418742       -0.67450997712981       -1.81439383164341
25
 energy: -42.093012103606 gnorm: 0.010040800866 xtb: 6.6.1 (8d0f1dd)
C            3.28590041062414        0.86838226613427        0.35716926442206
N            1.99096708927802       -0.85907318840259       -0.94330300239559
C            2.33566441006490       -0.28387502606295        0.35887453153209
N            1.15621518254236       -2.05163343867024       -0.82558301004919
C            0.21732186760120       -1.36018740103622       -0.22123494468777
C            0.95684349994309       -0.07633769407006       -0.20334267006308
C            0.16581264704078        1.16932646174626       -0.41306729835556
O            0.59558413270971        2.21122904457933       -0.82590226183270
N           -1.13299835432504        0.94951796718820        0.00652098955647
C           -2.01329856098790        2.11556938343269        0.06511569164295
C           -1.76594417664771       -0.25336076999901        0.35113612693982
O           -2.89165200003600       -0.27582389982256        0.74708656210458
N           -1.04807233324511       -1.46245700741545        0.14125083062267
C           -1.75627880955605       -2.72951303631604        0.17946682867911
H            3.26564707440811        1.35481831218155        1.33031496980135
H            4.30226060678022        0.51642072190331        0.18646775472082
H            3.02338900055777        1.60501772003565       -0.39960285672911
H            2.46569609426987       -1.02543097641907        1.14364442853613
H           -1.42292697967564        3.00186725119055       -0.15206204787301
H           -2.81530261790414        2.01529098795948       -0.66562841670772
H           -2.45576396929425        2.18669272187656        1.05778316726840
H           -1.35625545908110       -3.35288203472323        0.97810998003410
H           -1.63135409102782       -3.24598081956973       -0.77165093130222
H           -2.80905446069425       -2.52705073604204        0.36683138522640
H            2.49803131074070       -0.67228826803996       -1.81722345318645
25
 energy: -42.093044049442 gnorm: 0.008847661904 xtb: 6.6.1 (8d0f1dd)
C            3.28563131722449        0.86687264065534        0.36035233373570
N            1.98997553009646       -0.85663656263211       -0.94812142791731
C            2.33425381354544       -0.28485910712905        0.35457437932054
N            1.15478280130780       -2.04984337221370       -0.83261140890772
C            0.21783614962475       -1.35910637742102       -0.22580078211121
C            0.95710929848487       -0.07559062754979       -0.20618245675451
C            0.16573617658581        1.17052551811392       -0.41376462693429
O            0.59569556079007        2.21295562983724       -0.82507413215261
N           -1.13257769903755        0.95014654876946        0.00639075219100
C           -2.01388266499066        2.11530478668678        0.06396728227632
C           -1.76465628273867       -0.25343863534952        0.35081956185701
O           -2.89058907214662       -0.27615502606801        0.74612441903323
N           -1.04621068666007       -1.46223363885480        0.14200400904121
C           -1.75476478637596       -2.72909848955846        0.18355262921580
H            3.26004662803491        1.34921193987337        1.33550837065281
H            4.30244369339820        0.51483679043432        0.19362147025359
H            3.02687408874784        1.60670163961555       -0.39461706701942
H            2.46580749189425       -1.03092923800741        1.13566093585212
H           -1.42459345767077        3.00184115631748       -0.15509838831282
H           -2.81641844234332        2.01290953150293       -0.66594474264972
H           -2.45559714614912        2.18755373823727        1.05684708027301
H           -1.35632910290441       -3.34928673491747        0.98542920922189
H           -1.62849222490916       -3.24919427913247       -0.76534462872531
H           -2.80763448541604       -2.52515365815972        0.36868303114991
H            2.49598501569332       -0.66909563141143       -1.81980418468468
