25
 energy: 0.000000000000 xtb: 6.6.1 (8d0f1dd)
C            3.23720132972391        1.16630909158653        0.08434468864950
N            2.29877796055224        0.07527476373246        0.03981602671198
C            2.58028186251803       -1.21425391179017        0.03006175752192
N            1.43813944744728       -1.93419254010258        0.00098261751768
C            0.39035684826767       -1.05887462812143       -0.00790371763344
C            0.93510047688824        0.21347817468824        0.01709077332874
C            0.09450143016486        1.40504290868848       -0.00410946993748
O            0.49712746915594        2.54126690785742       -0.00342325656480
N           -1.25076628431515        1.06271869620815       -0.03085477937476
C           -2.21907191394203        2.15522079838987       -0.05001256521996
C           -1.81739470187490       -0.20012724136556       -0.04692818139228
O           -2.99983858926755       -0.37846413507442       -0.07008877579474
N           -0.92618577614240       -1.30210203518959       -0.03682761236648
C           -1.46982251276835       -2.64643077634382       -0.06029819901142
H            3.71247229913541        1.21471443890471        1.06488839270555
H            4.00791460421487        1.03430799217987       -0.67357688121503
H            2.69909982127087        2.09770098766290       -0.09130154035862
H            3.56654087521359       -1.63682977417947        0.04233139674524
H           -1.67107945562430        3.09322822573871       -0.02552706696334
H           -2.82428927394145        2.09428605349656       -0.95318074103337
H           -2.87644002486466        2.07745706351925        0.81450059976605
H           -1.17061985538665       -3.19584861009707        0.83242224714061
H           -1.14560246782873       -3.17511580834413       -0.95688266944647
H           -2.55549768731684       -2.55659960601237       -0.07459039105944
H            1.38130842369251       -2.94313824728853       -0.01389874052104
25
 energy: -5.280499036119 xtb: 6.6.1 (8d0f1dd)
C            3.23864769667381        1.17420530136660        0.09701510959994
N            2.30188466862425        0.10525203048935        0.03759185083155
C            2.60242543739351       -1.24206281736979        0.03180237964288
N            1.41860421270689       -1.93924798406680       -0.00359133918023
C            0.40018258100095       -1.05652014535941       -0.01107335315309
C            0.91386973818700        0.23914476237901        0.01606370608526
C            0.09836989738060        1.40443639747528       -0.00286114424212
O            0.42724171165261        2.59696819331021       -0.00830293855657
N           -1.27834969671225        1.04747398707676       -0.02738556391781
C           -2.19286685678332        2.18385008324395       -0.06024008779208
C           -1.82370523622234       -0.20325189900855       -0.03841414345760
O           -3.02142891497570       -0.39823168367147       -0.06237627934296
N           -0.93850027531551       -1.30608493238105       -0.03621195920327
C           -1.46434843265534       -2.65297589390769       -0.06500839340216
H            3.70048908632022        1.22768866650375        1.08719843406793
H            4.01946346732906        1.03084583496579       -0.65275272537221
H            2.69191080751557        2.09425429416780       -0.09825780088261
H            3.57845099365798       -1.65968198911461        0.03952691847080
H           -1.64029638818372        3.13721263154862       -0.13067804040433
H           -2.87190971720385        2.06383443375623       -0.90099929700424
H           -2.79236002866715        2.18057363940164        0.84336052058430
H           -1.15676906114008       -3.21161545118914        0.82260314825660
H           -1.13719598586311       -3.18238289325500       -0.96359726906790
H           -2.55052200006494       -2.57488789046586       -0.07592493652331
H            1.36332624312673       -2.94482434825364       -0.02209763329381
25
 energy: -2.248844146265 xtb: 6.6.1 (8d0f1dd)
C            3.23246018024579        1.16944701998177        0.10706158525998
N            2.29505104414898        0.09782871661581        0.03841667321192
C            2.60146159432040       -1.25244260473954        0.03173928919817
N            1.41193919136514       -1.94281153794224       -0.00978592922904
C            0.39603516308268       -1.05578258091409       -0.01654024704756
C            0.90492015062920        0.24905288485633        0.01760422774021
C            0.08573604840299        1.42143966946627        0.00894543568810
O            0.35987312409229        2.62973183793776       -0.00831246502312
N           -1.29169328978463        1.04540792758876       -0.02925291433533
C           -2.17238094525318        2.21622410595086       -0.07397075772870
C           -1.83278004445231       -0.21087301583588       -0.03189909704364
O           -3.02928068160354       -0.41456352389391       -0.05360882377497
N           -0.94192523127600       -1.31304421538884       -0.03678414713983
C           -1.45856395706029       -2.66455158756724       -0.07054009443436
H            3.67937687776645        1.23525908726163        1.10424494630304
H            4.02623605213242        1.02322147122345       -0.62962580397228
H            2.68468680112587        2.08464746155318       -0.10749258545399
H            3.57810694391525       -1.67397863400012        0.03665989593866
H           -1.62571636971403        3.17916642438177       -0.24507445113864
H           -2.92133352847029        2.03273610268009       -0.84154425615527
H           -2.70195184099125        2.28462336435258        0.86977634481801
H           -1.14500123423955       -3.22799859658850        0.81249356060132
H           -1.13115366344933       -3.19003378110528       -0.97184629672468
H           -2.54527061135068       -2.59610720037612       -0.07769710770354
H            1.35228009670248       -2.94905230158018       -0.03228709217480
25
 energy: 2.483148053298 xtb: 6.6.1 (8d0f1dd)
C            3.22536000913241        1.16358270144418        0.11679937152970
N            2.28772932169856        0.08861258362756        0.03661534966639
C            2.59842891712776       -1.26414208416352        0.03109450143187
N            1.40302224381257       -1.94659156794534       -0.01650380703714
C            0.38874904117274       -1.05475106456904       -0.02014453939858
C            0.89364533684298        0.25785276657790        0.01679150959392
C            0.06928579657142        1.43899886819912        0.00401448535647
O            0.29469964856610        2.66122588324793       -0.00398771407977
N           -1.30653790065541        1.05320867892912       -0.04920908720818
C           -2.16052257439389        2.25234410010831       -0.09524945206215
C           -1.84127440197934       -0.21440349155788       -0.03921005323256
O           -3.03607967240174       -0.42973568184006       -0.04713809545814
N           -0.94716967502813       -1.31830951943892       -0.03983587212837
C           -1.45334719583962       -2.67516822584124       -0.07601994643623
H            3.65681284099601        1.24101934505028        1.12092146726617
H            4.03262765136041        1.01586404760541       -0.60605789093254
H            2.67800035883544        2.07484028230272       -0.11628364719636
H            3.57621227989703       -1.68846797063831        0.03139286955665
H           -1.63087682444798        3.22098106055540       -0.36420369910630
H           -2.97242261615159        2.00744587152073       -0.77923557206184
H           -2.60741746927283        2.38641874793776        0.88728892633212
H           -1.13273237495326       -3.24293742916891        0.80244805556568
H           -1.12623051149912       -3.19772282599884       -0.97983340770056
H           -2.54032827542974       -2.61710444850301       -0.07813246015090
H            1.34246532333107       -2.95344407915197       -0.04387122100888
25
 energy: 8.953467673937 xtb: 6.6.1 (8d0f1dd)
C            3.21795994496900        1.15659859824520        0.12469214484323
N            2.28060797236076        0.07745965246220        0.04148346937124
C            2.59324397393489       -1.27867042108912        0.03382542914577
N            1.39335859621594       -1.95330129395935       -0.02128215390349
C            0.38115093879144       -1.05582017607203       -0.02377201159834
C            0.88180105198140        0.26211172011786        0.01869211731188
C            0.05034599232406        1.45133611423335       -0.01177092523005
O            0.22713938489840        2.68620171152341        0.01755326046034
N           -1.32152873625896        1.06132060160763       -0.08016628539332
C           -2.16036493073991        2.29019038653371       -0.12106303012065
C           -1.85059505595313       -0.21679235442223       -0.05255694066409
O           -3.04267565991384       -0.44556802682962       -0.04077424142245
N           -0.95269725988154       -1.32345806523500       -0.04362646650439
C           -1.44795801059921       -2.68538950723754       -0.08394797016090
H            3.63572654381551        1.25060212701415        1.13406571611630
H            4.03767480992354        1.00674871714950       -0.58492161455330
H            2.67081519004184        2.06278001365496       -0.12962562949907
H            3.57282441594309       -1.70530670909698        0.02805608528746
H           -1.65944216780715        3.27136214730343       -0.47093813731337
H           -3.02740525294888        1.98959840481438       -0.71145327426965
H           -2.51234885713522        2.48129094091071        0.89688560525796
H           -1.12151932138205       -3.25876120018470        0.78951180058822
H           -1.11911129974351       -3.20265459563426       -0.99090880616406
H           -2.53501369115414       -2.63747495293904       -0.08280298079712
H            1.33484671513402       -2.96074285204236       -0.05387352926389
25
 energy: 14.559613906248 xtb: 6.6.1 (8d0f1dd)
C            3.21001838497735        1.15192672633663        0.13558735517424
N            2.27610932019773        0.06870110400204        0.05539688888933
C            2.58828005916226       -1.28797758178327        0.03616473494282
N            1.39117750221322       -1.96107889401104       -0.02776577449016
C            0.37759382340643       -1.06438081434463       -0.03086666456342
C            0.87517264654536        0.25209611378407        0.02291522672689
C            0.03278180414878        1.43525158258916       -0.02795091750502
O            0.17693350946463        2.67089343781755        0.02735551668793
N           -1.33806131193767        1.05651635482299       -0.11753568644790
C           -2.17624767172919        2.31382111155820       -0.13988669401474
C           -1.86236478859370       -0.22675624377002       -0.06788574504932
O           -3.05112458492870       -0.46634349188245       -0.03708147812439
N           -0.95664463834984       -1.33302111240733       -0.04941379806669
C           -1.44233030016691       -2.69871640657522       -0.08903124304614
H            3.61116998974424        1.25999539801674        1.15085934189387
H            4.04292746812889        0.99913065633902       -0.55936203813836
H            2.66438114843191        2.05307853649844       -0.14097532465367
H            3.56848255537348       -1.71934359263561        0.01995648693283
H           -1.72297050102137        3.32662510437977       -0.55284689620162
H           -3.07890593099231        1.96920517977537       -0.64266362427415
H           -2.42171668864107        2.56485451445785        0.90003648479326
H           -1.10717298540640       -3.27343061696244        0.78068452903289
H           -1.11451834884523       -3.21338861379877       -0.99820859295674
H           -2.52949349799563       -2.66059815295661       -0.08073197394764
H            1.33656856821297       -2.96919603163989       -0.06880085844856
25
 energy: 19.433529644170 xtb: 6.6.1 (8d0f1dd)
C            3.20665748882616        1.15284920321707        0.14598833820648
N            2.27260597087628        0.07525866730768        0.05919256912090
C            2.58694857566141       -1.28107239710035        0.04852205007080
N            1.39705650576781       -1.96115570102623       -0.02897709211187
C            0.38114109829492       -1.06856657785626       -0.03684484094197
C            0.87115369781125        0.25063971511085        0.00918580802605
C            0.02343414518619        1.43278745476802       -0.05947831749622
O            0.17419055734070        2.67445424482340       -0.05267572878926
N           -1.34406076277069        1.05350541518084       -0.14610425878115
C           -2.18204762295386        2.32076918973715       -0.13694651975371
C           -1.86413067207433       -0.23643771201890       -0.08265750114887
O           -3.05045089307602       -0.48360153026859       -0.03020074673749
N           -0.95387162481673       -1.34197181647309       -0.05380168679303
C           -1.43460337514286       -2.71038970691762       -0.09460059336606
H            3.59237286689310        1.26599948340518        1.16704748746439
H            4.05020015764855        0.99286351130017       -0.53497235762334
H            2.66463657443086        2.05033281377059       -0.14815735741831
H            3.56398219678898       -1.72491263126619        0.00634717983759
H           -1.78535693379159        3.37122864463047       -0.64205293737896
H           -3.12485790041175        1.95295114009037       -0.55028048731090
H           -2.32220059259157        2.64054930276998        0.90189532711786
H           -1.09436352351408       -3.28780274643982        0.77169403471547
H           -1.10699093726028       -3.22187093228184       -1.00586764734145
H           -2.52226761624789       -2.68122277347963       -0.08225769630944
H            1.34686057045125       -2.97078944317719       -0.07411784043687
25
 energy: 26.777716017082 xtb: 6.6.1 (8d0f1dd)
C            3.20007412661550        1.15441883717706        0.15187571194124
N            2.26294934376054        0.08454422790124        0.06376925349799
C            2.57972440745610       -1.26885393250048        0.05732659212667
N            1.39810725337032       -1.96272246773968       -0.02799669764265
C            0.38242867084112       -1.07158180226372       -0.03539291901894
C            0.86186731881073        0.25244179952367        0.00697885681548
C            0.01873190670849        1.44437584803731       -0.06260129648254
O            0.18741695324097        2.70071210668594       -0.08202539486851
N           -1.34339708055019        1.05457772695484       -0.14610583433868
C           -2.18294602270547        2.32056332847332       -0.11709673455450
C           -1.85947579639389       -0.24300712725987       -0.07522179522734
O           -3.04505646771960       -0.49667119655018       -0.02033776226072
N           -0.95108145338002       -1.35067208040151       -0.05379372218859
C           -1.42647585284058       -2.72152308965887       -0.10101749497078
H            3.57035118888510        1.27740614767969        1.17808597634397
H            4.05334901494895        0.98313436835602       -0.51502054242091
H            2.66293146552149        2.04669025995968       -0.16344575146522
H            3.55433854128073       -1.71708827261737       -0.01097406390527
H           -1.84716510422234        3.43238048131544       -0.67287823967200
H           -3.14134317596399        1.94120511391461       -0.47493546650514
H           -2.23296752790956        2.71053224066263        0.90117191077471
H           -1.07960540510559       -3.30426885759243        0.75933263567326
H           -1.09790999310190       -3.22569656134643       -1.01634395747143
H           -2.51454339772941       -2.70287690831093       -0.08462388267168
H            1.35923717305177       -2.97189936665028       -0.08225611555095
25
 energy: 38.857710672955 xtb: 6.6.1 (8d0f1dd)
C            3.19188877304098        1.15552622590776        0.15506304431123
N            2.25302600526259        0.09312873065295        0.06066451961681
C            2.57606043522065       -1.26040696791030        0.07149297327644
N            1.40025733138885       -1.96252817444396       -0.02798968718863
C            0.38506349192227       -1.07130691958235       -0.04527527764029
C            0.85242773293894        0.25971830295344       -0.01270119322581
C            0.00517799295260        1.45751215885975       -0.07186559623641
O            0.12727618252164        2.73360482905998       -0.04966140550160
N           -1.34816972171470        1.04416325185607       -0.14438237113667
C           -2.18067044802880        2.30677021031611       -0.09351505435660
C           -1.85596950600879       -0.25831892615691       -0.07987924658787
O           -3.04020947101114       -0.51479729263847       -0.01287357708334
N           -0.94587580255696       -1.35996879808180       -0.06578834654460
C           -1.41642591795672       -2.73381855106300       -0.10298467914164
H            3.53678778694188        1.29124984947543        1.18901427542871
H            4.06006599469138        0.97235224509850       -0.48946982727893
H            2.66254804149040        2.04133226357785       -0.18680618923501
H            3.55099481654705       -1.69959638676931       -0.00314722171928
H           -1.89907137335560        3.49393556617919       -0.68174670684339
H           -3.15262492950187        1.95454736809149       -0.40220280480861
H           -2.12527201896906        2.75704539460348        0.88866663959504
H           -1.06068912580625       -3.31444898438417        0.75529685714370
H           -1.08977516950457       -3.23739663945531       -1.01912341764698
H           -2.50489049810709       -2.72451669050776       -0.07952715246735
H            1.36960516165474       -2.97126221650276       -0.08166534165082
25
 energy: 63.505861774942 xtb: 6.6.1 (8d0f1dd)
C            3.18915101076602        1.15404908357625        0.16106086533523
N            2.25087726186218        0.09616510259079        0.06290104408389
C            2.58145577268317       -1.25980248310320        0.07131095248112
N            1.40807932272142       -1.96679403201409       -0.02594492891290
C            0.39147033397709       -1.07597487777952       -0.03745034829349
C            0.85190555127066        0.26225256458304        0.00291263701898
C           -0.00288494843813        1.46099436757350       -0.04892481967652
O            0.08422063956510        2.75269046741484       -0.05794051222232
N           -1.35572696354342        1.02900765961807       -0.12144616379992
C           -2.18885282443790        2.27694126845517       -0.06064364191933
C           -1.85221018226466       -0.27837651243771       -0.06752210219865
O           -3.03560674745049       -0.53891519003474       -0.00699205120671
N           -0.93971963125593       -1.37188011451922       -0.07051609079302
C           -1.40754866743917       -2.74771025387888       -0.11051723686967
H            3.52019257664165        1.29845649780148        1.19725824972054
H            4.06493974081639        0.96506504679901       -0.47003773982481
H            2.66498339687266        2.03630601369599       -0.19419116069183
H            3.55697851766483       -1.68413634261302       -0.00639404546560
H           -1.95550286743916        3.67064830422206       -0.68736083790816
H           -3.18154520343893        1.94292609676835       -0.29927606929603
H           -2.02138144651697        2.80872304680633        0.85937473719189
H           -1.04833856217556       -3.33379865348148        0.74247796435908
H           -1.08387719495789       -3.24621033182921       -1.03057190497124
H           -2.49656714442166       -2.74344378647923       -0.08220836693079
H            1.38025599488173       -2.97485459762483       -0.07792145038087
25
 energy: 99.005976473098 xtb: 6.6.1 (8d0f1dd)
C            3.18379944794972        1.14877739691718        0.16552404734999
N            2.24970098957411        0.08763715731147        0.05932568595101
C            2.58155831175619       -1.26398971806301        0.06302468461841
N            1.41182812122680       -1.97329573574840       -0.02269245884352
C            0.39214434888016       -1.08173119066273       -0.03406591481864
C            0.85500089749646        0.26406582193476        0.00836049611595
C           -0.00328985355438        1.47205873746364       -0.03627277278835
O            0.02716939239314        2.77360070678966       -0.04883129299949
N           -1.35691956313419        0.99621124078140       -0.08238079865589
C           -2.20056475750948        2.14768965972529        0.02844815008441
C           -1.84708902964894       -0.31437514724421       -0.06456544665312
O           -3.03224958695645       -0.56533436691310       -0.01522938615411
N           -0.93424024244131       -1.38982064542622       -0.08075963262224
C           -1.39809243031231       -2.76611945870866       -0.11491750913253
H            3.49410488651610        1.30576970065735        1.20426471563481
H            4.06922733349630        0.95624785953547       -0.44839458525698
H            2.66437553089418        2.02564353810973       -0.20763665863200
H            3.55937597453404       -1.68451794130366        0.00573859626154
H           -1.98505152473972        3.99137217583273       -0.70034180495382
H           -3.21127951855016        1.91769347050432       -0.21449386419995
H           -1.90431695148416        2.84387149060328        0.79402247004838
H           -1.03317463378868       -3.35143608026081        0.73512504381467
H           -1.07773170442740       -3.25913211486252       -1.03803313294784
H           -2.48767462371667       -2.76431490719932       -0.08035274658554
H            1.37483540189179       -2.98263480723745       -0.07156718149879
25
 energy: 115.305069518906 xtb: 6.6.1 (8d0f1dd)
C            3.17919456698559        1.14169880422525        0.17058866430555
N            2.25252620301794        0.07152886020575        0.05856504654198
C            2.58617708334230       -1.27209976002386        0.05326996988645
N            1.42063770200278       -1.97859749287932       -0.01922800316979
C            0.39138720901835       -1.08933291122789       -0.02955635437655
C            0.85886316820442        0.26319798762249        0.01967486206016
C           -0.00738592136824        1.47867261495676       -0.00614437469868
O           -0.02636185936068        2.79887369705098       -0.03391960100966
N           -1.35805914741551        0.96819063741623       -0.04650658561004
C           -2.21434236655561        2.04437395775312        0.08892855542845
C           -1.84245115211996       -0.34630682530588       -0.05851178653162
O           -3.03294255176338       -0.58175744824217       -0.03095685567297
N           -0.93133429307922       -1.40629135366525       -0.08385436467030
C           -1.38951733247030       -2.78319890371513       -0.11849979051740
H            3.46788782522417        1.30770980435176        1.21230382158334
H            4.07362659325685        0.94705562204307       -0.42666056934799
H            2.66516974726862        2.01424601067694       -0.22165446140568
H            3.56558882882475       -1.69794046491879        0.01179302413225
H           -2.00680785167802        4.23420946662313       -0.67305350900414
H           -3.23547902715103        1.89458358562891       -0.14218895272149
H           -1.82334519201008        2.85832871424313        0.66915226462388
H           -1.01772404574770       -3.36848077343681        0.72762974913088
H           -1.07202196923971       -3.27076299365041       -1.04499518358768
H           -2.47939359350262       -2.78497679959601       -0.07799603349699
H            1.37377995757760       -2.99014552640851       -0.06315997551718
25
 energy: 126.121504369603 xtb: 6.6.1 (8d0f1dd)
C            3.17653768715156        1.13954629448991        0.17740871215358
N            2.25700537925133        0.05872409422669        0.05759179131925
C            2.59029389878126       -1.28193841028659        0.04599560447968
N            1.42746052685052       -1.98139372189072       -0.01940063011860
C            0.39190638171259       -1.09569264620797       -0.02591156406663
C            0.86311222494780        0.26463405699563        0.02723654476946
C            0.00004705795071        1.48966256383872        0.01304649028332
O           -0.06424649827284        2.82916807694514       -0.03173631604630
N           -1.35600961023195        0.95386082333625       -0.01133038282851
C           -2.20150536263067        2.00632029278938        0.14626628630455
C           -1.83909447762103       -0.36799743454193       -0.05019501360603
O           -3.03266193266363       -0.59285349884934       -0.04673104400377
N           -0.92956660614866       -1.41926065606228       -0.07935822836373
C           -1.38092170486351       -2.79850646766985       -0.12140123224584
H            3.44312995942143        1.30845704818767        1.22280433066922
H            4.07676622668710        0.93938495923261       -0.40549811169484
H            2.66499038196045        2.01045379792785       -0.22239557354139
H            3.57248933753705       -1.70868621278977        0.01689318965127
H           -1.97808750486112        4.40238702797525       -0.63197222271900
H           -3.22557013398535        1.90280535962180       -0.06635241294768
H           -1.74353250158185        2.87529987568174        0.62648664489310
H           -1.00120296309608       -3.38676351989250        0.71906365036893
H           -1.06595165020075       -3.28039500099029       -1.05222324465378
H           -2.47067366154653       -2.80740863036083       -0.07518282871135
H            1.37333059827050       -2.99595049925242       -0.05849899030514
25
 energy: 150.448472568612 xtb: 6.6.1 (8d0f1dd)
C            3.16734141769550        1.12851489020832        0.18206766818524
N            2.26323933985332        0.02177456617412        0.06165415811837
C            2.59894098145841       -1.30698586558546        0.04239008247001
N            1.44927096802569       -2.02404042892032       -0.02477848138538
C            0.40050304274704       -1.16866741073233       -0.02310343948690
C            0.87688257525990        0.16160467609836        0.04639470273436
C            0.05401233861943        1.30360260007962        0.05688492278302
O           -0.72006044166564        3.68964653670255       -0.19384627476701
N           -1.30587676208256        0.91635277203434        0.01909101650022
C           -2.15519372838973        1.94044378477770        0.20363198623160
C           -1.83069498430246       -0.39719240849423       -0.05798471121620
O           -3.02821152325702       -0.60617253290810       -0.06953902827903
N           -0.92728572296062       -1.45207837814774       -0.07203264494612
C           -1.38014074965525       -2.82325969590168       -0.12566676858251
H            3.41562523391680        1.30538688035454        1.22910803483963
H            4.07608278455433        0.92645373014123       -0.38639459748494
H            2.65627076535178        2.00323377002908       -0.21175757715273
H            3.58575992491679       -1.72709589184978        0.01990812146240
H           -1.58810751150157        4.36237683365137       -0.48503246220276
H           -3.18944276016092        1.89956900377398       -0.02253871041188
H           -1.64586736736493        2.87254981433395        0.54251355249888
H           -0.98697474179933       -3.40804582255320        0.71067126422894
H           -1.06534721307877       -3.29174411777006       -1.06345781630662
H           -2.46779344377822       -2.83205906930252       -0.07103454813384
H            1.39954291874310       -3.03330999491075       -0.06238902757229
25
 energy: 145.026602895813 xtb: 6.6.1 (8d0f1dd)
C            3.16068191172215        1.12584797866642        0.18311130986945
N            2.26345752157688        0.01018296990575        0.05954429507215
C            2.59428110454537       -1.31191516855085        0.04086119169989
N            1.45211899229288       -2.03074370426363       -0.03088286672682
C            0.39745733285878       -1.17962415791934       -0.02088290283365
C            0.87482287526282        0.15080398380369        0.04803272223861
C            0.06955023240907        1.29980595859972        0.06258566783351
O           -0.74872405596090        3.77328716524007       -0.15316536225267
N           -1.29779573798162        0.91724041738765        0.01855907103977
C           -2.16289642018593        1.90679169663675        0.21236477382487
C           -1.83019922962184       -0.41101179758968       -0.05537387785504
O           -3.02850491256388       -0.60918081796287       -0.07175043740907
N           -0.92841199392266       -1.46513880618401       -0.06530382006194
C           -1.37507116993089       -2.83922018807396       -0.12833708030424
H            3.38869469586385        1.31325583374351        1.23622664975951
H            4.07712734694462        0.92129658132373       -0.36987594552353
H            2.64944047738926        2.00427758804958       -0.20465277139818
H            3.58637883654915       -1.73089560386031        0.01351648587823
H           -1.53891711654532        4.47548083145526       -0.43586464663330
H           -3.21669573669085        1.86810068963373        0.06071792079959
H           -1.61535518716991        2.89229407640536        0.38688891572927
H           -0.96696466727257       -3.42349751282627        0.69993615236845
H           -1.06513943873731       -3.30193558122962       -1.06930732268199
H           -2.46065696498701       -2.85573029245496       -0.06634006139667
H            1.41370066697232       -3.03982129393528       -0.06646659245607
25