72
 energy: 0.000000000000 xtb: 6.6.1 (8d0f1dd)
N           -1.47310921155849        2.74401293103706        2.22063921685122
C           -1.55658879776851        2.16490285539332        1.13274273951491
C           -2.74549199786261        2.05621232186130        0.23826248438941
C           -3.31377553111525        0.64333411542669        0.32332512650568
C           -4.30230156009016        0.24487110156316       -0.58026161703006
C           -4.85238763031941       -1.02286490450319       -0.53363588718165
O           -5.81419972815119       -1.48606034185536       -1.36157882725342
C           -6.39655633239252       -0.60827000183299       -2.29568474302620
C           -4.39972501531283       -1.94646102182611        0.44396929121966
O           -4.98748311285188       -3.16145997157803        0.41085992006324
C           -4.66362127904578       -4.10093827755394        1.40909127743729
C           -3.42072513477031       -1.54561384810496        1.33436546260297
C           -2.88302799614223       -0.26315800396994        1.27400150770375
C           -2.19303798107274        2.30467000305896       -1.18742977106749
C           -1.26651538239283        1.17243369445008       -1.65249429687285
C            0.01082524939134        1.09745454476277       -0.89354803499847
N            0.61779393476578       -0.02034948052406       -0.57705522512502
C            2.00145210352228       -0.02376006389122       -0.15611399603240
C            2.92554934655222       -0.53865282675074       -1.27700088804721
C            4.35756843073516       -0.43050757231754       -0.83075544324989
C            5.07346135469827        0.73206409086248       -1.03980965825901
C            6.38627986649936        0.84224441421807       -0.60344822702769
C            7.00047264773336       -0.20824756335880        0.05722314418200
O            8.26703657141718       -0.21011313101264        0.52410943644933
C            9.06912227848686        0.92943601033931        0.31863058007678
C            6.27039964270142       -1.40439753960823        0.28033466008274
O            6.94829939911432       -2.38012925705718        0.92751999079483
C            6.31537317745639       -3.61583200086742        1.15217711710877
C            4.96302794628964       -1.49347471867959       -0.16064430359178
C           -0.05511211367372       -1.29906247805359       -0.62085686319744
C           -3.86758037025447        3.07992600430699        0.58498060215443
C           -4.49286159663096        2.77383493050346        1.94313289484366
C           -3.39165179876499        4.52917666589254        0.54797523472093
H           -4.66030026466202        0.94509067363451       -1.31640568823548
H           -6.85037928558380        0.25803162192116       -1.80468845313260
H           -7.17287442604349       -1.18600110843259       -2.79318157561361
H           -5.66836817451085       -0.26952966318766       -3.04040255244073
H           -4.88416720672258       -3.71589460520039        2.40913542187496
H           -5.29223570620378       -4.96637458756866        1.20969236903657
H           -3.61139813139015       -4.39919835331056        1.35529357841967
H           -3.07077796610445       -2.21868765711333        2.10002662693138
H           -2.14562754426994        0.02067850696302        2.01001344383370
H           -3.02188875377605        2.38238012313952       -1.88813545054866
H           -1.65198530896729        3.25146700677685       -1.20556284570283
H           -1.81103374245520        0.23006524641044       -1.62116301628650
H           -0.99335688527853        1.37490212198123       -2.69443256973690
H           -0.67628064361333        1.65183887049447        0.61785727145403
H            0.63525841192517        1.98466369793744       -0.92314021190751
H            2.11132552493482       -0.65949692842762        0.72532613231274
H            2.30680473056284        0.98978251704176        0.11078972794250
H            2.76694198818247        0.06750735147374       -2.17075252200790
H            2.67954581369920       -1.57455627803457       -1.51167743520200
H            4.62169998552446        1.56295612048703       -1.56123579000624
H            6.92357674630170        1.75715815945204       -0.79119596719031
H            8.65159112996149        1.81001823324363        0.81701555159939
H            9.20136171144928        1.14042857828877       -0.74698991949293
H           10.03428838009630        0.69003240176163        0.76064937965836
H            7.05567174969094       -4.23621171795340        1.65347565939075
H            5.43848001056755       -3.50813558175093        1.79970565785717
H            6.02060041905269       -4.09420497120334        0.21253282636366
H            4.40102758497114       -2.40127266373392       -0.00490198249042
H           -0.22071299714579       -1.61775583601871       -1.65116008982042
H           -1.01972258008625       -1.24102717432227       -0.10935206830928
H            0.55899954147532       -2.04486085926761       -0.12333730421426
H           -4.63991875734388        2.95501092798550       -0.18098088071825
H           -3.76095216473977        2.90314704960906        2.73380821053058
H           -4.87457614030224        1.75695641518947        1.97884603101694
H           -5.31925552549014        3.45579210326349        2.12325564252114
H           -2.60025590131176        4.69225046143352        1.27368918226171
H           -3.03987406413880        4.81897652321898       -0.43870975059559
H           -4.22191740670577        5.18069648090034        0.80616693961239
H           -0.59832433787845        2.77744694953323        2.72958984441332
72
 energy: -5.619426850028 xtb: 6.6.1 (8d0f1dd)
N           -1.55462442794651        2.79902260591535        2.26394970603048
C           -1.58831848601468        2.15722881790637        1.18260122916378
C           -2.76326499054519        2.07087207558605        0.26215762841967
C           -3.31077699936948        0.63220954481099        0.38019050372425
C           -4.29653524891764        0.22993036236649       -0.52821965138298
C           -4.85130801893901       -1.03430170044811       -0.49929847418753
O           -5.82461373376404       -1.48664853636317       -1.33981671671227
C           -6.38600757259859       -0.59259555414325       -2.26625004020675
C           -4.41111555097585       -1.96799448453628        0.46367576619059
O           -5.01322864502082       -3.18746147222642        0.41075749115897
C           -4.69422072521667       -4.13441175147735        1.39611838188689
C           -3.43586069472958       -1.58207299641281        1.36212561237576
C           -2.89310261185688       -0.29838413336444        1.31984586625941
C           -2.18143421486642        2.31892477973607       -1.16462358921056
C           -1.25234077689392        1.19704525466588       -1.65843657217791
C            0.01625567129706        1.14571716024649       -0.88422387584890
N            0.64861550147250       -0.03800741084471       -0.55747961980749
C            2.01906063350479       -0.02808809034959       -0.16407103417886
C            2.94769450143657       -0.53426020419029       -1.28747040238950
C            4.37188611023598       -0.43022342599367       -0.84558780415308
C            5.09090611707892        0.73278470816434       -1.04779428950309
C            6.40187215494523        0.84153145083863       -0.60710054586740
C            7.00993408741657       -0.21127919503567        0.05258469975052
O            8.28800356665382       -0.21666628190492        0.52487269537503
C            9.08388334991882        0.92107014706968        0.31660935244051
C            6.27969215524784       -1.40071318771541        0.27489901556803
O            6.95925851798677       -2.38481282942867        0.92811170142322
C            6.31705592422853       -3.61300116833028        1.15051950580276
C            4.97476612421463       -1.49087598463273       -0.16957822438649
C           -0.03902975045541       -1.29477283723382       -0.61487600571615
C           -3.88569238130577        3.09212171274618        0.55717032379307
C           -4.51323046781015        2.80300463706984        1.91879634640323
C           -3.42213934366217        4.54888694171074        0.50895599184537
H           -4.64416152627239        0.93360473755478       -1.26581804333353
H           -6.83277835511690        0.27481333505227       -1.76997785954388
H           -7.16802056896783       -1.15341848817126       -2.77526876496731
H           -5.65131929804942       -0.25340034565585       -3.00511488041085
H           -4.91305220190332       -3.76031453925284        2.40188777320179
H           -5.32946009853739       -4.99298842489616        1.18545134304789
H           -3.64361070616007       -4.44034701538579        1.34163715003908
H           -3.08725047532195       -2.27549732859033        2.11251320093032
H           -2.14487877259283       -0.03883581558834        2.05199625167462
H           -3.00323446378121        2.41892946444282       -1.87862361683523
H           -1.62030264229736        3.25796034781859       -1.16571088034262
H           -1.78937343411116        0.25194437141750       -1.59841296068268
H           -1.02250807524899        1.38524240531791       -2.71859430550246
H           -0.71436674334443        1.63495532154562        0.70696131309180
H            0.66586361914432        2.00112963452807       -0.95486872275200
H            2.14099851099957       -0.66135503869111        0.72206133533865
H            2.31737613667712        0.98971239258877        0.10019955611457
H            2.77829983230372        0.07884774877581       -2.17466891412179
H            2.69059442804685       -1.56742783537265       -1.52462292628440
H            4.63896425089957        1.56476941958098       -1.56729721037868
H            6.94148490401483        1.75674047706230       -0.79135800072120
H            8.66750589250684        1.80413382396124        0.81306366859078
H            9.21698255704612        1.13295677075036       -0.74990034651041
H           10.05044476762365        0.68373650979642        0.75840715754083
H            7.05285535740901       -4.23854350348044        1.65367904483175
H            5.43851348606394       -3.50180278761065        1.79583938102436
H            6.01956338125375       -4.09161039658633        0.21110896740966
H            4.40721881418628       -2.39514709444970       -0.01198849343398
H           -0.24648536185124       -1.60217222855718       -1.64593715356229
H           -0.98998177690288       -1.23838467921109       -0.07634910725320
H            0.58222277268575       -2.05567939178064       -0.14670857095763
H           -4.64981003876439        2.96052185392586       -0.21807040760715
H           -3.77729545401948        2.94509277906412        2.70442645219598
H           -4.87750046368532        1.78078210089013        1.96048369727949
H           -5.34834914774961        3.47585474234560        2.08993876016448
H           -2.63837482251132        4.72610362678244        1.23907276524209
H           -3.06292287651654        4.83453285682759       -0.47721203738072
H           -4.26271195453869        5.19395887998521        0.75523517362110
H           -0.68446766177456        2.66447838084129        2.77325817734147
72
 energy: -2.906510975000 xtb: 6.6.1 (8d0f1dd)
N           -1.62170347040868        2.78985545443429        2.30822994352868
C           -1.62323846822876        2.16560100693104        1.21501465288297
C           -2.76890222828996        2.09113793805861        0.26406460998057
C           -3.30265220681200        0.61605448810955        0.43147640807373
C           -4.28955083750527        0.21391194228429       -0.48056854035011
C           -4.85444239545682       -1.04650560685843       -0.46818511783442
O           -5.83003211548118       -1.48432704341138       -1.31563994060256
C           -6.37617731471054       -0.57665804100461       -2.23792201849657
C           -4.42485565035240       -1.99418911195682        0.48366032008350
O           -5.03491596364209       -3.20819383163404        0.41122719929014
C           -4.72421344050569       -4.16864263841518        1.38509380541507
C           -3.45070172488692       -1.62053652134097        1.38817920436148
C           -2.89901045672459       -0.33603859785156        1.36220282829392
C           -2.16474571113003        2.33814618296541       -1.14974757260805
C           -1.23845432139326        1.21735761039080       -1.65419329458196
C            0.03162938467693        1.16479629796177       -0.87728636997771
N            0.66500087877081       -0.02908046880309       -0.55140371266322
C            2.03747542556273       -0.02535863221805       -0.16812124195712
C            2.96118218011814       -0.52847664440187       -1.29597187856858
C            4.38550206080779       -0.42764692440909       -0.85536862362815
C            5.10660830214082        0.73446218627593       -1.05461469872792
C            6.41724685509108        0.84090621805616       -0.61100197169534
C            7.02299987572879       -0.21352867068844        0.04859077091692
O            8.30087271423684       -0.22191100666711        0.52257331576285
C            9.09845484235125        0.91436319857900        0.31357109452601
C            6.28959026432751       -1.40079728676249        0.27015397866125
O            6.96554392869577       -2.38675389379432        0.92571285131531
C            6.31741683710445       -3.61175494886419        1.14741170558674
C            4.98496990326227       -1.48840438081047       -0.17698322024479
C           -0.02641433993251       -1.28610638262746       -0.60772389992485
C           -3.90076458269735        3.10568672891088        0.52836844200869
C           -4.53287613221615        2.83116179595455        1.89163635296839
C           -3.44934531863828        4.56689956924859        0.46763266932450
H           -4.62936769903365        0.92188293962808       -1.21687063880012
H           -6.81526050494436        0.29029186047782       -1.73531524059264
H           -7.16274553986940       -1.12197276146797       -2.75629849674814
H           -5.63459070238182       -0.23911791520990       -2.97094866090717
H           -4.94143402788242       -3.80392883924802        2.39465154948515
H           -5.36561806236051       -5.01982498454172        1.16383227872655
H           -3.67570385662299       -4.48130072611914        1.32823148723890
H           -3.10636832303389       -2.33163014101438        2.12519498797569
H           -2.14573569980974       -0.10103706983141        2.09614475607958
H           -2.97991529271100        2.45640153845057       -1.87360570496150
H           -1.58869245610772        3.26909144522230       -1.12678043048904
H           -1.77239014765415        0.27301432069415       -1.57622790949382
H           -1.03722336422884        1.39620332787787       -2.72551404708971
H           -0.73942582485802        1.62314243125592        0.77430832849712
H            0.68795554738502        2.01336666936749       -0.97003689984574
H            2.16516411621108       -0.65922979944600        0.71794689326925
H            2.33370970649344        0.99356017058377        0.09237037005847
H            2.78959584118594        0.09011844834036       -2.17911597837337
H            2.70211528116441       -1.56019680717017       -1.53643836380005
H            4.65655249174136        1.56834504421109       -1.57266775871387
H            6.95890973165188        1.75564400846641       -0.79279349059562
H            8.68251120780920        1.79782988239237        0.80925507634445
H            9.23168092237222        1.12576498173474       -0.75316020893577
H           10.06526342129917        0.67733222228293        0.75531666365381
H            7.04902096175278       -4.24140741242004        1.65174204679277
H            5.43813433507252       -3.49648636461467        1.79121318111072
H            6.01818775017746       -4.08914128332830        0.20794222748641
H            4.41337245959876       -2.38963554441893       -0.01798161468086
H           -0.27031381356978       -1.57995946262456       -1.63541268150501
H           -0.96217358641995       -1.23460955631158       -0.04210035272113
H            0.60332890299578       -2.05998268717674       -0.17044630003902
H           -4.65559721017048        2.96219972760431       -0.25371648058794
H           -3.79817371136910        2.98835360617215        2.67619601526606
H           -4.88321515499889        1.80601089692079        1.94162256610955
H           -5.37653886656573        3.49471781020226        2.05447901397432
H           -2.67528610837241        4.76105182109276        1.20375826380650
H           -3.08368815273988        4.84812132107714       -0.51781374727854
H           -4.29893543474187        5.20530195431779        0.70130024558248
H           -0.78204589855798        2.55241979428443        2.83021893676380
72
 energy: 2.053605705012 xtb: 6.6.1 (8d0f1dd)
N           -1.69820969145798        2.74956808294873        2.36572845628982
C           -1.65937221556266        2.17367343319252        1.24636369988477
C           -2.76788259436977        2.11470261469634        0.26379295686648
C           -3.29190723773191        0.59583123932511        0.48414162610250
C           -4.28127865296180        0.19859716183502       -0.43137964943666
C           -4.85694374769145       -1.05746309520467       -0.43595684697749
O           -5.83431062198338       -1.47985345873679       -1.29118475470957
C           -6.36571148798490       -0.55918293143960       -2.20963423730694
C           -4.43854968802723       -2.01940778977945        0.50472824079295
O           -5.05667679121356       -3.22742453331092        0.41172510652614
C           -4.75387769910476       -4.20187858274347        1.37304234625590
C           -3.46544169164768       -1.66014938992645        1.41630617397556
C           -2.90271189201112       -0.37660783685921        1.40592357199327
C           -2.14716622526950        2.35799272699029       -1.13655402525226
C           -1.22513473906278        1.23493373093299       -1.64393823261436
C            0.04818194579216        1.18491136542305       -0.86871873867969
N            0.68325358941079       -0.01837434602781       -0.54624697890560
C            2.05669440365958       -0.02175117636914       -0.17262678475817
C            2.97506488516823       -0.52282371358512       -1.30495005479099
C            4.39928979508596       -0.42561139684014       -0.86555351021632
C            5.12236172891348        0.73564189986995       -1.06204538096051
C            6.43249911403022        0.84008839684264       -0.61539489954227
C            7.03598568962850       -0.21576867910667        0.04441113568047
O            8.31366921913218       -0.22691211558672        0.52036200252023
C            9.11302159811820        0.90780722625827        0.31066885300535
C            6.29965592148053       -1.40101226222101        0.26526324083067
O            6.97234620632061       -2.38853947412098        0.92331756184037
C            6.31878307366572       -3.61047600022812        1.14474751406033
C            4.99539958395079       -1.48636447281836       -0.18451905867445
C           -0.01353002725096       -1.27552744104318       -0.60115811347091
C           -3.91355576126836        3.11863524678721        0.49911932631659
C           -4.55129938540034        2.85716024263088        1.86320639058617
C           -3.47677928389937        4.58517798518125        0.42662464362828
H           -4.61283717345474        0.91147955002956       -1.16608938427998
H           -6.79818445344209        0.30713559161003       -1.70142272527271
H           -7.15611754916158       -1.09009809532601       -2.73691189608328
H           -5.61792957048191       -0.22302523964635       -2.93738385630397
H           -4.96991430291875       -3.84743975476628        2.38653921895031
H           -5.40083913414056       -5.04559110737886        1.14002690357852
H           -3.70717658256600       -4.52027927096591        1.31368586929115
H           -3.12749219828915       -2.38763936723438        2.14148949539240
H           -2.14654348741904       -0.16397596485282        2.14238412883690
H           -2.95526688459406        2.49293968983542       -1.87052832340144
H           -1.55875968092603        3.28062221772973       -1.08909733198546
H           -1.75711668446866        0.29102600396619       -1.54882399931432
H           -1.05060262113022        1.40570139950929       -2.72381076100131
H           -0.76801285072315        1.61443197830541        0.83672236937103
H            0.71099952000760        2.02569938280337       -0.98494516693269
H            2.18921472429274       -0.65690117185787        0.71278398979262
H            2.35100103966040        0.99827328312651        0.08571848846403
H            2.80151222763462        0.10069837387996       -2.18440089673260
H            2.71318959082971       -1.55301985363936       -1.54821514432073
H            4.67418488177669        1.57099871223211       -1.57929256315869
H            6.97598761707526        1.75444736890902       -0.79478464309248
H            8.69778251453474        1.79191348525594        0.80546456759015
H            9.24671730289583        1.11858309400198       -0.75627107760251
H           10.07988001079177        0.67070058354950        0.75256491299514
H            7.04655587702643       -4.24359829012779        1.65045698924336
H            5.43881987689450       -3.49130467867049        1.78714131964294
H            6.01806239637056       -4.08715810827357        0.20541348837987
H            4.42008657360985       -2.38483109475649       -0.02454661838610
H           -0.29381466852318       -1.55592906860694       -1.62436172442667
H           -0.93301334045169       -1.23047394073021       -0.00761244347239
H            0.62526847016461       -2.06058195036370       -0.19571485257578
H           -4.65861501818900        2.96215031923897       -0.28953734575212
H           -3.81852037285670        3.02982139940070        2.64702254640475
H           -4.88731781131594        1.82918163066054        1.92174163513321
H           -5.40382845968365        3.51094014125124        2.01727728309901
H           -2.71310656450702        4.79709471330285        1.16894524923155
H           -3.10457849791336        4.86314533357775       -0.55760227043248
H           -4.33552239903989        5.21628677045335        0.64754760256319
H           -0.88583940664205        2.43985570224574        2.89107944823341
72
 energy: 9.161101178528 xtb: 6.6.1 (8d0f1dd)
N           -1.77330286370039        2.69508344906866        2.41725821553615
C           -1.69056875121677        2.18980613158536        1.26581530061568
C           -2.76402194079611        2.14490165310562        0.26040024659846
C           -3.27994067893446        0.57193792990918        0.53362611049739
C           -4.27386466059172        0.18219212178542       -0.38336379553354
C           -4.86072394104017       -1.06916553074052       -0.40380729246010
O           -5.83996966668154       -1.47532971693891       -1.26623043552664
C           -6.35674263279232       -0.54233822782060       -2.18102293962825
C           -4.45181773248022       -2.04504890560186        0.52514729358243
O           -5.07860869428582       -3.24664625251855        0.41252481781863
C           -4.78478418300030       -4.23536922094362        1.36104355060676
C           -3.47859998824983       -1.70068239044913        1.44277704700150
C           -2.90444609259182       -0.41884536953512        1.44684241658409
C           -2.12738131381971        2.38241037925336       -1.12643196199339
C           -1.21065112391651        1.25335013120439       -1.62824735106668
C            0.06679002452948        1.20595121196145       -0.85725780389865
N            0.70260565532880       -0.00587518145481       -0.54030195483510
C            2.07679671886294       -0.01671261002503       -0.17646275876422
C            2.98908776083104       -0.51704055835057       -1.31374658255034
C            4.41328969531545       -0.42354990517272       -0.87567259765944
C            5.13836846298447        0.73683434069552       -1.06951480830432
C            6.44798359823832        0.83921180813025       -0.61993094719522
C            7.04915877241727       -0.21804651525157        0.04013550087665
O            8.32675131492312       -0.23184836771422        0.51798647276800
C            9.12779041851285        0.90132829590144        0.30736461137977
C            6.30992075811544       -1.40130906049998        0.26035639138529
O            6.97937518221924       -2.39023351533827        0.92100313837809
C            6.32039920500862       -3.60905280986324        1.14261713049244
C            5.00602382982765       -1.48431112159008       -0.19194416799625
C           -0.00029291094807       -1.26306170269364       -0.59354981927391
C           -3.92559483863866        3.13171314253175        0.47014388512316
C           -4.56863130613603        2.88305786056713        1.83554737181951
C           -3.50353379926298        4.60321359686109        0.38540971414932
H           -4.60088096878374        0.89997449933486       -1.11496999806461
H           -6.78236553717931        0.32323722072906       -1.66703088513411
H           -7.15105716351851       -1.05842176041343       -2.71720840789987
H           -5.60274406840975       -0.20783755200586       -2.90349550930977
H           -4.99994324573538       -3.89157386489783        2.37846557386912
H           -5.43840361752506       -5.07014015577819        1.11533301385997
H           -3.74038360244112       -4.56128356388633        1.29962235328197
H           -3.14796909128470       -2.44230247748553        2.15824752757424
H           -2.14879181443201       -0.22507841002116        2.18789143672630
H           -2.92845961142211        2.52794780248172       -1.86831912087813
H           -1.52700470077384        3.29713189862195       -1.05725432921376
H           -1.74282025915766        0.31056784079868       -1.51924487774097
H           -1.05568249555593        1.41738535802998       -2.71198561212326
H           -0.79540225729319        1.61012277957091        0.89475117652592
H            0.73454829798151        2.04006142642639       -0.99522097205034
H            2.21347990537129       -0.65404490112856        0.70775613597812
H            2.36991351857299        1.00427918555168        0.07971587579818
H            2.81345841575515        0.11062262794579       -2.18996469675239
H            2.72416149467739       -1.54590931802183       -1.55920101121972
H            4.69199038895735        1.57361364613938       -1.58602887964925
H            6.99323202865420        1.75326716118286       -0.79660315503760
H            8.71349688913143        1.78619854473492        0.80134356798582
H            9.26159063404035        1.11138808447831       -0.75982824785932
H           10.09481444031733        0.66410247000443        0.74909642635962
H            7.04451919230182       -4.24545635185133        1.64960480279706
H            5.44000670710944       -3.48586636893259        1.78388896209278
H            6.01804383388821       -4.08515302985739        0.20355666555899
H            4.42698367400379       -2.38003666305247       -0.03099726054514
H           -0.31522386939933       -1.52958402975411       -1.61125708394890
H           -0.90341701171096       -1.22594237249622        0.02666000705194
H            0.64643423499946       -2.05910330644373       -0.22040920153320
H           -4.65985183131294        2.96016986437500       -0.32532292444514
H           -3.83921412445516        3.07134207262795        2.61982491918517
H           -4.89178536144916        1.85302727333585        1.90480626891388
H           -5.43024070125615        3.52637464322584        1.98054261705138
H           -2.74964160536581        4.83377634594679        1.13299513398206
H           -3.12618313804647        4.87716383263537       -0.59826886930103
H           -4.37137981835364        5.22579982464439        0.59472207284410
H           -0.99240273311807        2.31816644855882        2.94576226709757
72
 energy: 18.281347873561 xtb: 6.6.1 (8d0f1dd)
N           -1.82984611312017        2.61910346182561        2.45928763694938
C           -1.71340386785022        2.20593649240643        1.27646871967173
C           -2.75789497025398        2.18453962542490        0.25578808256744
C           -3.27056968141428        0.53796102222339        0.58511946575873
C           -4.26628388231774        0.16331764985574       -0.33640647820894
C           -4.86434205176847       -1.08273845898582       -0.37235453725943
O           -5.84556890382109       -1.47067422463734       -1.24204086341160
C           -6.34762426611664       -0.52402742381930       -2.15176047392064
C           -4.46567603987704       -2.07214552807710        0.54573710569062
O           -5.10178836406239       -3.26657776461223        0.41461502824561
C           -4.81544927867634       -4.26877100703082        1.35005263159898
C           -3.49214251077101       -1.74568112088183        1.46992895831758
C           -2.90599568487582       -0.46718953435927        1.48863000642461
C           -2.10440136221729        2.40899057389036       -1.11732942591873
C           -1.19428246456223        1.27127063448485       -1.60827657849611
C            0.08737082104673        1.22990198239851       -0.84263012866135
N            0.72217742905308        0.00871705982064       -0.53364591009923
C            2.09633566556727       -0.00945530353945       -0.17981326987026
C            3.00254674044423       -0.50983582798344       -1.32181751015476
C            4.42661709572123       -0.42075270388494       -0.88488440579596