25
 energy: 65.925531050369 xtb: 6.6.1 (8d0f1dd)
C            3.94512821194821        0.75563218540861        0.15952944848532
N            2.83013983133252       -0.10305789446651        0.07759270419476
C            2.95006335910841       -1.43800057813334       -0.08682339275758
N            1.71552728388713       -1.99656224192786       -0.06769866705738
C            0.73739363733375       -1.01441220668718        0.00594677451581
C            1.46168118900191        0.24801773058413        0.09837374544666
C            0.90310281206424        1.45513532053787        0.13989621357554
O            0.61697268334529        2.58917419185877        0.37321658162143
N           -3.06891093524343        1.20750569435309       -0.13044005322294
C           -3.57789596901773        2.50817166159089       -0.11397023493842
C           -3.48844420942123        0.10396466354229       -0.15664764047474
O           -3.84107584910612       -0.99642768183191       -0.19198166985603
N           -0.52555993101526       -1.12190043377206        0.02572990610341
C           -1.13799468983614       -2.42845699098680        0.05322330927688
H            3.83995467923086        1.54708375659117        0.89691970415784
H            4.76205467220774        0.11712068397956        0.50254909000814
H            4.27106655032781        1.13422625951820       -0.81455212296676
H            3.86737637682219       -1.96725204488412       -0.16069545785896
H           -2.73034791152711        3.19223802271996        0.02870416657565
H           -4.11759531173885        2.69497521450856       -1.04871910286519
H           -4.28497468691805        2.59243322852527        0.71642613074125
H           -0.73508694878974       -2.94913624831256        0.92532949239377
H           -0.94273071053639       -3.01017907865745       -0.84611529982015
H           -2.22292391532489       -2.38922147188098        0.13513041355018
H            1.54625789589802       -2.97420367766431       -0.19228036685323
