25
 energy: 0.000000000000 xtb: 6.6.1 (8d0f1dd)
C            3.23720163006194        1.16630919979326        0.08434469647475
N            2.29877817382611        0.07527477071623        0.03981603040599
C            2.58028210190900       -1.21425402444508        0.03006176031096
N            1.43813958087363       -1.93419271955128        0.00098261760884
C            0.39035688448383       -1.05887472636071       -0.00790371836672
C            0.93510056364412        0.21347819449412        0.01709077491437
C            0.09450143893243        1.40504303904423       -0.00410947031874
O            0.49712751527797        2.54126714362870       -0.00342325688240
N           -1.25076640035757        1.06271879480407       -0.03085478223738
C           -2.21907211982101        2.15522099834493       -0.05001256985998
C           -1.81739487048744       -0.20012725993278       -0.04692818574614
O           -2.99983886758376       -0.37846417018721       -0.07008878229737
N           -0.92618586207120       -1.30210215599479       -0.03682761578324
C           -1.46982264913417       -2.64643102187190       -0.06029820460571
H            3.71247264356769        1.21471455160235        1.06488849150277
H            4.00791497605742        1.03430808813993       -0.67357694370751
H            2.69910007168542        2.09770118228144       -0.09130154882931
H            3.56654120610678       -1.63682992603973        0.04233140067262
H           -1.67107961066214        3.09322851271934       -0.02552706933167
H           -2.82428953597071        2.09428624779827       -0.95318082946668
H           -2.87644029173232        2.07745725625962        0.81450067533302
H           -1.17061996399332       -3.19584890659852        0.83242232437030
H           -1.14560257411436       -3.17511610292205       -0.95688275822323
H           -2.55549792440841       -2.55659984320617       -0.07459039797972
H            1.38130855184625       -2.94313852034425       -0.01389874181052
25
 energy: -4.530925237002 xtb: 6.6.1 (8d0f1dd)
C            3.25359248149717        1.18553524309403        0.09010991191427
N            2.31544625613650        0.10372820548261        0.03969009415779
C            2.61042096870882       -1.22312974311137        0.03422860687323
N            1.44055809702853       -1.93487806162572        0.00215479508522
C            0.40369761186936       -1.05664949299866       -0.01152790025473
C            0.93538583297602        0.22443304976907        0.01351857358337
C            0.09909860758090        1.39263688945957       -0.00893800697864
O            0.49398224650667        2.55983002177846       -0.00862096255532
N           -1.26606011863683        1.04080053638156       -0.03421499359303
C           -2.21418191314183        2.14704780802486       -0.05416432352297
C           -1.82759146423066       -0.21957507244254       -0.04657714800610
O           -3.02252984170319       -0.44900799328080       -0.06556194284237
N           -0.92979914906190       -1.30490232948900       -0.03802369358082
C           -1.50570240219234       -2.63283933260001       -0.05870488484787
H            3.73492730314252        1.22945679137794        1.07100699476313
H            4.02227321101693        1.05233752468606       -0.67305944760193
H            2.71028596745333        2.11235188857911       -0.08288781245486
H            3.59053440838920       -1.64551515191135        0.05173654650653
H           -1.64520141055552        3.07541571095254       -0.02778347123935
H           -2.81567247732319        2.10048856450882       -0.96081952899776
H           -2.87156306171995        2.08240626865077        0.81136096524032
H           -1.15196151749832       -3.20723497464757        0.79722244364259
H           -1.21731008733897       -3.15262128472522       -0.96238851685084
H           -2.60968724114410       -2.55255042847346       -0.04129209267506
H            1.37927236017706       -2.93853603526769       -0.00943030961750
25
 energy: 1.670773837269 xtb: 6.6.1 (8d0f1dd)
C            3.28363941512310        1.21729694556936        0.10280286823519
N            2.34062008612169        0.14546964282434        0.04017506576850
C            2.65478976885951       -1.22405921686274        0.04616663259122
N            1.45364381802135       -1.92587277290415        0.00626672257397
C            0.42539663630218       -1.05696851014869       -0.01919223045534
C            0.93722831306836        0.23851805145304        0.00517351712478
C            0.10230036641343        1.36334942854085       -0.02103119332080
O            0.46835569212218        2.56330834138835       -0.02302875566909
N           -1.29562791106912        0.99952742145724       -0.04309692950065
C           -2.20314484491098        2.13367051552035       -0.06587999756926
C           -1.84085528108107       -0.25824077055560       -0.04493927970296
O           -3.03947001935726       -0.58387357763184       -0.05312500079664
N           -0.93152071513619       -1.31319527630200       -0.03978639565783
C           -1.57448758156720       -2.61265192018745       -0.05638881990755
H            3.78219368840440        1.25805085427738        1.07997998425709
H            4.05192138431351        1.09481867200582       -0.66774714533063
H            2.74066275692156        2.14512364853931       -0.05949868206847
H            3.62973377852504       -1.64284802427178        0.07700396529802
H           -1.58840479179674        3.03852994024093       -0.03434158676263
H           -2.79579635835567        2.11914875368173       -0.98007368581499
H           -2.86231123019602        2.09777304808732        0.80000023095374
H           -1.10804118530605       -3.24705531445465        0.71540168632187
H           -1.40755697608097       -3.10505124707264       -1.00322865314620
H           -2.70582336690148       -2.53038320751445        0.06300268639859
H            1.39476922549863       -2.92535682350799        0.00241889232731
25
 energy: 20.925830072922 xtb: 6.6.1 (8d0f1dd)
C            3.31570040951690        1.25315493848384        0.11816200019022
N            2.36545688251414        0.18692106871061        0.04209167555309
C            2.69907527619828       -1.21567876228233        0.06217783939028
N            1.47845887745773       -1.91382948267548        0.01451202719325
C            0.44670210946589       -1.06474029184866       -0.02563023724434
C            0.94083126842491        0.24708211636851       -0.00411003264741
C            0.10181199885229        1.33258456503283       -0.03681976816781
O            0.43472302267347        2.55684151718119       -0.04380504984086
N           -1.32920176011517        0.95551353533216       -0.05554050956668
C           -2.18852359256851        2.12237795995517       -0.08314019461536
C           -1.85816113709424       -0.30107171550337       -0.04265491742968
O           -3.05520699724523       -0.71811314492325       -0.03998504164537
N           -0.93265515656996       -1.33096766502677       -0.03863992769290
C           -1.64937650466441       -2.60353132546975       -0.05030122800278
H            3.83683331898479        1.28844868042316        1.08838950984578
H            4.08393559220167        1.14955093681404       -0.66050389874532
H            2.77997247273048        2.18836397720968       -0.02631431367603
H            3.67408195370720       -1.62579192291887        0.11200209153532
H           -1.51985066205553        2.99644182235950       -0.04399103975682
H           -2.76813621069107        2.14727420833444       -1.00680202453414
H           -2.85102890298273        2.12135999102418        0.78119063115450
H           -1.04353993667458       -3.31763981949165        0.59610919897968
H           -1.67651700514447       -3.03991078658620       -1.06917326137065
H           -2.80551181162573       -2.51363670286934        0.21927576180016
H            1.43234116264004       -2.91197509546155        0.02053460544112
25
 energy: 40.291513853137 xtb: 6.6.1 (8d0f1dd)
C            3.34154365599986        1.28255724899139        0.12902025317794
N            2.38284121623627        0.21620745905298        0.04370791589502
C            2.72958347374564       -1.19983568982625        0.07427514200194
N            1.50718986136767       -1.90096549720060        0.02618985860275
C            0.45804237114244       -1.07785075126996       -0.02403915190427
C            0.94533085025446        0.24663200270687       -0.00983075489322
C            0.09971838536103        1.31125370872442       -0.05010512978267
O            0.40841919505272        2.54011208608563       -0.06284114137626
N           -1.35820761737463        0.92384018768193       -0.06776595981296
C           -2.17370041089813        2.11903712828251       -0.09765187213788
C           -1.87979200977459       -0.33193710506268       -0.04532423921944
O           -3.07109441711205       -0.79938345359503       -0.04170633462871
N           -0.93915764053639       -1.35452271581848       -0.03335776515663
C           -1.70681527344094       -2.61469495215126       -0.03865199297766
H            3.88593503965756        1.31029879241561        1.08994770672847
H            4.10797606174537        1.20163775609263       -0.65834816400510
H            2.81796743053916        2.22990631033765        0.00689611090214
H            3.71046900575903       -1.59815602854042        0.14218992944119
H           -1.46136343040403        2.96329019695303       -0.04937623096130
H           -2.73901207789388        2.18020231178528       -1.02919629615557
H           -2.83857980464654        2.14737894189301        0.76368874305026
H           -0.99666176671225       -3.39203427703982        0.46801871101561
H           -1.92368897361007       -2.97134438785983       -1.10430274193359
H           -2.87762148223729       -2.54121298365241        0.35681523148068
H            1.48289302571570       -2.90138768681409        0.03878206879652
25
 energy: 42.659492384654 xtb: 6.6.1 (8d0f1dd)
C            3.35911405210364        1.29780961580417        0.13280049322100
N            2.39053538662151        0.22045229574108        0.04430170242596
C            2.73478322900007       -1.17239226511803        0.07863913174538
N            1.54273546879578       -1.88435285097944        0.03961321196655
C            0.45648659457384       -1.09672398473014       -0.01235034058267
C            0.95584143163774        0.23310208771141       -0.01148823558843
C            0.09642234021315        1.30762881789634       -0.05955170119618
O            0.38971954431074        2.50488591962516       -0.07668458734608
N           -1.38025269951623        0.91055928896829       -0.07847905527460
C           -2.16316863331999        2.12254904917301       -0.10501747944756
C           -1.90320379204715       -0.34878341173909       -0.05621151650624
O           -3.07440804181589       -0.82013857102555       -0.06044877227486
N           -0.94601498544321       -1.38386994759616       -0.02662930490905
C           -1.73609208805396       -2.64996339528071       -0.02161775141524
H            3.92284489903019        1.31930455582273        1.08235497107494
H            4.12230729496641        1.24371193976680       -0.66162599231811
H            2.85294548025877        2.26266814482811        0.03463386400611
H            3.73025785396099       -1.55950934879328        0.16228030268531
H           -1.42801185961501        2.94018589927578       -0.04770592309728
H           -2.71360049404874        2.21141101524100       -1.04007470559032
H           -2.82668565399169        2.16977462007948        0.75226140881054
H           -1.00138916105398       -3.43922370796501        0.33607245443817
H           -2.11270264784943       -2.89987802829558       -1.07170170424689
H           -2.90456232211592       -2.60669599453246        0.44235898111089
H            1.54831347133451       -2.89348314170581        0.05130444445590
25
 energy: 44.002380810600 xtb: 6.6.1 (8d0f1dd)
C            3.36080955240615        1.30098710182674        0.13049596094701
N            2.38916050024350        0.21015362196196        0.04653409553668
C            2.72330862911538       -1.13431460167253        0.08084684993328
N            1.57880403680415       -1.87256103184254        0.05789195699222
C            0.45206431047631       -1.11457358116241        0.00999984962004
C            0.96531240604484        0.21523098140328       -0.00689841342677
C            0.10249609649720        1.31079282817367       -0.06463568999765
O            0.39064750978834        2.47927904326518       -0.09392183256692
N           -1.38020193379390        0.90346647181269       -0.08560860157476
C           -2.15488902543532        2.12248954927647       -0.11142687303367
C           -1.90960178891040       -0.36433507305432       -0.06334238932206
O           -3.05514949729775       -0.83163024238138       -0.08398840530528
N           -0.94105591681375       -1.40825106558977       -0.00965870192722
C           -1.75648757001381       -2.67698413098588       -0.01475649469687
H            3.93579000314489        1.30456337704726        1.07022534762712
H            4.11191566016975        1.26070647196482       -0.67352966933708
H            2.86684437006779        2.27489933281743        0.05542837920527
H            3.73004031802522       -1.50859381354722        0.17639507346630
H           -1.42223553266088        2.92871090704733       -0.04464235597947
H           -2.69345885323807        2.23435307904947       -1.04827609612299
H           -2.82123311905121        2.18467771014846        0.74083930164975
H           -1.02769414656096       -3.47801429777967        0.17532124592986
H           -2.24743821833204       -2.80011526687160       -0.99860121304873
H           -2.90271286662739       -2.66624957655511        0.51755280702381
H            1.61717974388802       -2.88565919218024        0.06478976455539
25
 energy: 57.886857593987 xtb: 6.6.1 (8d0f1dd)
C            3.36075716472093        1.31063098890583        0.12911043930693
N            2.38954862677206        0.21784673796957        0.04992718776922
C            2.72831129534738       -1.10422933554397        0.09123764053290
N            1.60649326908261       -1.86915653300607        0.08396742358736
C            0.45639642416278       -1.12860152293703        0.03730534983822
C            0.96475416632540        0.20744789758009        0.00038100304672
C            0.11189484821041        1.30275807765952       -0.06994479270367
O            0.39776958833148        2.48005204074990       -0.12201936244585
N           -1.37712080422880        0.88954625384348       -0.09284261147855
C           -2.14330095496370        2.11987707896728       -0.12488894869846
C           -1.90860833602364       -0.38216970851008       -0.06288888577072
O           -3.04599841695475       -0.87166202044381       -0.10711770724535
N           -0.93460136638022       -1.42506642139915        0.02342600116666
C           -1.78788815219213       -2.68537820267559       -0.00853497225542
H            3.95072093506433        1.28709857473901        1.05945676050965
H            4.09463844251547        1.27506285943362       -0.69011866736450
H            2.87138710685886        2.28601394010521        0.07930914426045
H            3.73892400961926       -1.46204494086872        0.19874757788965
H           -1.40338598715473        2.92002303166250       -0.04540493879582
H           -2.66829827474533        2.25490019672402       -1.06795994844563
H           -2.81788288037241        2.19685539390088        0.72100097922445
H           -1.00415351543825       -3.56103262583132       -0.01532341872306
H           -2.43106064629705       -2.66153773232708       -0.97527402368746
H           -2.91276133340945       -2.72923843962759        0.64368711173529
H            1.67567945908557       -2.87896698689840        0.09179555489421
25
 energy: 49.149419688714 xtb: 6.6.1 (8d0f1dd)
C            3.34081407815236        1.30283134523804        0.12007131695485
N            2.37630625556202        0.20728752410320        0.05026910857311
C            2.71572466595212       -1.08319280974136        0.09489681335789
N            1.61625284111922       -1.87850601338384        0.09985709259916
C            0.45610450624816       -1.13673052402445        0.05613649446837
C            0.95709018892230        0.19952825557465        0.00812115880154
C            0.11703265318932        1.30257062186231       -0.07046773070475
O            0.41775929086615        2.49321484665833       -0.14252306514220
N           -1.35117345535974        0.89288466727814       -0.09047649011167
C           -2.14040685815019        2.11533190679191       -0.12423224603072
C           -1.88768515794666       -0.38228744228300       -0.05899548462247
O           -3.02513581533853       -0.85637387354322       -0.10123130210599
N           -0.91839940233166       -1.42965249903036        0.04160248882556
C           -1.77885780633033       -2.68723407678889       -0.02784971093058
H            3.93512537751067        1.25526804842710        1.04404852108976
H            4.05755100317710        1.26039901757302       -0.70996583427647
H            2.84745673126512        2.27099320617973        0.08551686321673
H            3.72688711271797       -1.43228485782227        0.20296329821600
H           -1.41149192814234        2.92852240805546       -0.03576436973812
H           -2.66063865994328        2.24989126725615       -1.06954843805662
H           -2.82298757372264        2.18408069733014        0.71674199338288
H           -1.07212833521416       -3.54080313068195       -0.11179364771571
H           -2.42968007638796       -2.59204941754110       -0.90250849324787
H           -2.85522816968124       -2.77350695960251        0.64621240571238
H            1.70192320180229       -2.88115360571313        0.10595315363216
25
 energy: 42.815082436373 xtb: 6.6.1 (8d0f1dd)
C            3.32308785812337        1.29969694197272        0.11131184800102
N            2.36574339342145        0.20692092097359        0.05057300731532
C            2.71669900494131       -1.08624730613170        0.10855197526442
N            1.61537144009293       -1.88968205184380        0.12063941409914
C            0.45985768370419       -1.14063186214011        0.07226368088800
C            0.94647895812622        0.19813740144555        0.01342882789358
C            0.11799631817437        1.29837104386432       -0.07890620572203
O            0.44363691471905        2.49089156217871       -0.15823170434200
N           -1.33341919908656        0.90074398187486       -0.08746327018897
C           -2.13902556568832        2.11293551760866       -0.12827540365252
C           -1.86977401853741       -0.37280525831671       -0.03922098943574
O           -3.01810842121893       -0.82740108638964       -0.07128490239673
N           -0.91133301088619       -1.42971474814468        0.06645762244810
C           -1.76285263316846       -2.68618988412462       -0.04543617140505
H            3.92615107651692        1.23987390088383        1.02756269796157
H            4.02435279991240        1.25506370224301       -0.73146341569452
H            2.81890019697805        2.26024823792916        0.08959325860681
H            3.72707177779854       -1.42972865682182        0.21853071580706
H           -1.42239158604494        2.93918306187402       -0.03645032551001
H           -2.65131405701158        2.23234992637099       -1.07766709590591
H           -2.82990176859026        2.16484473241801        0.70601744185928
H           -1.09228475837270       -3.53772800977674       -0.20920125531241
H           -2.45760877703363       -2.50063412484884       -0.88562594765406
H           -2.79284899278361       -2.82211262924039        0.65744509804516
H            1.70773003384987       -2.88735671168623        0.13388499517772
25
 energy: 32.367616695855 xtb: 6.6.1 (8d0f1dd)
C            3.29859146343728        1.29370792918663        0.09772865673676
N            2.35252084480878        0.20514742140434        0.05038380211894
C            2.72453435889540       -1.11150032909119        0.13262665110968
N            1.60200509846529       -1.90844476020479        0.15064811756070
C            0.46761419481044       -1.14521281242186        0.08799281726641
C            0.93229596846790        0.19405349407967        0.01997910345808
C            0.10589935815148        1.28956081928853       -0.09503773963430
O            0.46582164653844        2.48153327514682       -0.17532327845979
N           -1.31205017598436        0.91300520334678       -0.07917497363380
C           -2.13819629773518        2.10935098874648       -0.13599844354969
C           -1.84253831123585       -0.35324210872737        0.00692631290049
O           -3.01638941533043       -0.76245335165703        0.00716914925091
N           -0.90792273541139       -1.42678801617785        0.10205007395017
C           -1.74773840269311       -2.67130020505866       -0.08026738077633
H            3.91847806900104        1.23161600438485        1.00054077425315
H            3.98031812089320        1.25552392734517       -0.76260647280071
H            2.77571842439186        2.24470110006251        0.09086258548882
H            3.73231374234861       -1.44832072904548        0.24562135031408
H           -1.43413390122322        2.95231958353006       -0.04251737280881
H           -2.64100344766113        2.20044686595281       -1.09468369061069
H           -2.84520624580094        2.13498678711489        0.68690071860543
H           -1.09659979085748       -3.52667340543841       -0.36645254455354
H           -2.46783715343776       -2.37732869216449       -0.84820130812132
H           -2.68958433842807       -2.88274729911813        0.64529824512065
H            1.69530359352522       -2.90291308831217        0.18256874296193
25
 energy: 25.502308214380 xtb: 6.6.1 (8d0f1dd)
C            3.28172872103834        1.28675896332345        0.08672506726804
N            2.34907068781952        0.19350848352702        0.05449674814615
C            2.73129418635863       -1.13608237693890        0.15227064871547
N            1.59317927136136       -1.92160869973685        0.17818501325187
C            0.47886706888584       -1.15077364262504        0.09771699439315
C            0.93404393033026        0.18289207723757        0.02880705971098
C            0.09696362892998        1.28353902794371       -0.10246438612206
O            0.47397667588863        2.47122253936536       -0.18905305814457
N           -1.29475469583185        0.91929496687436       -0.06611858443657
C           -2.14036569671365        2.09976858591959       -0.14459954744343
C           -1.81515983890264       -0.34362009841722        0.05617550038050
O           -3.00496823116256       -0.71341955021900        0.08627508598101
N           -0.89819864382031       -1.42862947431441        0.12351463450569
C           -1.72819722793894       -2.65905053383086       -0.12166991592473
H            3.91743441113452        1.23223441024695        0.97740348821930
H            3.94535374903746        1.26290674733076       -0.78946970090937
H            2.73971485269391        2.22927663499214        0.09021363992709
H            3.73716436877153       -1.46756108533474        0.27299621605177
H           -1.45841496180321        2.95724474227312       -0.05094117759962
H           -2.63384561607167        2.16441051480815       -1.11239388699679
H           -2.86456029709321        2.10788709860549        0.66456953675894
H           -1.10713939301064       -3.47134424486014       -0.50433837404377
H           -2.52189986871176       -2.26742667499095       -0.83769321607197
H           -2.58212698113737       -2.92436691256280        0.64505658742739
H            1.68305456788386       -2.91803289644461        0.23136952310273
25
 energy: 19.669378022053 xtb: 6.6.1 (8d0f1dd)
C            3.27065495813054        1.28022482339850        0.07717196485277
N            2.34860476888941        0.17814493938264        0.05949991468039
C            2.73041782760755       -1.15740387641017        0.16417932809360
N            1.58116263589600       -1.92979048682030        0.19777871200752
C            0.48130205655133       -1.15126066519053        0.09980372331466
C            0.94152404770256        0.17373521984101        0.03323105944407
C            0.09614001495848        1.28143958130567       -0.09993487142616
O            0.47920429106858        2.46227815307476       -0.19913727396908
N           -1.28147762664777        0.92744301628897       -0.04729203231681
C           -2.14437489281808        2.09231535066901       -0.15004795502349
C           -1.79782375494608       -0.33050037298317        0.10216418170480
O           -2.99478003752807       -0.66328207827190        0.15916115624817
N           -0.89635290746672       -1.42368300383813        0.12935028059962
C           -1.72222807358259       -2.63800092085801       -0.16221471884570
H            3.92041974858169        1.23873094489311        0.95868107029375
H            3.92068755176619        1.26980372393275       -0.80961424374528
H            2.71357432760190        2.21626382185350        0.08562608029427
H            3.73508284481026       -1.48858719519130        0.29759771050530
H           -1.48246120488061        2.96004673416195       -0.05801007724929
H           -2.62858586464913        2.13024851165924       -1.12557174703310
H           -2.88353889819368        2.08944550251526        0.64549767442715
H           -1.09906058912094       -3.42307180897909       -0.61671151547364
H           -2.53113866470461       -2.22175844294291       -0.81522196283672
H           -2.50536240036001       -2.95462913173698        0.62972920228552
H            1.66062450926982       -2.92912373758177        0.27131823531488
25
 energy: 15.390712332313 xtb: 6.6.1 (8d0f1dd)
C            3.26397679062108        1.27513985928705        0.06519768100089
N            2.35334142606615        0.15976932238196        0.06686972174658
C            2.72665151448916       -1.17466207214477        0.17481379884236
N            1.57307481844672       -1.93551906754973        0.22160514505917
C            0.48034491193395       -1.15035318669855        0.10351174946842
C            0.95574754537431        0.16588264691548        0.03221444079178
C            0.10478975704429        1.28226106287590       -0.09166301254697
O            0.47914137136479        2.45679299666782       -0.21523956432701
N           -1.27123419581769        0.93182158062612       -0.02043980380408
C           -2.14884135928602        2.08161128019813       -0.15368990313281
C           -1.78569259771030       -0.32200295198576        0.14989970129040
O           -2.98008247174786       -0.62747602056034        0.24507827311573
N           -0.89435925579460       -1.41858004711384        0.12943616165029
C           -1.71943573756338       -2.61215115875693       -0.20935932811426
H            3.92980258387070        1.24954959221974        0.93641865770152
H            3.89769281479234        1.27811157307098       -0.83200376620925
H            2.69193615402139        2.20381368406861        0.07928064290316
H            3.72919029592410       -1.50821728214057        0.33282253631604
H           -1.50414699028317        2.95763067786377       -0.06137808181595
H           -2.61782991010810        2.09317737180419       -1.13979083691724
H           -2.90677840243389        2.07438934506081        0.62373715666488
H           -1.10155181978135       -3.35893518058967       -0.73606966504231
H           -2.55510491792396       -2.18337216522910       -0.79877125925745
H           -2.42458480416861       -2.99264148442323        0.60907381917594
H            1.63616714660600       -2.93701177367593        0.31547963158741
25
 energy: 11.355024047348 xtb: 6.6.1 (8d0f1dd)
C            3.25799489143756        1.26874491526290        0.05004851168869
N            2.35878171381883        0.14211331956985        0.07574657784119
C            2.72009994790461       -1.19024494895278        0.18782232186301
N            1.56387922747059       -1.94081766341137        0.24903674419593
C            0.47603542988088       -1.14760827104934        0.10929513236307
C            0.96717996762494        0.16211241706591        0.02536866099896
C            0.11789557159948        1.28572721084929       -0.08612153580862
O            0.47731086619778        2.45771720354012       -0.24075865284385
N           -1.26136447829007        0.93580804269523        0.01184512059120
C           -2.15274224395032        2.07007510519710       -0.15503553717162
C           -1.77662334646501       -0.31290522513763        0.20377335825497
O           -2.96568654292416       -0.59445710632171        0.35284754425144
N           -0.89265248136160       -1.41308296256491        0.13039064618763
C           -1.70977783220635       -2.58648792177350       -0.25842736394029
H            3.93878468307393        1.25884339691059        0.90990658912431
H            3.87259787164945        1.27997662004945       -0.85812971868837
H            2.67077418446077        2.18813220100187        0.07029706019047
H            3.71664661375558       -1.52921452015785        0.38210380312715
H           -1.52571427559427        2.95691502093936       -0.06381515156724
H           -2.60228555870868        2.05276119383212       -1.15228638675239
H           -2.93148632243695        2.06072867006662        0.60167814004894
H           -1.11326863562838       -3.29204752318002       -0.85593145486544
H           -2.57443522078570       -2.14207346252037       -0.79054091519854
H           -2.32465092956031       -3.03951398206267        0.56709707503954
H            1.60492156697340       -2.94217312767609        0.36082332721710
25