72
 energy: -103.315693008306 gnorm: 0.048133255170 xtb: 6.6.1 (8d0f1dd)
N           -1.50757880031547        2.82450272808423        2.22552922687827
C           -1.59712125886588        2.16884496797700        1.15427833766168
C           -2.77883337997381        2.08218793524333        0.24366800113201
C           -3.33593031035188        0.66446057023983        0.32581191468701
C           -4.32348938271372        0.25614044557362       -0.57644307331144
C           -4.85943658975824       -1.01565495059997       -0.53272634521688
O           -5.82124357738139       -1.49167330507794       -1.36311523979883
C           -6.41260638453513       -0.61973228323228       -2.29290223569991
C           -4.39531531287205       -1.93424147068899        0.43798546039141
O           -4.97175829979581       -3.16433976567936        0.40084052925141
C           -4.62976289094039       -4.09462481084002        1.39862769538709
C           -3.42248915059726       -1.52500694501011        1.32954171094145
C           -2.89934001458543       -0.24102965448074        1.27439048940770
C           -2.24158679605877        2.32890075098842       -1.17893288263172
C           -1.25916483675700        1.24290410782681       -1.66285423826349
C            0.02002796809185        1.16200708556661       -0.84578138545002
N            0.64439459189878       -0.05213762239061       -0.53799496906763
C            2.02557547089046       -0.06460185061509       -0.13313356273404
C            2.95443785314828       -0.54974210343990       -1.26546771309857
C            4.38315995113559       -0.44626302556858       -0.83612615208563
C            5.10078640561899        0.71923273420991       -1.03339514471869
C            6.41135498361499        0.82856902095068       -0.59425885684430
C            7.02845381578720       -0.22804206148631        0.05688853278316
O            8.30271169946882       -0.22985022342452        0.52126772469329
C            9.10079930589405        0.90784173131805        0.31012247645649
C            6.30056165966247       -1.42044054514261        0.27414072119955
O            6.98293876424570       -2.40545424098006        0.91877819946335
C            6.34676423396784       -3.63968160992159        1.13186412912293
C            4.98944117741512       -1.50756579982932       -0.16579597908008
C           -0.03558880482924       -1.31648575298150       -0.59719173518051
C           -3.91159968959309        3.08444462340589        0.57702958684229
C           -4.52984471707884        2.78289319568915        1.94103815398400
C           -3.45367012063825        4.53958908795649        0.54106303401256
H           -4.69241048344859        0.95353621874908       -1.31658757839048
H           -6.87373212590987        0.24183007114477       -1.79873418666190
H           -7.18633470739311       -1.20301782594522       -2.79321298510350
H           -5.69034641592703       -0.27028121610252       -3.03512885117284
H           -4.84856472743783       -3.71102554577850        2.40151916363333
H           -5.24822185836492       -4.96983981637019        1.20524361962728
H           -3.57643529446967       -4.37874960919290        1.34096283707854
H           -3.05529456900757       -2.19887590130524        2.08531638140122
H           -2.15366385914985        0.05115202577741        1.99551025311723
H           -3.07856342142141        2.41450061541910       -1.88467671146998
H           -1.70645345392241        3.27616546177613       -1.19412168336242
H           -1.80092596675349        0.30187379679390       -1.66599165473782
H           -1.02788261188486        1.41896357039927       -2.72182755136156
H           -0.73815774942508        1.64737882655082        0.69879965035060
H            0.71926764960132        1.97774405795448       -0.92066376186268
H            2.14372443020421       -0.69798148735212        0.74128573285009
H            2.32143249572416        0.94289744670304        0.15380321543094
H            2.78209165687714        0.06877696758802       -2.13630171506574
H            2.70182342564115       -1.58248229912702       -1.50635987002989
H            4.64442276056034        1.55401633125261       -1.53627167085025
H            6.94812868762001        1.74624148483770       -0.77649854874612
H            8.68636977571757        1.78326206216339        0.81371483816135
H            9.22434873408874        1.12473801215936       -0.75746611342598
H           10.07239348997109        0.67117844031972        0.74240154065686
H            7.08589879146379       -4.26932135217652        1.62552633595952
H            5.47323414341400       -3.53433798513261        1.78030900718596
H            6.04441210203811       -4.11049625674307        0.18845059299427
H            4.42884966838883       -2.41566916055907       -0.00881564857356
H           -0.18183243213339       -1.64562952544524       -1.62723754491661
H           -1.00278990673844       -1.25427861518297       -0.10681113290006
H            0.55973206389775       -2.06692928248494       -0.08676203768648
H           -4.68471684433583        2.95849126679897       -0.18538181510692
H           -3.79328639713539        2.92213952920166        2.71670878852341
H           -4.89921177179162        1.76058851614482        1.98098990597428
H           -5.36311080791459        3.45722755273805        2.12721957907358
H           -2.66382341303591        4.69390783239719        1.25761738576910
H           -3.11078314151192        4.82415183203202       -0.44893527755321
H           -4.28883367097596        5.19033211979225        0.80278661688222
H           -0.63632607478036        2.83918362061291        2.71640487427754
72
 energy: -103.316740673766 gnorm: 0.022779650573 xtb: 6.6.1 (8d0f1dd)
N           -1.52851414749605        2.85562173720918        2.22623625777360
C           -1.60126099575994        2.17826072560429        1.16995679133190
C           -2.77893975350767        2.08197530590714        0.24938144274257
C           -3.33996974253030        0.66652724896661        0.32671813546034
C           -4.32544439435600        0.25674387617893       -0.57443658520592
C           -4.85956235956859       -1.01679775859408       -0.53202872713364
O           -5.82446718266172       -1.49391185689740       -1.36403886628341
C           -6.41173472670549       -0.61861473485041       -2.29284449814022
C           -4.39662245343648       -1.93509617237138        0.43802661919471
O           -4.97474066685542       -3.16719450595843        0.40179546335048
C           -4.62963789396141       -4.09557499223852        1.39879140296229
C           -3.42466538611191       -1.52613440013480        1.33030411416131
C           -2.90438665590495       -0.23888179525647        1.27565397015159
C           -2.21521289643880        2.32586096995572       -1.17135160300922
C           -1.25343319754268        1.22555772399673       -1.66557704624518
C            0.01678689326540        1.15316530619637       -0.86359500212630
N            0.64155177486092       -0.05070286641619       -0.54349760121816
C            2.01966965420121       -0.05877258094527       -0.13990181249136
C            2.95531838379859       -0.55003661326434       -1.26644393161387
C            4.38494461899384       -0.44722399716830       -0.83495949697646
C            5.10252616618849        0.71791697985138       -1.03283653394700
C            6.41367705870211        0.82705769726862       -0.59420914618453
C            7.02957910098931       -0.22836423941524        0.05703453299548
O            8.30795335539101       -0.23181313570024        0.52199393971862
C            9.10117053234624        0.90846710940791        0.31051379912766
C            6.30200460673475       -1.42033779042610        0.27365586142917
O            6.98477510162427       -2.40683725260034        0.91896906298850
C            6.34571242193899       -3.63912492523161        1.13193004068139
C            4.99412275344185       -1.50914398406429       -0.16811463038058
C           -0.04022555423209       -1.31355495000771       -0.60223948910895
C           -3.91710476614819        3.08466133120323        0.57663797435642
C           -4.53443621897204        2.78265281291940        1.94084793531121
C           -3.45498509372961        4.53966671820739        0.54019854140852
H           -4.68776689783700        0.95212766592730       -1.31536680666785
H           -6.87274849616978        0.24340758386278       -1.79896027732351
H           -7.18472564320324       -1.20050179590936       -2.79369982711715
H           -5.68747451344046       -0.26878623684592       -3.03547611299352
H           -4.84790083891572       -3.71090572217667        2.40090673519002
H           -5.24716333942329       -4.97174961831822        1.20713826710291
H           -3.57374743084143       -4.37796979748652        1.34078569971715
H           -3.05707439020098       -2.20126816415344        2.08653311419210
H           -2.15775024578651        0.05224679446790        1.99747281007640
H           -3.05050331562591        2.40191591376843       -1.87453882918619
H           -1.69207752540076        3.28272084374970       -1.18637731690122
H           -1.78237918933737        0.27304122545338       -1.64768875288520
H           -1.02251513180376        1.43635798013364       -2.72112509680851
H           -0.73665279451725        1.63986725738456        0.72010153848548
H            0.70748891031019        1.97741893661965       -0.95306749275011
H            2.14287011755483       -0.70242381536409        0.73569464330596
H            2.31727539659162        0.95128937697746        0.14706647209778
H            2.78022818046598        0.07003458797642       -2.14321984566969
H            2.70277270559598       -1.58272333421948       -1.51082447972874
H            4.64501825534129        1.55328479699628       -1.53956120325778
H            6.94952884768870        1.74562434916510       -0.77364529439739
H            8.68579499458203        1.78679417272228        0.81378106441659
H            9.22299515250082        1.12450822961614       -0.75678176530226
H           10.07300720760393        0.67261075932179        0.74172792081285
H            7.08396245210470       -4.26968437123813        1.62538261441774
H            5.47015343087747       -3.53388954384590        1.78058915556132
H            6.04435943845259       -4.10837169677582        0.18846932030741
H            4.43083523977538       -2.41569574771515       -0.00970897222105
H           -0.18809249300130       -1.64810960215872       -1.63437367915812
H           -1.01319145185419       -1.24943082490512       -0.11277199750426
H            0.55655423767315       -2.06275197512377       -0.08481841677928
H           -4.69145813225591        2.95605838804761       -0.18754990547332
H           -3.78945750485358        2.92070771191030        2.71541080594268
H           -4.90245418774720        1.76010175558255        1.98206158696822
H           -5.36734849099344        3.45746235458699        2.12778983129284
H           -2.65931706275129        4.69317142625942        1.25911150523305
H           -3.10893893288973        4.82565467555566       -0.44940099875986
H           -4.28843854253299        5.18975257575597        0.80250655784868
H           -0.64864061875583        2.83939863711230        2.72738690391806
72
 energy: -103.317442961529 gnorm: 0.012396290401 xtb: 6.6.1 (8d0f1dd)
N           -1.51937871807402        2.84062013144099        2.22175574010354
C           -1.59415879878972        2.17058632622323        1.16245730539115
C           -2.77936892605013        2.08133378577692        0.24655023401353
C           -3.33797464279040        0.66644261642421        0.32132923023358
C           -4.32565740925061        0.25740638683581       -0.57633755333622
C           -4.85781219498399       -1.01681471335805       -0.53281052905264
O           -5.82541610060295       -1.49540114106935       -1.36403136772004
C           -6.41357868678090       -0.62051033568524       -2.29214559772862
C           -4.39414937588248       -1.93405665712008        0.43676342088854
O           -4.97444193334021       -3.16657410042703        0.40169429718694
C           -4.63070944700870       -4.09452846323173        1.39845311992732
C           -3.42090587730780       -1.52589329786998        1.32784947305388
C           -2.89935941569751       -0.23867252283829        1.26964020143996
C           -2.22681457827481        2.33072736415139       -1.18121821646792
C           -1.25417306363535        1.23371573971032       -1.66508902194463
C            0.01433563777538        1.15009256101050       -0.86299673676384
N            0.64063271958806       -0.04928355385820       -0.53414095931230
C            2.01762343315515       -0.05821979829520       -0.13278553284648
C            2.95318834128629       -0.55034928585309       -1.26050230051346
C            4.38308676181225       -0.44672468683296       -0.83189839256561
C            5.10017268792746        0.71837097113115       -1.03129389663286
C            6.41190936305099        0.82764864181371       -0.59446155557673
C            7.02681932104248       -0.22741219982314        0.05662328889270
O            8.30769895243866       -0.23275286617410        0.52122710625624
C            9.10066931762328        0.90703796489262        0.30998460672978
C            6.29976836353331       -1.41927590627192        0.27433542870885
O            6.98466879075160       -2.40660035267892        0.91821563131631
C            6.34721112479865       -3.63934935169485        1.13153320078040
C            4.99296477721712       -1.50884674469941       -0.16615234417659
C           -0.03537255505051       -1.31429522888293       -0.59740560102115
C           -3.91529585791193        3.08563048069294        0.57860908054273
C           -4.53282031701918        2.78269947332999        1.94186342922291
C           -3.45647920479460        4.54139023757464        0.54033863714017
H           -4.69007664771686        0.95290164923934       -1.31460444086910
H           -6.87463762633825        0.24160751287976       -1.79846226336572
H           -7.18612312397232       -1.20332584622944       -2.79191359370390
H           -5.69012220127891       -0.27008432059275       -3.03622639071313
H           -4.84892114417724       -3.71027660756589        2.40061140490236
H           -5.24889088069300       -4.96987558750969        1.20574804630173
H           -3.57450278199320       -4.37881974289275        1.34115211196429
H           -3.05342857480736       -2.20044074119896        2.08513794222579
H           -2.15186701018452        0.05200062375918        1.99160117700504
H           -3.06851070955382        2.40703187437645       -1.87859826923316
H           -1.70893730566173        3.28959747123253       -1.19589154916116
H           -1.79335195842657        0.28799068863415       -1.65157357669244
H           -1.02289569066095        1.44333532598507       -2.72082660274476
H           -0.73182860514592        1.63709954039713        0.69898738623794
H            0.70431649111518        1.98020474781945       -0.92592486136560
H            2.14423223281625       -0.70500064182713        0.74428314182431
H            2.32009491348850        0.95019144312263        0.15608617254873
H            2.77730368003846        0.07077671295595       -2.13946289607080
H            2.70040190156888       -1.58287475356584       -1.50607169970825
H            4.64126712970593        1.55483442402498       -1.53721684437440
H            6.94771982536952        1.74586985168911       -0.77567680987430
H            8.68571056434268        1.78625943662982        0.81395374857985
H            9.22330909585834        1.12387700530483       -0.75685400759924
H           10.07174923632162        0.67035086798910        0.74208064382949
H            7.08659130759227       -4.26869651204144        1.62482658125074
H            5.47182536145216       -3.53524862379912        1.78158753664105
H            6.04540356327534       -4.10936849845823        0.18896859621076
H            4.42810560592291       -2.41474298488845       -0.00777232513338
H           -0.18392937683608       -1.64657432224350       -1.63127627282718
H           -1.00872445394136       -1.25639739361740       -0.10452323970188
H            0.56478275627380       -2.06516268622671       -0.08365962959248
H           -4.68973424895095        2.95720415790239       -0.18630385831059
H           -3.78815560957516        2.92171647138589        2.71878735424833
H           -4.89922152080145        1.75981969303147        1.98240223051189
H           -5.36556101178463        3.45738836203479        2.12747754990747
H           -2.65899092338225        4.69648841457119        1.25983564134547
H           -3.11004521675283        4.82648110547859       -0.44965191158188
H           -4.28977015409819        5.19013224969441        0.80285731755270
H           -0.62199364362545        2.82290090222412        2.70368302444916
72
 energy: -103.317501374740 gnorm: 0.010408665376 xtb: 6.6.1 (8d0f1dd)
N           -1.53559050948204        2.84008171120477        2.23283206556793
C           -1.59705698114028        2.17317963947955        1.16864576939859
C           -2.77935908194361        2.07940456909073        0.24834172617018
C           -3.33777297154117        0.66535552835578        0.32499739455428
C           -4.32413095809890        0.25726587616390       -0.57510129621792
C           -4.85742548312935       -1.01596481672366       -0.53108867690318
O           -5.82398181026213       -1.49370931502457       -1.36425246338639
C           -6.41142981121643       -0.61891267286364       -2.29263155377971
C           -4.39554222182822       -1.93313435217190        0.43897772816922
O           -4.97417320185035       -3.16639673150847        0.40189982580019
C           -4.63041679582004       -4.09455450534991        1.39824986388599
C           -3.42437888536122       -1.52567495127027        1.33254944915394
C           -2.90227619203074       -0.23917337192103        1.27581943888462
C           -2.23185534351819        2.32725555574036       -1.18156630452114
C           -1.25275023706616        1.23463463149641       -1.66264056357905
C            0.01920806301675        1.15218319501645       -0.85947156645637
N            0.64370477598071       -0.04943862463553       -0.53342091224442
C            2.02147422888010       -0.06184864781340       -0.13817098847650
C            2.95692117049635       -0.55208276519633       -1.26666874124426
C            4.38545713487772       -0.44734914768083       -0.83682045101595
C            5.10256953690497        0.71808122792004       -1.03437546252040
C            6.41322131747942        0.82818593507022       -0.59485775573094
C            7.02692379049719       -0.22711959450846        0.05645779641342
O            8.30763492247475       -0.23185973116764        0.52215360300556
C            9.10106760220506        0.90722854511894        0.31018208056492
C            6.29989237602636       -1.41929267853821        0.27371375444284
O            6.98410667497592       -2.40670025261265        0.91849455884389
C            6.34628665840924       -3.63928872721806        1.13121308678310
C            4.99338898803638       -1.50893292482780       -0.16786477418487
C           -0.03509978355926       -1.31276139773638       -0.59939450407903
C           -3.91384375106592        3.08459848319177        0.57765280795655
C           -4.53377956161458        2.78272717467893        1.93958119261663
C           -3.45615180185431        4.53976032840306        0.53945091202894
H           -4.68866513883736        0.95295142308471       -1.31418569456029
H           -6.87229550756412        0.24334938464571       -1.79919117036674
H           -7.18391452557229       -1.20106033514844       -2.79385595891664
H           -5.68734286364138       -0.26841441657499       -3.03561472815768
H           -4.84838481471269       -3.71188145485216        2.40121774914765
H           -5.24737812874595       -4.97057309625404        1.20488593432513
H           -3.57448981799153       -4.37865258738597        1.34088602117789
H           -3.05801892548985       -2.20038918143506        2.08950690866673
H           -2.15728806571466        0.05074911728695        2.00059391676208
H           -3.07234399293566        2.41199155513033       -1.88134717784726
H           -1.70332509172733        3.27831468454288       -1.19212481416641
H           -1.79972108495544        0.29533310857868       -1.65566059239492
H           -1.02582816842295        1.42293517070766       -2.72207723190979
H           -0.73155601862976        1.64979438948858        0.70398735470776
H            0.71641894670708        1.97700209629745       -0.92469056709645
H            2.14748617188631       -0.70378098731013        0.74093027934119
H            2.32529521172648        0.94500550049964        0.15030389403916
H            2.78324769185115        0.06932272661353       -2.14466009615226
H            2.70383145155760       -1.58426522574202       -1.51165057124931
H            4.64480323647960        1.55482844883457       -1.53956442997503
H            6.94919982406027        1.74635654840531       -0.77606269782022
H            8.68582348657771        1.78565575169047        0.81422906531989
H            9.22418245460817        1.12479958567801       -0.75663401170598
H           10.07228846846173        0.67186983416056        0.74292797492931
H            7.08434953854809       -4.26915453292509        1.62598714079974
H            5.47086716483124       -3.53387106359857        1.78044820193332
H            6.04412328450716       -4.10985460314472        0.18881829688191
H            4.42864484714665       -2.41531591916216       -0.01146792678179
H           -0.18457710789628       -1.64398145185645       -1.63247662715181
H           -1.00755724792592       -1.25190772490401       -0.10741187341351
H            0.55918338610473       -2.06818935279999       -0.08742139852579
H           -4.68610973666803        2.95684600125003       -0.18871005447109
H           -3.79208145043506        2.92173081712037        2.71787522269268
H           -4.90101893608274        1.76033965367895        1.98008797423167
H           -5.36525570485811        3.45820589831149        2.12537666419674
H           -2.66043306041325        4.69368709830952        1.25939900172703
H           -3.10861471125975        4.82367669988088       -0.45005840519285
H           -4.28850097476027        5.18962827200705        0.80175401084961
H           -0.64041021415427        2.83848371877733        2.71629376730893
72
 energy: -103.317715879138 gnorm: 0.005001702332 xtb: 6.6.1 (8d0f1dd)
N           -1.52522736979451        2.84407038256037        2.22687348847121
C           -1.59327595413942        2.17388069663747        1.16506831749111
C           -2.77893584161279        2.08035239413898        0.24853020626984
C           -3.33867063745343        0.66643751041588        0.32411938698427
C           -4.32525981951852        0.25766295595243       -0.57606796423098
C           -4.85809552446624       -1.01595202417191       -0.53190764400094
O           -5.82495501799112       -1.49409045603111       -1.36433413093368
C           -6.41363775038040       -0.61994252855570       -2.29231626395657
C           -4.39478855967606       -1.93345545880244        0.43703109386385
O           -4.97369963174241       -3.16666093436535        0.40123718010831
C           -4.63024066755936       -4.09402610059547        1.39843652187794
C           -3.42193840576911       -1.52601233696409        1.32879428764376
C           -2.90100425528249       -0.23909813987493        1.27266167650077
C           -2.22680865402970        2.32729573727982       -1.17893300284050
C           -1.25297029792888        1.23269863340010       -1.66506084017193
C            0.01732539016255        1.15358101585050       -0.86230392663006
N            0.64135831602658       -0.04835673873361       -0.53534272712016
C            2.01778606851470       -0.05892813928065       -0.13683112984501
C            2.95474873328533       -0.55030706965543       -1.26297775396885
C            4.38335568938082       -0.44650638497832       -0.83299536582233
C            5.10092304195859        0.71840224303163       -1.03136856257270
C            6.41229714602825        0.82807917169383       -0.59351265839496
C            7.02669495067213       -0.22743142814408        0.05676552640678
O            8.30751804726189       -0.23181038402367        0.52186523039376
C            9.10075919868824        0.90724373750718        0.30951438547559
C            6.29980729345791       -1.41954616343953        0.27451127878509
O            6.98455853426308       -2.40679993287422        0.91879885921773
C            6.34702618681525       -3.63947043294021        1.13138234741845
C            4.99231578422963       -1.50860827034228       -0.16506352038799
C           -0.03674822084011       -1.31242063634670       -0.59963684631980
C           -3.91404865078434        3.08503097208354        0.57846250455380
C           -4.53264366988955        2.78260836372289        1.94105451601155
C           -3.45628432779866        4.54027660355660        0.54049134265042
H           -4.69038676679865        0.95300599651440       -1.31552981479447
H           -6.87437480842388        0.24223951045884       -1.79863468919300
H           -7.18653604878962       -1.20246658709859       -2.79266223159413
H           -5.69031110701079       -0.26967573266639       -3.03596928025616
H           -4.84781672932888       -3.71010365190036        2.40105819835453
H           -5.24771904740428       -4.97013664738633        1.20664526620161
H           -3.57454627941109       -4.37858199784609        1.34117830009078
H           -3.05346327237029       -2.20107458107792        2.08408736358550
H           -2.15345936307554        0.05046753289728        1.99463012332362
H           -3.06494829699799        2.40883823759968       -1.88014011999519
H           -1.69887017707666        3.27932902052522       -1.18964799335953
H           -1.79254492140217        0.28834143698853       -1.65853277045337
H           -1.02544084165836        1.42834935140495       -2.72345574948915
H           -0.73455311260478        1.63764945621515        0.70508359399844
H            0.71316503403015        1.97802886939240       -0.93685513584886
H            2.14173103429255       -0.70009245325377        0.74221676306788
H            2.31846978582910        0.94886660140060        0.15175594384361
H            2.78032822898553        0.07072981734657       -2.14031616969977
H            2.70089847133070       -1.58235437906910       -1.50704662888184
H            4.64328255895245        1.55468875541195       -1.53681110004606
H            6.94810597288619        1.74627096452172       -0.77476691366249
H            8.68590453822771        1.78562036117739        0.81368413034540
H            9.22310367899038        1.12467111774822       -0.75744459438736
H           10.07245095345636        0.67194053780528        0.74141465342406
H            7.08555836053456       -4.26957106573853        1.62517504474100
H            5.47196326922330       -3.53460528721219        1.78105901116339
H            6.04456027491293       -4.10937048995144        0.18869826047624
H            4.42806382767942       -2.41506910984256       -0.00793525367614
H           -0.18448485584049       -1.64743782430724       -1.63149337352693
H           -1.00985899435699       -1.25171743974006       -0.10964626585576
H            0.55796483156756       -2.06478621771002       -0.08424410044189
H           -4.68807248699526        2.95718642170218       -0.18614318127671
H           -3.78992400046208        2.92155827856465        2.71779526113429
H           -4.89956764470777        1.76010927751496        1.98233257159539
H           -5.36446084468423        3.45730556383657        2.12874141433362
H           -2.66021101241194        4.69463172373217        1.25931673304149
H           -3.11023599878724        4.82544709602750       -0.44906097468754
H           -4.28870826072330        5.18975848731451        0.80393805365167
H           -0.63282134012676        2.83112493503743        2.71411023290925
72
 energy: -103.317685455290 gnorm: 0.005805411655 xtb: 6.6.1 (8d0f1dd)
N           -1.52656838314081        2.84537055260427        2.22601234963861
C           -1.59486016754732        2.17389385911047        1.16569255889454
C           -2.78049611639349        2.08112890434277        0.24862533201674
C           -3.33876359012119        0.66654816846147        0.32397119117295
C           -4.32493380550356        0.25706954755391       -0.57593242036914
C           -4.85766415117720       -1.01665228083480       -0.53156088097874
O           -5.82426691830437       -1.49473354324698       -1.36455018552654
C           -6.41141142024547       -0.61975893589851       -2.29261169121957
C           -4.39541578145124       -1.93368961087695        0.43811677449328
O           -4.97441318294515       -3.16705732928486        0.40199110962115
C           -4.63091041096885       -4.09504836107080        1.39832543755407
C           -3.42340715916949       -1.52546300134732        1.33062254412248
C           -2.90188588818348       -0.23850672263881        1.27326221936996
C           -2.22654111701784        2.33009281161380       -1.17774087653561
C           -1.25335766554049        1.23362764601079       -1.66102773342257
C            0.01549987485655        1.15188409368745       -0.85861553850443
N            0.64213380219574       -0.04965269346696       -0.53400003115483
C            2.01933951074492       -0.06036600587286       -0.13694676387168
C            2.95505259711557       -0.55102364447820       -1.26476761334192