25
 energy: -42.557830205538 gnorm: 1.112897985680 xtb: 6.6.1 (8d0f1dd)
C            3.21786164340000        1.13591514650000        0.01837059260000
N            2.27034809790000        0.05199982890000        0.00038279530000
C            2.54167221030000       -1.23971668410000       -0.00834188300000
N            1.39367826450000       -1.95088267900000       -0.00850347120000
C            0.35269634020000       -1.06748964300000        0.00059917290000
C            0.90759959010000        0.20069750900000        0.00663590170000
C            0.07590235260000        1.39864294500000       -0.00284827040000
O            0.48715076820000        2.53168346660000       -0.01725767220000
N           -1.27221500230000        1.06666939660000        0.00165480230000
C           -2.23229981500000        2.16656245330000       -0.00245172030000
C           -1.84872931540000       -0.19179276200000        0.00496135950000
O           -3.03273030250000       -0.36103538130000        0.00858583760000
N           -0.96599111670000       -1.30060631840000        0.00174701630000
C           -1.52030655580000       -2.64076660390000       -0.00239033190000
H            3.71480285180000        1.18589984860000        0.98803183970000
H            3.97079415090000        0.99383197990000       -0.75543416370000
H            2.68321036910000        2.07051068580000       -0.15067179540000
H            3.52469367910000       -1.66989040330000       -0.01523639120000
H           -1.67672429040000        3.10039111610000        0.00486339690000
H           -2.85755792270000        2.10547813320000       -0.89185337000000
H           -2.87119733260000        2.09858159720000        0.87661144540000
H           -1.20589108080000       -3.18768007210000        0.88663215920000
H           -1.21982032550000       -3.17678505510000       -0.90288069810000
H           -2.60531402170000       -2.54255916880000        0.00649952960000
H            1.32879827740000       -2.95942079410000       -0.01653446370000
25
 energy: -44.360243439194 gnorm: 2.533222763743 xtb: 6.6.1 (8d0f1dd)
C            3.21791516554655        1.13591596786106        0.01838702241558
N            2.27049619034244        0.05252598646242        0.00036356071500
C            2.54194725372162       -1.24029165907832       -0.00834067633202
N            1.39265307420932       -1.95145365311407       -0.00850057316177
C            0.35180626852197       -1.06629149139656        0.00060751662018
C            0.90759781933989        0.20094217659956        0.00663021769847
C            0.07852355517441        1.40112933989630       -0.00286925779195
O            0.48888667882146        2.53258445919024       -0.01727114698269
N           -1.26449319563166        1.11149020578624        0.00158237182161
C           -2.25270281896108        2.13077664549529       -0.00272758738130
C           -1.83426709410812        0.12352877089872        0.00505143721658
O           -3.02109595986102       -0.32907285914943        0.00853488661057
N           -0.97633280827588       -1.26118383504468        0.00178935786087
C           -1.52148674987839       -2.63410902115519       -0.00237012387531
H            3.71484731171034        1.18584408913281        0.98804764920010
H            3.97081415765405        0.99376896450725       -0.75544515357324
H            2.68327751008088        2.07045819568096       -0.15067410137262
H            3.52467269401208       -1.66998981646889       -0.01523702422010
H           -1.67914061906610        2.69260290009291        0.00515821752670
H           -2.85844227269106        2.10569695795647       -0.89351816878903
H           -2.87211667842846        2.09875273215591        0.87825616624091
H           -1.20601409175927       -3.18706742684391        0.88630202935307
H           -1.21993553028531       -3.17618547868653       -0.90254647829056
H           -2.60561121141459       -2.54264242796654        0.00649665075603
H            1.32863286532595       -2.95949118121201       -0.01653517436510
25
 energy: -47.511510301872 gnorm: 4.197394146342 xtb: 6.6.1 (8d0f1dd)
C            3.21792421353146        1.13609269337308        0.01840110395703
N            2.27078683542501        0.05300297177649        0.00034012272818
C            2.54201494367403       -1.24030914379251       -0.00833694223389
N            1.39224260965617       -1.95179497822489       -0.00849866164591
C            0.34872507567877       -1.06667563290317        0.00061474515154
C            0.90701669917670        0.20234350540918        0.00662684528362
C            0.08524612866431        1.40370720218681       -0.00289152398260
O            0.49043183686727        2.53449645611470       -0.01729562391942
N           -1.24828763950594        1.16359507205509        0.00142378111570
C           -2.30055757937283        2.07680363430958       -0.00339965082453
C           -1.83293755356941        0.45046202337842        0.00525793291528
O           -3.00742207394448       -0.30011571993654        0.00848861749168
N           -0.98213036142016       -1.23112342200269        0.00183259694528
C           -1.52223882830247       -2.62822842196506       -0.00235279973377
H            3.71482480296367        1.18601286389842        0.98805628190987
H            3.97077824264254        0.99395046581753       -0.75545012225572
H            2.68328291165321        2.07054226660033       -0.15068371609463
H            3.52474549074488       -1.66982044048802       -0.01523485786500
H           -1.65443703591475        2.29647748234762        0.00587744867956
H           -2.86159026490833        2.10474093903891       -0.89662035982492
H           -2.87532447960622        2.09773095106987        0.88128482636340
H           -1.20587367858935       -3.18623576895274        0.88598344939407
H           -1.21979008592859       -3.17537065042898       -0.90221628637980
H           -2.60569584658214       -2.54259474960403        0.00649746520778
H            1.32869715106664       -2.95945105747740       -0.01653305448280
25
 energy: -52.261708835678 gnorm: 5.597489200791 xtb: 6.6.1 (8d0f1dd)
C            3.21763079343006        1.13711948424172        0.01841928045903
N            2.27103469080727        0.05418480025548        0.00030920829105
C            2.54224219963343       -1.23978485091497       -0.00833208387624
N            1.39297135132439       -1.95182463996588       -0.00849728436287
C            0.34421485183933       -1.06767847128263        0.00062378642187
C            0.90581404966946        0.20468945878351        0.00662114262815
C            0.09822822784065        1.40715160425013       -0.00292176281175
O            0.49253640476858        2.53892564929101       -0.01735463259275
N           -1.17560169899437        1.26240627483895        0.00088063321893
C           -2.39800574546906        2.03978688724186       -0.00480690139242
C           -1.87591395928206        0.72821598537808        0.00596131475050
O           -3.00095913859759       -0.27796573692798        0.00848395175144
N           -0.98543292670944       -1.21401799056714        0.00187652656789
C           -1.52150859402946       -2.62491753944444       -0.00233888297377
H            3.71446120905969        1.18716424262835        0.98806411336308
H            3.97044951987839        0.99518239114642       -0.75546064620253
H            2.68270637278600        2.07130674763324       -0.15069503295043
H            3.52524539214191       -1.66869445686825       -0.01523143848353
H           -1.59274714906346        1.90050455577443        0.00728788728495
H           -2.86714085043981        2.10348947920929       -0.90161676595296
H           -2.88094631758745        2.09640642051512        0.88614166241074
H           -1.20481625185740       -3.18599179455517        0.88571324108928
H           -1.21873303316677       -3.17514268277948       -0.90192955592892
H           -2.60487939578476       -2.54322701832317        0.00650166267305
H            1.32958151190246       -2.95905025795848       -0.01652780548177
25
 energy: -57.747388633516 gnorm: 5.000713913607 xtb: 6.6.1 (8d0f1dd)
C            3.21835304750598        1.13563546182053        0.01845773323473
N            2.27133801716789        0.05364488143122        0.00028617620288
C            2.54148401426164       -1.24134048028246       -0.00833313479028
N            1.39239506305348       -1.95287121762328       -0.00851105105058
C            0.33910128307829       -1.06895763253762        0.00062164045669
C            0.90575897745480        0.20582168960309        0.00662314685270
C            0.11769512875363        1.40809898300165       -0.00294146689174
O            0.49804327345439        2.54491020494517       -0.01741540212307
N           -1.05334839073949        1.32081025378069       -0.00015905661223
C           -2.43641457966208        2.03622977449063       -0.00535669169250
C           -1.90518547469630        1.02320949368517        0.00712594902071
O           -2.99450680484764       -0.25690685825391        0.00848754673889
N           -0.98857572095968       -1.20082628068917        0.00189472058043
C           -1.52263942768417       -2.62110882088506       -0.00235911733001
H            3.71513217433199        1.18537746054433        0.98809721023926
H            3.97100817510398        0.99328109401401       -0.75545397889581
H            2.68384659483018        2.06999838523925       -0.15067003535038
H            3.52446116757188       -1.67033974231426       -0.01523567974380
H           -1.66118159265902        1.50771181210847        0.00792078443763
H           -2.86907911158214        2.10649953525212       -0.90615530057040
H           -2.88292560498279        2.09941771158821        0.89059801573231
H           -1.20628089571774       -3.18483080701196        0.88543913439185
H           -1.22018530768494       -3.17396462087381       -0.90171256633598
H           -2.60599752302864       -2.54162165332088        0.00647264468427
H            1.32813503177652       -2.95964008611215       -0.01654960328556
25
 energy: -14.663324971542 gnorm: 841.240757403136 xtb: 6.6.1 (8d0f1dd)
C            3.22109961211429        1.12914788014217        0.01850891035429
N            2.27229568989862        0.04995013176419        0.00026160094207
C            2.53876785650742       -1.24702523644670       -0.00830994939762
N            1.38989398664110       -1.95591651684149       -0.00850077968567
C            0.32966591680099       -1.07195787313342        0.00062659269678
C            0.90672672155961        0.20682203194137        0.00665189410646
C            0.15498097283942        1.40302721105234       -0.00296671740201
O            0.50970206295420        2.55540389898199       -0.01757554331970
N           -0.75218783958934        1.33946856608985       -0.00326098037489
C           -2.47978742894666        2.10619082148883       -0.00607982699507
C           -1.94968441708367        1.22359055511384        0.00954588707285
O           -2.98659395873666       -0.25235442639927        0.00853047252186
N           -0.97981186490577       -1.22462059358135        0.00185735665823
C           -1.52642108910469       -2.61777056763281       -0.00237257472562
H            3.71787317210373        1.17779248416930        0.98812430958686
H            3.97332409540274        0.98515221822477       -0.75542952854572
H            2.68850408560053        2.06452428884067       -0.15064797510731
H            3.52112585592987       -1.67747430416405       -0.01520697224644
H           -1.90867361262503        1.24679309900600        0.00954234311778
H           -2.86910014896440        2.11696833216081       -0.91243911463524
H           -2.88310769404940        2.11004997588624        0.89667489508419
H           -1.21269226214878       -3.18150660105493        0.88519955907204
H           -1.22655815292574       -3.17061475730223       -0.90148118595024
H           -2.61091747930107       -2.53528596874362        0.00645377668586
H            1.32200743412869       -2.96211610796251       -0.01653483161375
