25
 energy: -42.489205604904 xtb: 6.6.1 (8d0f1dd)
C            3.52302410330494        0.97432856248493        0.12378574039469
N            2.52239350707602       -0.05153693582244        0.01228030314935
C            2.76952096983754       -1.36415767342532       -0.04849709914263
N            1.59396858847760       -2.04373402869464       -0.05750916834817
C            0.58237042784916       -1.11204914325026       -0.00546440704880
C            1.16420099020254        0.14690946293953        0.03627720817084
C            0.30959769076219        1.37684280406796        0.06606429275393
O            0.81998571223988        2.48350968202143        0.13960168811723
N           -1.03961878234277        1.13698587043095        0.03063234160868
C           -3.36070541044572        2.61192584607411       -0.15399384592272
C           -1.63896500097067       -0.02349515577588        0.02408307453195
O           -2.80298118837799       -0.33389666264950        0.05032532216838
N           -0.72673851211879       -1.27203976270067       -0.00872706627812
C           -1.30706671842758       -2.58509961497914       -0.02580077756095
H            3.94062021827129        0.99860108630406        1.13141384412884
H            4.32393263546074        0.75109809929780       -0.58131666494614
H            3.11689781411517        1.95708223338122       -0.08090232877641
H            3.72605893227220       -1.82890751752037       -0.10786119452425
H           -2.74646460075466        3.47258126217067       -0.14514620052226
H           -3.78375230496631        2.29726332172669       -1.07418049778757
H           -3.88445214496885        2.33929424724852        0.72591279694099
H           -0.94846385203125       -3.14647558805813        0.83914943699620
H           -1.02028516077444       -3.10616345161193       -0.94434077283945
H           -2.39460670876000       -2.50890342344873        0.02094613149897
H            1.51918521991219       -3.04805641064807       -0.09606010517011
