25
 energy: 0.000000000000 xtb: 6.6.1 (8d0f1dd)
C            3.23720163006194        1.16630919979326        0.08434469647475
N            2.29877817382611        0.07527477071623        0.03981603040599
C            2.58028210190900       -1.21425402444508        0.03006176031096
N            1.43813958087363       -1.93419271955128        0.00098261760884
C            0.39035688448383       -1.05887472636071       -0.00790371836672
C            0.93510056364412        0.21347819449412        0.01709077491437
C            0.09450143893243        1.40504303904423       -0.00410947031874
O            0.49712751527797        2.54126714362870       -0.00342325688240
N           -1.25076640035757        1.06271879480407       -0.03085478223738
C           -2.21907211982101        2.15522099834493       -0.05001256985998
C           -1.81739487048744       -0.20012725993278       -0.04692818574614
O           -2.99983886758376       -0.37846417018721       -0.07008878229737
N           -0.92618586207120       -1.30210215599479       -0.03682761578324
C           -1.46982264913417       -2.64643102187190       -0.06029820460571
H            3.71247264356769        1.21471455160235        1.06488849150277
H            4.00791497605742        1.03430808813993       -0.67357694370751
H            2.69910007168542        2.09770118228144       -0.09130154882931
H            3.56654120610678       -1.63682992603973        0.04233140067262
H           -1.67107961066214        3.09322851271934       -0.02552706933167
H           -2.82428953597071        2.09428624779827       -0.95318082946668
H           -2.87644029173232        2.07745725625962        0.81450067533302
H           -1.17061996399332       -3.19584890659852        0.83242232437030
H           -1.14560257411436       -3.17511610292205       -0.95688275822323
H           -2.55549792440841       -2.55659984320617       -0.07459039797972
H            1.38130855184625       -2.94313852034425       -0.01389874181052
25
 energy: -5.396100986038 xtb: 6.6.1 (8d0f1dd)
C            3.24414802290298        1.17807502085080        0.08675456642284
N            2.30842581276406        0.09592959395618        0.03774244971173
C            2.60015811471137       -1.23214570245565        0.03008598685771
N            1.42817237551863       -1.94003193094470        0.00084782473055
C            0.39677916934600       -1.05628635976145       -0.00826138071339
C            0.93053278556099        0.22260801210272        0.01526243791457
C            0.10196778516349        1.39601991335176       -0.00525649686516
O            0.49847831343826        2.56193535500066       -0.00463279367848
N           -1.25996974987051        1.05044976934320       -0.03111515447082
C           -2.22028237004477        2.14649006215078       -0.04985394457527
C           -1.82315932428999       -0.20089514857316       -0.04732174845390
O           -3.01978947866266       -0.38327011145716       -0.07043470802047
N           -0.93393173804189       -1.30128650496331       -0.03706118741821
C           -1.47327344188082       -2.64306869310827       -0.06024360056501
H            3.72254992240003        1.22401121692366        1.06873996057389
H            4.01217653621888        1.04351933302496       -0.67633902125382
H            2.69730078078512        2.10270160455440       -0.08863455157938
H            3.57847671220723       -1.65822729031835        0.04274928622785
H           -1.65881692010488        3.07781492108555       -0.02535062056747
H           -2.82565422748270        2.09296495087948       -0.95426352001266
H           -2.87784018914397        2.07631444882319        0.81601574851130
H           -1.17114427657468       -3.19497985440008        0.83185143505781
H           -1.14608145062783       -3.17445441282559       -0.95606782002822
H           -2.55849023666164       -2.55141928007513       -0.07461751251619
H            1.36148174030549       -2.94374031099246       -0.01356173914250
25
 energy: -6.562697612081 xtb: 6.6.1 (8d0f1dd)
C            3.25110322175562        1.18567057675281        0.08913111021952
N            2.31547037509528        0.10781074241851        0.03417924030687
C            2.61078012077409       -1.24470754053693        0.03033850407868
N            1.41742242677055       -1.93851120155028        0.00123432285257
C            0.40077088829676       -1.05259375267242       -0.00890671546766
C            0.92745480521730        0.23019749488478        0.01259054388937
C            0.10837862278306        1.38407647708144       -0.00738123591730
O            0.48714434441738        2.56494684213424       -0.00744280355809
N           -1.26942909494813        1.03912989166580       -0.03174697353838
C           -2.22029934925900        2.13898310274015       -0.04965255414426
C           -1.82480715625317       -0.20277857257670       -0.04776286353894
O           -3.02547949631200       -0.39095881136319       -0.07058778089509
N           -0.93919628940764       -1.29890927127853       -0.03732457505230
C           -1.47577861914492       -2.63874700691229       -0.06009496243455
H            3.73683368412801        1.23479126303354        1.06950282408467
H            4.01842159348857        1.06003235822979       -0.67817863182263
H            2.69898002803670        2.10823226299534       -0.08140012506462
H            3.58260907019660       -1.67656702541856        0.04353910346119
H           -1.64194030573798        3.06072045800182       -0.02515549704071
H           -2.82670870547650        2.09279679167690       -0.95432553631702
H           -2.87829238825561        2.07626613661573        0.81701119141772
H           -1.17375108244832       -3.19342061622110        0.83149386570610
H           -1.14850410528386       -3.17334194977151       -0.95517800913293
H           -2.56086478362733       -2.54396930298277       -0.07462522150562
H            1.34189686313072       -2.94012074477455       -0.01222332443930
25
 energy: -6.652567119266 xtb: 6.6.1 (8d0f1dd)
C            3.25423200132282        1.18817241222453        0.09041423206797
N            2.31897544905677        0.10910753853449        0.03118826561833
C            2.61218287736880       -1.24963185926554        0.03049897532028
N            1.41389742740636       -1.93657568501196        0.00199734174911
C            0.40198750335041       -1.05154138754427       -0.00949249331266
C            0.92802552810490        0.23266097351535        0.01044249726590
C            0.11050279959415        1.38086850749962       -0.00970781960028
O            0.47594106860028        2.56481479438666       -0.01071372815547
N           -1.27418939321933        1.03506611052128       -0.03268421022353
C           -2.21989777096671        2.13666416159455       -0.04960463075651
C           -1.82509838566206       -0.20538385740217       -0.04822036202366
O           -3.02523984663470       -0.39818356496000       -0.07068003569086
N           -0.93945859241735       -1.29832615286759       -0.03750699648050
C           -1.47646232729235       -2.63716453170180       -0.05982002187322
H            3.74594644503597        1.23769088241920        1.06836756930722
H            4.02088026576761        1.07384825437790       -0.67996548471180
H            2.70045366035411        2.11183568913138       -0.07261322172127
H            3.58156893822147       -1.68629327162413        0.04412635256912
H           -1.63194770836836        3.05224090669410       -0.02525507801210
H           -2.82720901904520        2.09416513859343       -0.95382741755252
H           -2.87750190689108        2.07751694688559        0.81758468974603
H           -1.17660123289571       -3.19249129656239        0.83209267874743
H           -1.15105429311165       -3.17304082524849       -0.95483061377872
H           -2.56154624465093       -2.53873140361302       -0.07453156975619
H            1.33382742490801       -2.93825987840472       -0.01022502259483
25
 energy: -6.651108227937 xtb: 6.6.1 (8d0f1dd)
C            3.25676807982118        1.19034698236683        0.09239763071091
N            2.32344360250195        0.10811009837454        0.02645027852598
C            2.61225951654260       -1.25364940991806        0.03047108809167
N            1.41233923862892       -1.93440205777086        0.00346898988917
C            0.40297519109970       -1.05078831603596       -0.01053981135082
C            0.93033634868634        0.23455851308736        0.00679609819926
C            0.11279137128606        1.37973595834977       -0.01418940175921
O            0.46243790550189        2.56532807582632       -0.01687483099658
N           -1.27846859364945        1.03133931799942       -0.03474141708181
C           -2.21893940771315        2.13501001613065       -0.04969641905284
C           -1.82550968655593       -0.20917268069132       -0.04918368699728
O           -3.02440547094599       -0.40734500634729       -0.07078772600846
N           -0.93813610406781       -1.29846172413820       -0.03782836352709
C           -1.47698516161068       -2.63632839612349       -0.05913849786732
H            3.75745984301150        1.23470860680218        1.06643173431439
H            4.02026556434504        1.09402763120962       -0.68437674793520
H            2.69973316003332        2.11555864347657       -0.05562396322867
H            3.57903787495401       -1.69668322241731        0.04488078417179
H           -1.62151780589999        3.04418528032887       -0.02586271383553
H           -2.82804426420230        2.09716114458160       -0.95281462131124
H           -2.87533011739472        2.08006094251481        0.81859871790689
H           -1.18082908747954       -3.19175835153472        0.83366303558827
H           -1.15465446558268       -3.17373135410184       -0.95407481761760
H           -2.56199532021266       -2.53240384778427       -0.07423025209081
H            1.32718245683858       -2.93637824201318       -0.00616119059058
25
 energy: -6.581458169868 xtb: 6.6.1 (8d0f1dd)
C            3.25787201763485        1.19245310277287        0.09578890503850
N            2.32829547976904        0.10608165687921        0.01957647660988
C            2.61205279376794       -1.25612966812427        0.02975112279265
N            1.41269838358295       -1.93255842339079        0.00560667495938
C            0.40372285500883       -1.05012875216837       -0.01232900204264
C            0.93357485333356        0.23590821473599        0.00094359919212
C            0.11579170008464        1.37982116454215       -0.02183599307457
O            0.45099882022058        2.56660845172527       -0.02727420813231
N           -1.28111116994882        1.02774970884407       -0.03858340457864
C           -2.21718669611001        2.13381045412128       -0.05011195357951
C           -1.82599524618393       -0.21306356332465       -0.05090775022744
O           -3.02368897057637       -0.41581361000092       -0.07084399540237
N           -0.93599542890482       -1.29938491143676       -0.03841320758521
C           -1.47761902347859       -2.63643575858179       -0.05773754544478
H            3.77211736557578        1.22191627695000        1.06377713361832
H            4.01342595360796        1.12151040271948       -0.69284094622247
H            2.69443252731930        2.11879619490853       -0.02630506552935
H            3.57612201916466       -1.70600069803640        0.04566671091548
H           -1.61241678139065        3.03787975445306       -0.02749965627282
H           -2.82942533039721        2.10119344890784       -0.95122884343126
H           -2.87096537784547        2.08316669434404        0.82036307477745
H           -1.18592145230572       -3.19132473354847        0.83651124102240
H           -1.15866404752575       -3.17614457943861       -0.95214517788934
H           -2.56240844928091       -2.52623390139944       -0.07351842581341
H            1.32250787281430       -2.93464832428129        0.00062413244721
25
 energy: -5.837015342629 xtb: 6.6.1 (8d0f1dd)
C            3.25834227303255        1.19912120102383        0.10947362148509
N            2.34226441967557        0.10002114592675       -0.00495695133082
C            2.61204261581069       -1.26161928550988        0.02561577616107
N            1.41529801394764       -1.92798844552015        0.01262346878470
C            0.40576232921252       -1.04850556284502       -0.01939208185349
C            0.94321360747906        0.23906710036601       -0.02115698300984
C            0.12612605549995        1.38028631391248       -0.05119565086202
O            0.42368560289630        2.57058619858430       -0.06725566615855
N           -1.28619357732484        1.01741326324317       -0.05392476678314
C           -2.21062541370026        2.13067798901556       -0.05219749752344
C           -1.82707776715595       -0.22344323899553       -0.05761782562768
O           -3.02175009729722       -0.43754826573668       -0.07077470240486
N           -0.92964757537592       -1.30309481555807       -0.04084333483859
C           -1.48008385101948       -2.63784692220798       -0.05185185920630
H            3.82412547611916        1.16489505285337        1.05380640465569
H            3.97947925554944        1.21864439788980       -0.72556330477951
H            2.67037380227464        2.12788133009386        0.08773163418948
H            3.56821037302126       -1.73113893319188        0.04795431213145
H           -1.58744863228195        3.02198006114417       -0.03496673959695
H           -2.83495482474547        2.11334891383610       -0.94541221820515
H           -2.85334848253061        2.09180733104255        0.82718911135155
H           -1.20182164782018       -3.18973158385719        0.84771442734827
H           -1.17049621952262       -3.18650335578068       -0.94327082183387
H           -2.56401141749597       -2.50924653619288       -0.07031444436476
H            1.31075034968778       -2.93003475136399        0.02561998841893
25
 energy: -2.285504554327 xtb: 6.6.1 (8d0f1dd)
C            3.25572471478862        1.20910917965741        0.13485917476833
N            2.36233387241058        0.09102773278963       -0.04687356364329
C            2.61233441312166       -1.26755580211319        0.01762767040810
N            1.42059995803537       -1.92182275239109        0.02366604378966
C            0.40848749932783       -1.04652168900528       -0.03279569946367
C            0.95753532298454        0.24281152285501       -0.06105243146727
C            0.14310484935284        1.38152440968534       -0.10392464797271
O            0.38987546293619        2.57609513553656       -0.13916181477069
N           -1.29118705462678        1.00294796007115       -0.08184752406803
C           -2.19977725682516        2.12662610917491       -0.05549253319546
C           -1.82826120252458       -0.23744878719891       -0.06969795630708
O           -3.01882900548273       -0.46624806482988       -0.06999120445278
N           -0.92025969802598       -1.30951831449266       -0.04586102677470
C           -1.48421318972627       -2.64101166815134       -0.04119635900924
H            3.91079693483900        1.06091466548648        1.03347097322941
H            3.91214495527062        1.38069175740242       -0.77612824467022
H            2.63012355652357        2.13744986409767        0.28688417988811
H            3.55693406880066       -1.76532996724081        0.05152938187464
H           -1.55304274885540        3.00128664593573       -0.04869702310765
H           -2.84600966797477        2.13168702494779       -0.93392199547635
H           -2.82116005283470        2.10326491897583        0.84049257949895
H           -1.22607438526510       -3.18629058638638        0.86762781560755
H           -1.18790750452735       -3.20553150955448       -0.92635356740234
H           -2.56660335242490       -2.48579740891765       -0.06432769973999
H            1.29554417863831       -2.92333177416222        0.06819936860397
25
 energy: -4.542026347402 xtb: 6.6.1 (8d0f1dd)
C            3.25212434669624        1.20502284515421        0.13193308533069
N            2.35392691122323        0.09423726525062       -0.03803061655972
C            2.61201669269125       -1.26094974493307        0.01974686734376
N            1.42149007461078       -1.92457328624677        0.02034674004762
C            0.40677308070747       -1.04750069721011       -0.03242394550763
C            0.95257661829241        0.24024075401078       -0.05668683159369
C            0.13846693705707        1.38291604119231       -0.09714854007317
O            0.41103649484111        2.57410559219825       -0.12965453767500
N           -1.28563771131287        1.00960053834433       -0.07785518368437
C           -2.20258932590647        2.12902620912275       -0.05238256816970
C           -1.82761828195553       -0.23075627040910       -0.06790601031419
O           -3.02010250706752       -0.45114177466693       -0.06862825554362
N           -0.92330364744218       -1.30859552766200       -0.04659320039602
C           -1.48301987861144       -2.64170544561782       -0.04366648066603
H            3.88165795285951        1.08317825547223        1.03528196242660
H            3.92047897846225        1.33335418880612       -0.74966408769417
H            2.64380335388606        2.12567811028086        0.23669413233710
H            3.56119328099238       -1.74715443734451        0.05044622679961
H           -1.57068850919296        3.01351476719490       -0.04461398953983
H           -2.84648953698413        2.12637339029772       -0.93178904937667
H           -2.82465512112197        2.09671251753827        0.84227634709966
H           -1.21764325204072       -3.18680531589039        0.86326923688679
H           -1.18150319833406       -3.20323456799939       -0.92910118338688
H           -2.56554996682817       -2.49703525415349       -0.06563326776359
H            1.30547088241436       -2.92547955055776        0.05881704581971
25
 energy: -4.938473611713 xtb: 6.6.1 (8d0f1dd)
C            3.24103247573058        1.20461313683790        0.15274124951699
N            2.35204519855204        0.09555020607266       -0.06130001378868
C            2.61287286294342       -1.25164755996192        0.01773310639509
N            1.42659310934398       -1.92553009169728        0.02292203046718
C            0.40578590664523       -1.04826151577532       -0.04766872854396
C            0.95262689902639        0.23761236355202       -0.09058302244166
C            0.14317630659483        1.38526281265278       -0.13899555541920
O            0.43118924350005        2.57390584677673       -0.18813740803262
N           -1.27708115198565        1.01160103257047       -0.09910552502861
C           -2.19840813078561        2.13041685010941       -0.04689540654757
C           -1.82637186189627       -0.22676107773300       -0.07675885799972
O           -3.02011102804583       -0.44008322494260       -0.06327958861752
N           -0.92314960290478       -1.31202858114511       -0.05558801379750
C           -1.48473609032318       -2.64537011698706       -0.03855043548340
H            3.89825459137147        1.02971150446408        1.01731148181478
H            3.87059880695955        1.38605518842133       -0.73139826272136
H            2.63763404279332        2.10260591738704        0.32441580527553
H            3.56254269143608       -1.73513933182305        0.05195858736728
H           -1.57800892823307        3.02263697629970       -0.04925583488642
H           -2.86263206571598        2.13027585825651       -0.91089968026800
H           -2.79699434361672        2.08922191578333        0.86377693288343
H           -1.21979280573545       -3.18152284282691        0.87393020366976
H           -1.18188394534510       -3.21738819240523       -0.91684267695942
H           -2.56632054112311       -2.50245263308532       -0.06243936074063
H            1.31335302874984       -2.92425583862910        0.07994287003347
25
 energy: -4.350278238916 xtb: 6.6.1 (8d0f1dd)
C            3.21612562241523        1.20279852940276        0.20643646025315
N            2.34597883204543        0.10328453081244       -0.12700891117452
C            2.61813621037996       -1.23294989759162        0.01623728709876
N            1.43370556712506       -1.92912785444769        0.02824560573608
C            0.40534899787430       -1.05113914812047       -0.08811903070146
C            0.94889651341718        0.23040518446587       -0.17992532796194
C            0.15022803437935        1.38480514790952       -0.24550258401273
O            0.48105584274479        2.57007216799315       -0.34220174111476
N           -1.25736504429896        1.01608971651888       -0.15360216251365
C           -2.18683939131468        2.13271837420991       -0.03427508978458
C           -1.82129400323480       -0.21483444295200       -0.09777441289397
O           -3.01909030509766       -0.41009252706869       -0.04697643971821
N           -0.92569956905236       -1.31873531427601       -0.08006857978222
C           -1.49024462345137       -2.65061140359766       -0.02444420880427
H            3.94709967968801        0.88605553048038        0.96508894018177
H            3.74175639038843        1.54194633223605       -0.68937547954369
H            2.61768544954195        2.03851655864471        0.57316507185475
H            3.57052098749496       -1.70574215090651        0.05410522807507
H           -1.58851954374099        3.04210895031727       -0.06869571026200
H           -2.90643623882106        2.13356543786870       -0.85534542837413
H           -2.72299583414799        2.07033596636268        0.91836919719488
H           -1.22805948004106       -3.16048345577985        0.90579116881687
H           -1.17657158089700       -3.25320628619100       -0.88001085304305
H           -2.57006615646964       -2.51466535237330       -0.05905245196916
H            1.32885831100888       -2.92208599174547        0.13197334859023
25
 energy: -0.850638284467 xtb: 6.6.1 (8d0f1dd)
C            3.19145295713126        1.19975153563408        0.26071718736501
N            2.34448052983952        0.10671268713136       -0.19396007956742
C            2.62128807938923       -1.21864746503336        0.01575597638222
N            1.44077972894894       -1.93046602369157        0.03143904888368
C            0.40597775033604       -1.05409891091385       -0.12932899365327
C            0.94892125996845        0.22315943515074       -0.27030244013400
C            0.15732310650248        1.38400699409974       -0.35580313258807
O            0.51516361422796        2.56300348032776       -0.49330833963975
N           -1.24158051395469        1.01949265404177       -0.20826781283819
C           -2.17323030457284        2.13537869943719       -0.02208546386714
C           -1.81582266036581       -0.20679763982995       -0.11877019233726
O           -3.01517710818599       -0.38925518879561       -0.02942946202459
N           -0.92517504484091       -1.32424817536311       -0.10547759994710
C           -1.49476240266742       -2.65398628640420       -0.00939728141742
H            3.99738619952510        0.74916889058326        0.90895221597809
H            3.61586803575469        1.71396374042891       -0.64556012873442
H            2.59581127350381        1.97000047987462        0.82927181370802
H            3.57535376665429       -1.68605564144446        0.05351887064805
H           -1.59115801957951        3.05571259540236       -0.09020344234114
H           -2.94937398498107        2.13706518732513       -0.79724482974794
H           -2.64571820225241        2.05806422797985        0.97070290398224
H           -1.24093735298641       -3.13574700415902        0.94048818355674
H           -1.17178987218226       -3.28840763437575       -0.84081474722663
H           -2.57330898197378       -2.52025353384432       -0.05719211861295
H            1.34044281469718       -2.91848850138946        0.18333376032048
25
 energy: 0.362735304818 xtb: 6.6.1 (8d0f1dd)
C            3.18233473642478        1.18124441316412        0.29178423241337
N            2.33689854202247        0.12129871539149       -0.24290386705579
C            2.62764573433015       -1.23110509072122        0.04327465185532
N            1.42192075442544       -1.93151784793758        0.01658085081948
C            0.41668054399652       -1.06201590423825       -0.16275263884461
C            0.93546464595765        0.21156577002603       -0.33225727914143
C            0.12912358290948        1.35756197189161       -0.42810570183989
O            0.51546836797193        2.52838224820775       -0.57978727609790
N           -1.24257738854846        1.03027384786939       -0.23875780063773
C           -2.15780419122489        2.13903906135568       -0.01300926962426
C           -1.79933527715896       -0.19467366174529       -0.12540736992113
O           -2.99730660462512       -0.37000788174552       -0.00648889343977
N           -0.93201945151850       -1.31257014538276       -0.13443982535362
C           -1.49544187685610       -2.63385827159077        0.00076449088040
H            3.99796412548970        0.71191583829052        0.83198852867708
H            3.55133484860674        1.85752180644601       -0.57426333760416
H            2.58668353040363        1.85808142430053        1.00706959552291
H            3.59576404073841       -1.67334327107905        0.03724592711534
H           -1.56828475619239        3.05459769276228       -0.11970959417790
H           -2.97935184512708        2.10920141964219       -0.73640373432424
H           -2.57980117626275        2.05500900791867        0.99407989288011
H           -1.24909515511584       -3.08347137891301        0.97314878551977
H           -1.14246473774148       -3.29846250325817       -0.79835007622316
H           -2.57874689311795       -2.51805467122677       -0.07181358011214
H            1.33716056814841       -2.91758398725579        0.19554718486118
25
 energy: 0.668691206207 xtb: 6.6.1 (8d0f1dd)
C            3.15860159432367        1.18518815286940        0.33253591719985
N            2.33079211048272        0.13301862589615       -0.25237269482535
C            2.62424519538605       -1.22604894223653        0.05732714496505
N            1.41800578094473       -1.92551535540032        0.01154258598631
C            0.42150288895704       -1.06459190933687       -0.19451971357437
C            0.93060261562307        0.20865421268861       -0.37534664761248
C            0.11273259501939        1.34882792949410       -0.50509840389518
O            0.49452486168065        2.51349345590333       -0.67500007310874
N           -1.24585968578849        1.03494882353453       -0.27648902183481
C           -2.14899929979772        2.14148743149290       -0.00110182866931
C           -1.79167530772375       -0.19670044809577       -0.13997835695808
O           -2.98698531915656       -0.37258049366480        0.01311653864113
N           -0.93097155371043       -1.30566715401388       -0.16762773333296
C           -1.49055625813060       -2.62396384836806        0.00543874201521
H            4.03409197992964        0.66599623598776        0.80281337343225
H            3.49137955009658        1.88877360809264       -0.49093422737140
H            2.58718193360595        1.80994797151479        1.09643649630154
H            3.60006343083711       -1.65730860127049        0.00865435196733
H           -1.55515881757780        3.05016221821120       -0.13231283094948
H           -3.01397147703948        2.10869203022550       -0.68080863638792
H           -2.51863659114253        2.05334811402412        1.03170181977174
H           -1.24774118866367       -3.04456599547046        0.99286557662430
H           -1.13014028659339       -3.30831859679198       -0.77307859829804
H           -2.57519832062063       -2.51651138748794       -0.07486870043984
H            1.34438423699420       -2.91173747562578        0.21413881650046
25
 energy: 0.675710939945 xtb: 6.6.1 (8d0f1dd)
C            3.13239516825923        1.18258566808955        0.37640788632971
N            2.32905310129678        0.13930441744092       -0.21767824346787
C            2.61206026962861       -1.22983445938666        0.08045183066115
N            1.41042118715142       -1.91930750613823        0.00536320672689
C            0.42827097061550       -1.07001409227823       -0.23084021445664
C            0.93297934479540        0.20398053728325       -0.39310312493487
C            0.08865678198018        1.33487300820430       -0.57789683460158
O            0.44014203604119        2.48928831918361       -0.78114132900479
N           -1.25677925835891        1.04179425953252       -0.30989214316395
C           -2.13450399123406        2.14522600908137        0.01631504239603
C           -1.78190479843342       -0.20803506247124       -0.15021981692983
O           -2.96988009340735       -0.38764303881471        0.04478790369331
N           -0.92789897705813       -1.29041252173882       -0.21980422452739
C           -1.47797805540732       -2.60571622788318        0.00436240581302
H            4.02014580807937        0.71011248659342        0.79637202434563
H            3.46447046532163        1.85959735778269       -0.36495903912388
H            2.58749345525685        1.73592406228481        1.10485396375947
H            3.59669353893071       -1.64794565905534       -0.06961844770755
H           -1.53897652686739        3.03936845475187       -0.13596012482393
H           -3.03159438076889        2.11600036521348       -0.60931799741329
H           -2.44780954523605        2.05843292344956        1.06252202252322
H           -1.23561878342460       -2.98548096413941        1.00476054558751
H           -1.11638794474338       -3.30479374659732       -0.75023459827143
H           -2.56410511219209       -2.51215216986069       -0.07640015593239
H            1.35287000771042       -2.90612381835542        0.21790335867068
25