72
 energy: 0.000000000000 xtb: 6.6.1 (8d0f1dd)
N           -1.47310921155849        2.74401293103706        2.22063921685122
C           -1.55658879776851        2.16490285539332        1.13274273951491
C           -2.74549199786261        2.05621232186130        0.23826248438941
C           -3.31377553111525        0.64333411542669        0.32332512650568
C           -4.30230156009016        0.24487110156316       -0.58026161703006
C           -4.85238763031941       -1.02286490450319       -0.53363588718165
O           -5.81419972815119       -1.48606034185536       -1.36157882725342
C           -6.39655633239252       -0.60827000183299       -2.29568474302620
C           -4.39972501531283       -1.94646102182611        0.44396929121966
O           -4.98748311285188       -3.16145997157803        0.41085992006324
C           -4.66362127904578       -4.10093827755394        1.40909127743729
C           -3.42072513477031       -1.54561384810496        1.33436546260297
C           -2.88302799614223       -0.26315800396994        1.27400150770375
C           -2.19303798107274        2.30467000305896       -1.18742977106749
C           -1.26651538239283        1.17243369445008       -1.65249429687285
C            0.01082524939134        1.09745454476277       -0.89354803499847
N            0.61779393476578       -0.02034948052406       -0.57705522512502
C            2.00145210352228       -0.02376006389122       -0.15611399603240
C            2.92554934655222       -0.53865282675074       -1.27700088804721
C            4.35756843073516       -0.43050757231754       -0.83075544324989
C            5.07346135469827        0.73206409086248       -1.03980965825901
C            6.38627986649936        0.84224441421807       -0.60344822702769
C            7.00047264773336       -0.20824756335880        0.05722314418200
O            8.26703657141718       -0.21011313101264        0.52410943644933
C            9.06912227848686        0.92943601033931        0.31863058007678
C            6.27039964270142       -1.40439753960823        0.28033466008274
O            6.94829939911432       -2.38012925705718        0.92751999079483
C            6.31537317745639       -3.61583200086742        1.15217711710877
C            4.96302794628964       -1.49347471867959       -0.16064430359178
C           -0.05511211367372       -1.29906247805359       -0.62085686319744
C           -3.86758037025447        3.07992600430699        0.58498060215443
C           -4.49286159663096        2.77383493050346        1.94313289484366
C           -3.39165179876499        4.52917666589254        0.54797523472093
H           -4.66030026466202        0.94509067363451       -1.31640568823548
H           -6.85037928558380        0.25803162192116       -1.80468845313260
H           -7.17287442604349       -1.18600110843259       -2.79318157561361
H           -5.66836817451085       -0.26952966318766       -3.04040255244073
H           -4.88416720672258       -3.71589460520039        2.40913542187496
H           -5.29223570620378       -4.96637458756866        1.20969236903657
H           -3.61139813139015       -4.39919835331056        1.35529357841967
H           -3.07077796610445       -2.21868765711333        2.10002662693138
H           -2.14562754426994        0.02067850696302        2.01001344383370
H           -3.02188875377605        2.38238012313952       -1.88813545054866
H           -1.65198530896729        3.25146700677685       -1.20556284570283
H           -1.81103374245520        0.23006524641044       -1.62116301628650
H           -0.99335688527853        1.37490212198123       -2.69443256973690
H           -0.67628064361333        1.65183887049447        0.61785727145403
H            0.63525841192517        1.98466369793744       -0.92314021190751
H            2.11132552493482       -0.65949692842762        0.72532613231274
H            2.30680473056284        0.98978251704176        0.11078972794250
H            2.76694198818247        0.06750735147374       -2.17075252200790
H            2.67954581369920       -1.57455627803457       -1.51167743520200
H            4.62169998552446        1.56295612048703       -1.56123579000624
H            6.92357674630170        1.75715815945204       -0.79119596719031
H            8.65159112996149        1.81001823324363        0.81701555159939
H            9.20136171144928        1.14042857828877       -0.74698991949293
H           10.03428838009630        0.69003240176163        0.76064937965836
H            7.05567174969094       -4.23621171795340        1.65347565939075
H            5.43848001056755       -3.50813558175093        1.79970565785717
H            6.02060041905269       -4.09420497120334        0.21253282636366
H            4.40102758497114       -2.40127266373392       -0.00490198249042
H           -0.22071299714579       -1.61775583601871       -1.65116008982042
H           -1.01972258008625       -1.24102717432227       -0.10935206830928
H            0.55899954147532       -2.04486085926761       -0.12333730421426
H           -4.63991875734388        2.95501092798550       -0.18098088071825
H           -3.76095216473977        2.90314704960906        2.73380821053058
H           -4.87457614030224        1.75695641518947        1.97884603101694
H           -5.31925552549014        3.45579210326349        2.12325564252114
H           -2.60025590131176        4.69225046143352        1.27368918226171
H           -3.03987406413880        4.81897652321898       -0.43870975059559
H           -4.22191740670577        5.18069648090034        0.80616693961239
H           -0.59832433787845        2.77744694953323        2.72958984441332
72
 energy: -6.074155406221 xtb: 6.6.1 (8d0f1dd)
N           -1.55700455801076        2.85210968291605        2.29153358410835
C           -1.59023358923505        2.14036976487374        1.25213654727727
C           -2.75722369679385        2.05470129395846        0.29856514471778
C           -3.34674505970648        0.65909358263694        0.35147373741066
C           -4.32045445570896        0.24694534248519       -0.56068809036314
C           -4.85936218415363       -1.02621458811781       -0.51884163366921
O           -5.80346618395643       -1.51623975138756       -1.37622776944558
C           -6.34996945679441       -0.64582924072927       -2.33172656807874
C           -4.41733699724500       -1.93770021353766        0.46139836202192
O           -4.99887543884569       -3.17224338584703        0.42267412835349
C           -4.66049481028854       -4.08548683993789        1.43463130772816
C           -3.46120391858655       -1.52505804129832        1.36951241672049
C           -2.93529682149603       -0.24136183081200        1.31244334964325
C           -2.19228373238263        2.29428680994509       -1.13021185035985
C           -1.26071825970001        1.19180197931532       -1.68392066642149
C            0.02808057870300        1.13564771853838       -0.93625507610596
N            0.64809196894065       -0.06357364033900       -0.58159634216516
C            2.02522013338164       -0.07253925757391       -0.20185462871807
C            2.96620901316675       -0.56034770778754       -1.32910780900485
C            4.38832156016842       -0.44369095069783       -0.87946351954178
C            5.10541162731944        0.72337878219885       -1.06630960792662
C            6.40785570827198        0.84082842193930       -0.59763721324835
C            7.01906405481639       -0.20743989305493        0.06991255410528
O            8.29515363963566       -0.20540543755149        0.54965806543993
C            9.06985015387123        0.94704611028680        0.33924455478953
C            6.29296233286971       -1.40031986200330        0.27567361942802
O            6.95290692789644       -2.38288426222694        0.95607781690125
C            6.28930715465377       -3.60302530334268        1.16015628997962
C            4.99594372646612       -1.49723234035850       -0.19724317443941
C           -0.05086997309934       -1.31882110753247       -0.62717569563557
C           -3.87834655946948        3.09161560171018        0.58395781654577
C           -4.52522948687807        2.80760629508540        1.93577940531668
C           -3.30786891059387        4.49965284092146        0.57198907094031
H           -4.62716340611268        0.92292447713587       -1.34154236426941
H           -6.80702968052037        0.22946872505126       -1.85968620774715
H           -7.11726030945388       -1.21863079887107       -2.85135270686425
H           -5.59793278654814       -0.31038356555097       -3.05330798632698
H           -4.88750856992351       -3.68499908120108        2.42953860925408
H           -5.27029299456505       -4.96954613279038        1.24573646227744
H           -3.60082679793584       -4.36165558055282        1.38775692123841
H           -3.11724619576626       -2.18898227503934        2.14619434326583
H           -2.20837767850962        0.06481174442313        2.04684584996367
H           -3.04371487336213        2.41957869237285       -1.81129502148318
H           -1.63096876163422        3.22780155796643       -1.11421620116416
H           -1.78280664505739        0.23960018220994       -1.64788274467026
H           -1.05151447527833        1.39961033702031       -2.74703590259484
H           -0.71946206472176        1.60767032470622        0.79353604119565
H            0.68699390410027        1.98384936834990       -1.05968086021021
H            2.17623652510660       -0.69925158830681        0.68999732656634
H            2.29990899475393        0.94818081068169        0.05979563153994
H            2.78662230148365        0.05098465242355       -2.22022623179643
H            2.71904125511057       -1.59560972886194       -1.57277713330780
H            4.65622185157414        1.55548760892067       -1.58773528949946
H            6.93347563046161        1.76603061620874       -0.76797977425805
H            8.63218509516298        1.82407675365428        0.82862675238957
H            9.18808554726936        1.15520167163334       -0.72985247366505
H           10.04458671404557        0.73026395114053        0.77329455683436
H            7.00991272079089       -4.24543292585703        1.66665602940089
H            5.40219609739843       -3.48207321708096        1.79006100734361
H            5.99713143457747       -4.06818702302856        0.21194902671242
H            4.42708975233448       -2.40033189975872       -0.04960855362967
H           -0.22314513653569       -1.65946693256865       -1.65383150920400
H           -1.02067275835530       -1.21596049638887       -0.13332215322843
H            0.53958620778844       -2.07427598134449       -0.10705947829991
H           -4.63574792988892        3.02053619893938       -0.21406004529778
H           -3.74788885464481        2.89073187435494        2.69245610121603
H           -4.94136972465150        1.80214847622197        1.96617562369713
H           -5.31116919079170        3.52985024605055        2.15265383407916
H           -2.52192236444208        4.57006871161816        1.30344489430253
H           -2.92172127865829        4.75461978012655       -0.40927702087476
H           -4.07623386083999        5.21999582213084        0.84280173691403
H           -0.69870872010241        2.79509883100717        2.83546877556528
72
 energy: -1.602783118833 xtb: 6.6.1 (8d0f1dd)
N           -1.65337075792913        2.88599409789918        2.37423058253949
C           -1.63891145584902        2.12799761018981        1.36384812427705
C           -2.76043519266247        2.03707413321870        0.35814073397885
C           -3.37318259631783        0.65794231279201        0.38398526342293
C           -4.31324569640607        0.22896595735610       -0.55438560877977
C           -4.86083238734033       -1.04027474356566       -0.50970356368336
O           -5.77791819512929       -1.54274371348666       -1.38988884638348
C           -6.30057564861966       -0.68086452152568       -2.36840604231059
C           -4.43523677883292       -1.93905147039720        0.48441831625044
O           -5.00694492769714       -3.17753140259940        0.44455187102244
C           -4.65800359910823       -4.07380845149635        1.46713627537708
C           -3.50177947908037       -1.51681362641775        1.41148454601710
C           -2.98431344141966       -0.23230093378012        1.36040312044269
C           -2.17525362636673        2.28881147321094       -1.06779928260520
C           -1.25985996479939        1.20673248399614       -1.70909662937381
C            0.05676716205336        1.14137119262104       -1.01121969473408
N            0.66664061769243       -0.07363809254457       -0.65495312981578
C            2.04575855093622       -0.09695770982580       -0.27097567882077
C            2.99886820266470       -0.57674333788447       -1.39062834912350
C            4.41771057831689       -0.45371337686770       -0.92489008624650
C            5.13576569947460        0.71620244642099       -1.09339955794985
C            6.42989570386750        0.83877493144894       -0.59761482257432
C            7.03936996748113       -0.20565633968591        0.08047952039764
O            8.30822382092824       -0.19230845089479        0.57904650428988
C            9.06859743235798        0.96871849944387        0.36115368445177
C            6.31180383049514       -1.40086894110597        0.26627709749975
O            6.94080868916666       -2.37974053205666        0.98316932733020
C            6.25887011382548       -3.59198625495448        1.16931479332227
C            5.02374385208662       -1.50278054962378       -0.23510506329806
C           -0.05901656930024       -1.31858192603762       -0.64926786536146
C           -3.85269795649325        3.10623111156956        0.59948457063704
C           -4.55680691765899        2.84364499196018        1.92586183947130
C           -3.20564013360616        4.47974685846122        0.59814209826277
H           -4.58863402969850        0.89089054860798       -1.35921491540841
H           -6.76750122929381        0.20148418237392       -1.91992872420630
H           -7.05706605028970       -1.25455269807704       -2.90307279970822
H           -5.52993446553390       -0.35282648001296       -3.07204995798582
H           -4.89532722526065       -3.66106807141334        2.45651449718834
H           -5.25074933860779       -4.97066871630520        1.28221694866634
H           -3.59228251119294       -4.32899709168441        1.42506780439712
H           -3.16752002300751       -2.17247814315723        2.19919879144078
H           -2.27901842969589        0.08506610399637        2.10984468731729
H           -3.04479206632049        2.45829273660648       -1.72695737714770
H           -1.59418949048643        3.20888578800905       -1.01706790987818
H           -1.76203690848013        0.24472051530207       -1.68369498257529
H           -1.10263652919179        1.43191357516142       -2.78152868310928
H           -0.75872222094634        1.55789265207150        0.95662368736962
H            0.73173797595383        1.97023642384862       -1.18864444883486
H            2.20671910360742       -0.72934959134289        0.61707074340974
H            2.32056116593668        0.92161848508333       -0.00748652698535
H            2.82063968602649        0.03762999255529       -2.28042821636021
H            2.75738051556807       -1.61244582163641       -1.63782438671162
H            4.69097761877596        1.54980764095175       -1.61701601800952
H            6.94298792780404        1.77385207583998       -0.74695937049142
H            8.61741942170573        1.84313352168440        0.84325596510014
H            9.17986107897487        1.17038358642698       -0.70972659068790
H           10.04844454370649        0.76807007713968        0.79089791737035
H            6.96455546056644       -4.24860614573550        1.68127676268834
H            5.36467915483320       -3.45749704906428        1.78466021900082
H            5.97235493813951       -4.04595966761899        0.21395380024645
H            4.45345664078580       -2.40615570346660       -0.09780463535150
H           -0.23211953685185       -1.69833708646199       -1.65839103492329
H           -1.02719099631906       -1.17524786424121       -0.16094820983101
H            0.50766910599235       -2.07310191009155       -0.09126069946410
H           -4.57512237644759        3.07327980763052       -0.22955728782870
H           -3.76986387958730        2.87576844349542        2.67164717335393
H           -5.00953841139384        1.85132418533094        1.94878451245241
H           -5.30066694974673        3.60998355360036        2.15048907306609
H           -2.43209650666874        4.46991532765575        1.33550325784360
H           -2.79254340470771        4.71039390187784       -0.37704577802517
H           -3.92078555209192        5.25238628204411        0.87232842780747
H           -0.81530235454066        2.82876118728786        2.94835332624507
72
 energy: 5.168523506638 xtb: 6.6.1 (8d0f1dd)
N           -1.75594153058784        2.87950640697199        2.47396526672181
C           -1.68838053268650        2.09876619366564        1.48067130837247
C           -2.75349379745146        2.01077530236087        0.41436723737694
C           -3.39436810340625        0.65063985431176        0.41563049396033
C           -4.29389347515186        0.20670373076511       -0.55409111161092
C           -4.85318406700689       -1.05740328977737       -0.50838515391714
O           -5.74984204446772       -1.56797800065452       -1.40400745696928
C           -6.25106164383681       -0.71545571534491       -2.40444624195899
C           -4.45167742611066       -1.94202523311858        0.50519706526415
O           -5.01516300639760       -3.18316241687483        0.46673500635089
C           -4.65656316650624       -4.06310986451128        1.49973159348678
C           -3.54309367109711       -1.51242969907110        1.45305673153347
C           -3.03234269068298       -0.22838961878102        1.40910073057716
C           -2.14639434894435        2.27150672160859       -1.01271501558227
C           -1.25999760472031        1.21612841983057       -1.73961952743620
C            0.08442998294023        1.14266055836096       -1.09614091238220
N            0.68279285516267       -0.08105714506141       -0.73206008883205
C            2.06282775749316       -0.11486708104701       -0.34440992209075
C            3.02949097734263       -0.59077250470452       -1.45346465993264
C            4.44358536449167       -0.46089910085979       -0.97085251116226
C            5.16204877354267        0.71144370032119       -1.12121735186913
C            6.44577736968155        0.84023419759675       -0.59890914853372
C            7.04694674305771       -0.20047851104744        0.09009120165571
O            8.31156977035880       -0.17628686356473        0.60771751453344
C            9.06411502829004        0.99000300852317        0.38294743408656
C            6.31504659636285       -1.39655050733181        0.26060932577976
O            6.92119720841320       -2.37542675795578        0.99738738350209
C            6.22720929632662       -3.58109815976587        1.17658438804654
C            5.04363163680728       -1.50712409918713       -0.27363434661518
C           -0.06746367709465       -1.31128366602266       -0.67082210011671
C           -3.81402463121105        3.11632037671993        0.62100852862608
C           -4.58161324387949        2.88033376222468        1.91694924479905
C           -3.09885353814207        4.45600135302838        0.63113639928169
H           -4.54209344893294        0.85840772010370       -1.37466621186715
H           -6.72877181751416        0.17380890453762       -1.98078155160573
H           -6.99659208824659       -1.29196064037902       -2.95185332245869
H           -5.46366123578823       -0.39547558234180       -3.09141654225105
H           -4.90456281353965       -3.64013582178479        2.48435996272475
H           -5.23214085019567       -4.97180715397822        1.31821570394181
H           -3.58532312955714       -4.29782214695038        1.46280524003920
H           -3.22184437889033       -2.15876968139885        2.25296344547211
H           -2.35016533339332        0.09769112905232        2.17506156514376
H           -3.03286327707661        2.49479826127558       -1.64285071206704
H           -1.53554470905452        3.16985326612266       -0.94162949339758
H           -1.74839222062273        0.24818955128162       -1.72396190722388
H           -1.15523678722324        1.46369351293069       -2.81559199826287
H           -0.79603904327355        1.50861788688710        1.11821647408754
H            0.77358831883452        1.94873055663281       -1.32517228900370
H            2.22257631327585       -0.75377119778012        0.53852574943184
H            2.34138176227520        0.90118365116225       -0.07849975942676
H            2.85530510895094        0.02488874717267       -2.34203266835842
H            2.79525134965725       -1.62761064360358       -1.70224233060188
H            4.72286094207062        1.54619345786734       -1.64714573816233
H            6.95124101850653        1.78204514980772       -0.72596807366017
H            8.60378388010941        1.86327360095127        0.85855404745902
H            9.17238128381748        1.18591042958856       -0.68916377412704
H           10.04829162158939        0.80358887938859        0.80980636403878
H            6.92065953122594       -4.24856237590541        1.69444705332686
H            5.32803782309052       -3.43319727669256        1.78000181141923
H            5.94502821364422       -4.02764187107341        0.21687250263350
H            4.47647686257218       -2.41299785100249       -0.14675868527624
H           -0.24261950769075       -1.73637509643331       -1.65954555296931
H           -1.03243542466551       -1.13182350008720       -0.18803242886818
H            0.47758938250116       -2.05552579101011       -0.07259177841159
H           -4.50351989195683        3.11495033419253       -0.23121396146791
H           -3.81880402874476        2.87008213353943        2.68209606269395
H           -5.07320011246777        1.90230127337590        1.92785231813655
H           -5.29254969426214        3.68315832515633        2.12978083740707
H           -2.33242695875360        4.38070977646492        1.36651838469937
H           -2.66415829726381        4.66867657447661       -0.33891138170115
H           -3.76653301029590        5.26685404862918        0.91000156232794
H           -0.93074890932046        2.84934463380454        3.06758125323334
72
 energy: 13.590593026320 xtb: 6.6.1 (8d0f1dd)
N           -1.85655678107655        2.85056112473723        2.58237463153130
C           -1.73064189730513        2.05807312975320        1.60174448561621
C           -2.73265892152154        1.97551817334192        0.47352341312875
C           -3.40941701561288        0.63857683436301        0.44894111011528
C           -4.26687809029598        0.18276421192078       -0.55265966494352
C           -4.84012840381640       -1.07526151179253       -0.50697717936173
O           -5.71759711913241       -1.59323397732286       -1.41619882883549
C           -6.19927256866841       -0.75179572850373       -2.43677480465968
C           -4.46772121546399       -1.94668033309589        0.52582417698182
O           -5.02387637179900       -3.18980022114643        0.48897051088750
C           -4.65663984586459       -4.05408763326125        1.53203681708818
C           -3.58607019228321       -1.51105141333827        1.49476522669479
C           -3.08075133480574       -0.22890892153023        1.45923119295312
C           -2.10522038716414        2.23442863764230       -0.95631956336580
C           -1.26039231135426        1.21845354858247       -1.77215348954927
C            0.11046304577255        1.14020380840402       -1.18457844961094
N            0.69774212320441       -0.08858379234124       -0.81225781900255
C            2.07788163297971       -0.12879356216804       -0.42058665839299
C            3.05927947193748       -0.60248695501944       -1.51762873968981
C            4.46699925569517       -0.46618427348972       -1.01810193580847
C            5.18366489379010        0.70881264640870       -1.15187713150513
C            6.45084462678659        0.84643596395014       -0.60051250452309
C            7.04420843019801       -0.19170799364517        0.09841817400926
O            8.30635370329524       -0.15937948999493        0.63479904100519
C            9.05591974096536        1.00843739423753        0.40511030593508
C            6.31010576545793       -1.38924523216164        0.25469291484601
O            6.89796994306275       -2.36935135139620        1.00366282608435
C            6.19434655930519       -3.56921045922001        1.18344429410976
C            5.05811237934448       -1.51032130837209       -0.31354448695670
C           -0.07616508702279       -1.29988175117477       -0.69457441767329
C           -3.76040221688182        3.12342688323376        0.64436055476627
C           -4.58796428279005        2.92205686496848        1.90566269705335
C           -2.98549290849483        4.42969400077204        0.67132710592868
H           -4.48761732086918        0.82499961358525       -1.38739677537856
H           -6.68719363635104        0.14344123225338       -2.03769891569205
H           -6.93434572259019       -1.33293151675895       -2.99359486159411
H           -5.39779700010008       -0.43953416525087       -3.10986689953472
H           -4.91943653597506       -3.62602900363891        2.51174629094429
H           -5.21472668545763       -4.97381880613115        1.35384515538041
H           -3.57992068784957       -4.26707243901328        1.50207739487616
H           -3.28333587426384       -2.14762983432720        2.30609107136709
H           -2.42484866019296        0.10854272851857        2.24000389386916
H           -3.00202307172547        2.51353083995986       -1.55731800449640
H           -1.45236469487256        3.09921887621123       -0.87227482301774
H           -1.73917711485302        0.24805642236385       -1.76911880318295
H           -1.21015989525503        1.49953065733182       -2.84499386261894
H           -0.82976860257291        1.45908645966622        1.27582940523697
H            0.81022891189960        1.92277699780230       -1.46349722948481
H            2.23051164564263       -0.77417908343230        0.45711361575174
H            2.35589632239108        0.88737743004944       -0.15269879371908
H            2.88993052094648        0.01472711225745       -2.40478302521672
H            2.83481848003845       -1.64125679486790       -1.76710078548012
H            4.75392869110534        1.54434249024463       -1.68103053479797
H            6.95699937197900        1.79029597327579       -0.70618139157043
H            8.58880065340269        1.88171291277337        0.87434008615847
H            9.16440187932866        1.19905712146660       -0.66767471949101
H           10.04412196217389        0.83760754842519        0.83105577154295
H            6.87668985788060       -4.24530073341693        1.70860052783636
H            5.29117207953625       -3.40778572962878        1.77603837047045
H            5.91550213700888       -4.01222025732695        0.22189691413285
H            4.48664819649472       -2.41474420986354       -0.19598905471532
H           -0.25530467341069       -1.77224719188181       -1.66033504184894
H           -1.03711877927709       -1.08765424336389       -0.21704485881850
H            0.45316704800616       -2.02746427423487       -0.05987873154552
H           -4.42108071462508        3.15328709767093       -0.22737312724844
H           -3.86974846707058        2.87480920414549        2.70466924498724
H           -5.11230988434787        1.95754325221667        1.89962282560642
H           -5.27133938079144        3.75465655847959        2.09766182393974
H           -2.22382492551687        4.30590241800240        1.40305641375818
H           -2.53380874283849        4.62999647372775       -0.29286942216565
H           -3.61495510345593        5.26487783473464        0.95964135835252
H           -1.04278657454283        2.85739138804890        3.19128486141648
72
 energy: 21.810343998265 xtb: 6.6.1 (8d0f1dd)
N           -1.90776033322152        2.79639977430908        2.68711337417734
C           -1.74523481084850        1.99432752213728        1.72016758124104
C           -2.69826726090562        1.93511258734503        0.53357532235891
C           -3.41919428098545        0.62384880600239        0.48183675875380
C           -4.23452836508858        0.15863008454673       -0.55143821950644
C           -4.82328536907930       -1.09253587819297       -0.50556314958811
O           -5.68288075511426       -1.61806575052212       -1.42622930566133
C           -6.14518843214693       -0.78993945969211       -2.46616913665527
C           -4.48412817495120       -1.95140676232013        0.54620107093293
O           -5.03134607355333       -3.19721229331915        0.51040832904795
C           -4.65971637552821       -4.04751219596229        1.56378023094106
C           -3.63396377053457       -1.50900539386346        1.53715071437228
C           -3.13340156585700       -0.22961841349034        1.50933824376328
C           -2.05304179590870        2.18763767639640       -0.90079561929186
C           -1.25988899500481        1.21651054543151       -1.80671868633937
C            0.13353998583592        1.13625798192299       -1.27577376529765
N            0.70720657147154       -0.09458165123529       -0.89374293563778
C            2.08436610915763       -0.12845669135343       -0.49878125601024
C            3.07777394546193       -0.60413393877589       -1.58476922264371
C            4.48235016466714       -0.46694007075019       -1.06768837754171