25
 energy: -42.034551223414 gnorm: 0.001805920440 xtb: 6.6.1 (8d0f1dd)
C            3.14360910032823        1.03640605239167        0.06464378484049
N            2.25421824594517       -0.09066321502257        0.02404240394944
C            2.56832227443441       -1.38158343588179       -0.01886209240920
N            1.44351880859244       -2.13629589505864       -0.03226126262230
C            0.37610476583444       -1.29627995519650        0.00642767258523
C            0.88009163600930        0.01707046215703        0.04210859396119
C            0.05425524600884        1.12435620292356        0.06029337443935
O           -0.85414594062789        4.33081409421419       -0.08414379356080
N           -1.27790074549494        0.86326543650800        0.05764927833799
C           -2.13996222024788        1.86832374669798        0.05318669187693
C           -1.84775996799213       -0.48217789276461        0.05419692872236
O           -3.03392953571094       -0.64069191203427        0.08084873686666
N           -0.95170923563821       -1.54197900436230        0.01264042314291
C           -1.47239104392782       -2.89805391009898       -0.03024515469441
H            3.49008219319179        1.21246238257834        1.08508388934672
H            4.00551873330624        0.86504721338558       -0.57820998017477
H            2.59392656449072        1.91627921101292       -0.26860234915755
H            3.56324378666400       -1.78079701454529       -0.04372334597576
H           -1.30570657937779        5.13287409893229       -0.35155879793054
H           -3.19546542623988        1.65415183213919        0.04938092180716
H           -1.71528558785316        2.89145797737780        0.03405029263247
H           -1.09438635087153       -3.47488954272821        0.81407495782424
H           -1.19493071891565       -3.37957200018033       -0.96886011437072
H           -2.55795409424649       -2.84429839245774        0.03288005626265
H            1.42906760643210       -3.14698799835881       -0.06386949780436
