25
 energy: 0.000000000000 xtb: 6.6.1 (8d0f1dd)
C            3.23720163006194        1.16630919979326        0.08434469647475
N            2.29877817382611        0.07527477071623        0.03981603040599
C            2.58028210190900       -1.21425402444508        0.03006176031096
N            1.43813958087363       -1.93419271955128        0.00098261760884
C            0.39035688448383       -1.05887472636071       -0.00790371836672
C            0.93510056364412        0.21347819449412        0.01709077491437
C            0.09450143893243        1.40504303904423       -0.00410947031874
O            0.49712751527797        2.54126714362870       -0.00342325688240
N           -1.25076640035757        1.06271879480407       -0.03085478223738
C           -2.21907211982101        2.15522099834493       -0.05001256985998
C           -1.81739487048744       -0.20012725993278       -0.04692818574614
O           -2.99983886758376       -0.37846417018721       -0.07008878229737
N           -0.92618586207120       -1.30210215599479       -0.03682761578324
C           -1.46982264913417       -2.64643102187190       -0.06029820460571
H            3.71247264356769        1.21471455160235        1.06488849150277
H            4.00791497605742        1.03430808813993       -0.67357694370751
H            2.69910007168542        2.09770118228144       -0.09130154882931
H            3.56654120610678       -1.63682992603973        0.04233140067262
H           -1.67107961066214        3.09322851271934       -0.02552706933167
H           -2.82428953597071        2.09428624779827       -0.95318082946668
H           -2.87644029173232        2.07745725625962        0.81450067533302
H           -1.17061996399332       -3.19584890659852        0.83242232437030
H           -1.14560257411436       -3.17511610292205       -0.95688275822323
H           -2.55549792440841       -2.55659984320617       -0.07459039797972
H            1.38130855184625       -2.94313852034425       -0.01389874181052
25
 energy: -3.089762251420 xtb: 6.6.1 (8d0f1dd)
C            3.23247356154287        1.17560644617910        0.07580815793110
N            2.30198746562597        0.08963601660455        0.03280814698487
C            2.59845723260552       -1.23656409790411        0.03095143293173
N            1.42956991919406       -1.94888643139770        0.00543414386921
C            0.39483533815799       -1.06782360774268       -0.00715722632128
C            0.92471655687218        0.21215752847271        0.01237631438057
C            0.09860025467753        1.38661982162733       -0.00574643838899
O            0.49648524686571        2.55121288068124       -0.00944739470051
N           -1.26319192755326        1.05251082956825       -0.03082861325987
C           -2.19316117414803        2.18715797908989       -0.03560214621354
C           -1.82556528312155       -0.20817130333692       -0.05203709338361
O           -3.02129128364259       -0.39818485940127       -0.07082107957774
N           -0.93524028819717       -1.31364983946137       -0.03608706236764
C           -1.46111649131311       -2.66363606844836       -0.05408106247469
H            3.70740259970344        1.23003047752468        1.05874042429042
H            4.00244469315139        1.03841047650232       -0.68456583151166
H            2.68195696376264        2.09659575521844       -0.10762229152996
H            3.57856862264141       -1.65736591576864        0.04470704296175
H           -1.69316191582715        3.18205933132816        0.03996875221271
H           -2.75004661555423        2.19256914739774       -0.94755521701355
H           -2.93448625045098        2.04064718566003        0.74987767043688
H           -1.15669494192484       -3.21054807719037        0.84108746770798
H           -1.12263124355728       -3.19892769183131       -0.94417045638962
H           -2.54724443445277       -2.58928800524989       -0.07434704151263
H            1.36854806287850       -2.95313937594979       -0.00465670291463
25
 energy: 2.308577918516 xtb: 6.6.1 (8d0f1dd)
C            3.22067492995538        1.18164459196924        0.05797886420376
N            2.29987294555973        0.09807444449825        0.01886415947978
C            2.61220451405378       -1.26133377254896        0.03273973651710
N            1.41697514914178       -1.96294098264961        0.01332989311639
C            0.39735617977246       -1.08096130298748       -0.00448515031944
C            0.90955591408666        0.20616858521925        0.00417709356309
C            0.10285623592040        1.35804434714899       -0.01056151642545
O            0.48662891934703        2.54304809015379       -0.02469037607480
N           -1.28271874697099        1.04653625719759       -0.02581349414311
C           -2.16382264830607        2.23322313433215       -0.01241811627066
C           -1.83447356572207       -0.21447228683196       -0.05069241474179
O           -3.03626326622299       -0.42542107424041       -0.06867582674604
N           -0.94704981214719       -1.32529689761412       -0.03219417296903
C           -1.44447593166761       -2.68702932374306       -0.04301163100266
H            3.69562193022110        1.25393539680542        1.04230853888600
H            3.99309725999646        1.04441316390823       -0.70211269990131
H            2.65623970040862        2.09189119001959       -0.13687745077419
H            3.58676714293431       -1.67715849148438        0.04825208912678
H           -1.71591975196156        3.28799644779949        0.18456718834669
H           -2.61204626266060        2.37576993957363       -0.97734291632501
H           -3.03807866540568        1.97328384873233        0.64081572017611
H           -1.13335579859251       -3.22823821486276        0.85689229076995
H           -1.08279467229143       -3.23262651807716       -0.92180709545285
H           -2.53191173020870       -2.64482166957362       -0.07379490871265
H            1.35727469869596       -2.96470030057241        0.01158609182060
25
 energy: 11.049018585090 xtb: 6.6.1 (8d0f1dd)
C            3.20468857041306        1.18391679480880        0.03893721744916
N            2.29332303678840        0.09613824695888        0.00491673422681
C            2.61548292996520       -1.27985372953415        0.03343377848616
N            1.40866399117942       -1.97496543053872        0.02006486312391
C            0.39597383542103       -1.09602981101046       -0.00106630834069
C            0.89648572889299        0.19598550831070       -0.00353732908902
C            0.09943965393173        1.33770213257793       -0.01709096014087
O            0.46994382061342        2.53087030783343       -0.04248308949701
N           -1.30488257723551        1.04646748427987       -0.01110031343882
C           -2.14829879733184        2.27187441819300        0.01157182183574
C           -1.84508001236012       -0.22045686461080       -0.03834870239568
O           -3.04582760674714       -0.45396954262359       -0.06013906973851
N           -0.95607217026128       -1.33538128302440       -0.02614508938470
C           -1.42591305499592       -2.70939723425850       -0.03342414456902
H            3.67781912200565        1.27601172050880        1.02392625115853
H            3.98140321500621        1.05017710470425       -0.71819811706125
H            2.63005376795579        2.08657030493344       -0.16692660247735
H            3.58977241856903       -1.69005864320455        0.04986052537647
H           -1.73581089532008        3.35844089745365        0.33622502532110
H           -2.45158807420713        2.56711932072887       -1.00824956296789
H           -3.13014616019725        1.92990050438238        0.51454541207832
H           -1.10945754393191       -3.24244780666601        0.87186498911734
H           -1.03929814169408       -3.25947662186797       -0.90183145940459
H           -2.51415916965953       -2.70284556694901       -0.07653828196254
H            1.35569878113614       -2.97726360921384        0.02676630844169
25
 energy: 16.255287275712 xtb: 6.6.1 (8d0f1dd)
C            3.18792546404610        1.18254862204870        0.02718056347608
N            2.28467244788521        0.08633791919921       -0.00437396418343
C            2.60987680699879       -1.28992046535318        0.03351217636307
N            1.40479746798846       -1.98316208311528        0.02353643120250
C            0.39124620424839       -1.10924776938625        0.00137866810737
C            0.88754440164953        0.18445964124365       -0.00946395299029
C            0.09143505393794        1.32755554409773       -0.02599012002392
O            0.45209027077273        2.51720181498842       -0.06073641552606
N           -1.32392410310373        1.05205017466684        0.00975915902758
C           -2.14355704442787        2.30028954306368        0.02712331068446
C           -1.85539400206725       -0.22419229390970       -0.01762359013625
O           -3.04952395988873       -0.47728422698016       -0.04634654465603
N           -0.96181613237771       -1.34206315001363       -0.02087571447731
C           -1.40951295553843       -2.72681641082563       -0.03149132209529
H            3.65621935556194        1.29084516301244        1.01296192243173
H            3.97030649021780        1.05468662579629       -0.72477349299741
H            2.60704853201584        2.08057437783100       -0.18725371762150
H            3.58754022086575       -1.69526827406777        0.05045075442166
H           -1.76496307319504        3.39968545655965        0.42259496989757
H           -2.32138989617873        2.68823524379362       -0.98829764615224
H           -3.16153967869865        1.94051509914442        0.40208216632848
H           -1.09145094864713       -3.25352967691869        0.87785999150891
H           -0.99953467845109       -3.27387679011584       -0.89245126594983
H           -2.49714004786065       -2.75276588744290       -0.08798572819511
H            1.36125847218282       -2.98782959514464        0.03625725770255
25
 energy: 17.414429633734 xtb: 6.6.1 (8d0f1dd)
C            3.17409512384276        1.17818510043956        0.01837148795005
N            2.27630983074718        0.07146816096672       -0.01160351673918
C            2.59622094465391       -1.28723328126638        0.02988515188292
N            1.40665019724704       -1.98517133372890        0.02451210804306
C            0.38332723747904       -1.11766515455921        0.00323760317826
C            0.88432460906093        0.17467862174393       -0.01155368737761
C            0.08027213597572        1.32898638450604       -0.02791820108443
O            0.43489695152320        2.50642536470103       -0.07693298429966
N           -1.33577152899038        1.06004090241356        0.04002592715136
C           -2.15387434092331        2.31051857426519        0.03604204060694
C           -1.86543411245540       -0.22580045880931        0.00304392720412
O           -3.04918830503539       -0.49224967702514       -0.02800074139687
N           -0.96363375263803       -1.34427724507954       -0.01576349852204
C           -1.40055421278003       -2.73506052328623       -0.03100730203942
H            3.63592395395244        1.29492788843531        1.00448121993379
H            3.96087143184610        1.05462818547046       -0.72826609356699
H            2.59202988431215        2.07446221807397       -0.20120365794198
H            3.57989692775711       -1.68930827919558        0.04450829705920
H           -1.81107227376267        3.40286756576700        0.48727242505717
H           -2.17924553154840        2.74616532641873       -0.94088585452865
H           -3.16447395511328        1.96581373978611        0.27405781568829
H           -1.08516261169256       -3.25658365244442        0.88154066517299
H           -0.97429440192017       -3.27206352270136       -0.88814185293015
H           -2.48423191899365       -2.78182753620539       -0.09896430250567
H            1.37433238539205       -2.99289876651418        0.04029692015177
25
 energy: 20.284099868326 xtb: 6.6.1 (8d0f1dd)
C            3.16667306849058        1.17638884930683        0.00295355566104
N            2.27141544952105        0.06496260333580       -0.02339442788573
C            2.58616700618386       -1.27711878537980        0.01878022645163
N            1.41017234002790       -1.98364203145649        0.02320569460099
C            0.37671971370089       -1.12045796242993        0.00855372874845
C            0.88241321934976        0.17123029725052       -0.00751927312541
C            0.07061042304784        1.33047692246417       -0.00952191965788
O            0.42126858686093        2.50457537880829       -0.08818153860085
N           -1.33969027708291        1.05696608504806        0.09033156296016
C           -2.16270985771335        2.30564794565535        0.04851343548469
C           -1.87469052580970       -0.23035709694290        0.02851709336222
O           -3.05346940941198       -0.50210243500531       -0.00140954226928
N           -0.96444453391517       -1.34636517437283       -0.00407850548690
C           -1.40067727036819       -2.73725053297932       -0.02318538035261
H            3.62525827903843        1.29252805926968        0.98883706981499
H            3.95299161785383        1.05009552589267       -0.74255388662012
H            2.58480656353868        2.07101847198449       -0.21874017882895
H            3.57313435888203       -1.67697923298996        0.02540731136726
H           -1.86386907241319        3.38468797005276        0.60195994697996
H           -1.95868911783982        2.81464767074692       -0.93740514996662
H           -3.24270833318099        1.94087203763552        0.09331564559452
H           -1.08701211657147       -3.25595786567176        0.89058235808972
H           -0.96764022737533       -3.26356737326043       -0.88035404964125
H           -2.48023960949402       -2.78929042600653       -0.09606657999313
H            1.38642439261667       -2.99198029878381        0.03848669946033
25
 energy: 16.740105723190 xtb: 6.6.1 (8d0f1dd)
C            3.16899371712675        1.17717862182886        0.00479352019594
N            2.27079194480336        0.06779704325403       -0.02383487608790
C            2.58224152959385       -1.26492597334617        0.01557762880476
N            1.41177228186613       -1.97805305697483        0.02150911103250
C            0.37393153517149       -1.11424407901548        0.01174854508978
C            0.88313212546987        0.17612453688050       -0.00218483288774
C            0.06765546546715        1.33313894193532       -0.00015335355666
O            0.42249487021606        2.50772181960369       -0.09220316713250
N           -1.33219855267858        1.04978896034290        0.10685243086906
C           -2.16230832077977        2.29323121073764        0.03709994421488
C           -1.87588808333112       -0.23159147577261        0.03805356988680
O           -3.05581457491349       -0.49441809943154        0.00579139936062
N           -0.96374168684455       -1.34497452044089        0.00062571758230
C           -1.40796428045212       -2.73233551685123       -0.02509518665617
H            3.62675944175500        1.28589365275030        0.99160331532010
H            3.95444539518839        1.04715172716794       -0.74075819651059
H            2.58950932726968        2.07292297455252       -0.21498154406914
H            3.56856474753003       -1.66740982782578        0.01772169339166
H           -1.89180320905203        3.35381229748942        0.58689970097173
H           -1.93067907491536        2.77711458446380       -0.89930338106573
H           -3.21188509449447        1.94475006192577        0.05270588708419
H           -1.09621171338922       -3.25501085901287        0.88615664729447
H           -0.97795979975661       -3.25488574291794       -0.88533091198801
H           -2.48812012408010       -2.77436114174811       -0.09743727704873
H            1.38649680116598       -2.98538753742329        0.03117751205160
25
 energy: 15.859491697194 xtb: 6.6.1 (8d0f1dd)
C            3.16937140665565        1.18094733410451        0.00223133994027
N            2.26866406983335        0.07438630400833       -0.02820098741204
C            2.58182958559226       -1.25733246014810        0.01062600069125
N            1.41160353544215       -1.97527316422951        0.01992179315946
C            0.37250749608116       -1.11032410996143        0.01665883824510
C            0.87986525456750        0.18069348193197        0.00264218095399
C            0.06009395711210        1.33071364386206        0.00956446211957
O            0.41646075368335        2.50845071961665       -0.09394964197510
N           -1.33263750586898        1.03956450866700        0.13455663630373
C           -2.16263683552058        2.28525313584759        0.02845855963582
C           -1.87881940550002       -0.23607606542658        0.05241963777666
O           -3.06118175645176       -0.49417982945087        0.01795901604446
N           -0.96476692449710       -1.34693808770761        0.00922854484268
C           -1.41287603095942       -2.73227397591680       -0.02314083272421
H            3.62882253794041        1.28493271443310        0.98948127299975
H            3.95397957611046        1.04724580164889       -0.74392871326947
H            2.59133768671093        2.07750080800507       -0.21633939573771
H            3.56682505675542       -1.66218063249747        0.00578440865780
H           -1.94435072646706        3.32831040013128        0.60982765244799
H           -1.83602093323710        2.78611389508407       -0.87187825898401
H           -3.19593341446623        1.93996310267642       -0.03255451151294
H           -1.10243817265072       -3.26074592830619        0.88512766567400
H           -0.98672834903640       -3.25351995663090       -0.88655739197730
H           -2.49480640343826       -2.76474479229933       -0.09437092830779
H            1.38405020954522       -2.98145824527019        0.02346654855525
25
 energy: 15.990916023257 xtb: 6.6.1 (8d0f1dd)
C            3.17167505786777        1.18428938195768       -0.00032020947180
N            2.26816954901586        0.08140721248648       -0.03197384379944
C            2.58598377965885       -1.25768212797119        0.00642460113855
N            1.41017748860514       -1.97514569279098        0.01794323947076
C            0.37478636817169       -1.10754090062878        0.01972628649677
C            0.87784755502445        0.18416795337853        0.00621565297915
C            0.05672710901234        1.32822988762596        0.01782465763479
O            0.41652100862801        2.50775625450098       -0.08139513459037
N           -1.33348975703246        1.03546708631683        0.15632477574429
C           -2.15846211761905        2.28593016529828        0.01992234961414
C           -1.87643749463767       -0.23671769375955        0.05985081729188
O           -3.06202789654542       -0.49058406706122        0.02384391446156
N           -0.96493336315349       -1.34777858229285        0.01621638745839
C           -1.41608266398927       -2.73127497483092       -0.01961990753159
H            3.63561099195183        1.28584901772278        0.98618698520277
H            3.95454818893833        1.04945889479384       -0.74872177650853
H            2.59496688235665        2.08260072732806       -0.21625601859575
H            3.56861961327577       -1.66522125497826       -0.00529981705555
H           -2.00285403590485        3.31574279894416        0.62553851300665
H           -1.76291195164670        2.78703410299711       -0.83788486079012
H           -3.19899611541975        1.92846708276682       -0.11620958186581
H           -1.10523321350377       -3.26656340486227        0.88501351599514
H           -0.99875541794127       -3.25501593209402       -0.88699390082946
H           -2.50055372032991       -2.75329874824748       -0.08561807427365
H            1.37731882315320       -2.98054858442807        0.01629532496445
25
 energy: 14.992380735831 xtb: 6.6.1 (8d0f1dd)
C            3.17289608673600        1.18651585989093       -0.00046882293722
N            2.26755309137863        0.08591295822778       -0.03207713036164
C            2.58978007207267       -1.26003902909972        0.00570363986089
N            1.40948480891032       -1.97547606726473        0.01698679618403
C            0.37700582429706       -1.10730968189176        0.01961169643219
C            0.87614450763641        0.18504253220425        0.00737534509224
C            0.05285247674962        1.32684617906204        0.02115094059375
O            0.41467566898469        2.50757324275839       -0.06663660783526
N           -1.33886092187930        1.03350868284974        0.15711527225237
C           -2.16291381520692        2.28403502926252        0.01363006459905
C           -1.87508392521745       -0.23923158344738        0.05625945020669
O           -3.06244115330012       -0.49216864056412        0.01841106187769
N           -0.96480913719445       -1.34937368564108        0.01767560140515
C           -1.41692961219607       -2.73153414655561       -0.01676712288047
H            3.64065179574400        1.28713307672117        0.98480147062590
H            3.95405859088237        1.05233043996650       -0.75123807767300
H            2.59741645435580        2.08648076790853       -0.21375721346495
H            3.57132965562941       -1.66779007409859       -0.00888683360530
H           -2.02790810240469        3.30041729327161        0.62299716585566
H           -1.74238244949291        2.80017524878679       -0.83466917181112
H           -3.18052330980458        1.93082297831076       -0.12670883557302
H           -1.10357380327920       -3.26884512119312        0.88608393199669
H           -1.00711051412109       -3.25764389027059       -0.88695684530969
H           -2.50262547311228       -2.74763138772458       -0.07667441289154
H            1.37352785176843       -2.98072237929779        0.01407253350808
25
 energy: 14.886022244799 xtb: 6.6.1 (8d0f1dd)
C            3.17300337590231        1.18505584199148       -0.00116960932232
N            2.26766933684133        0.08406956044728       -0.03149750301462
C            2.58914275298618       -1.26070774688456        0.00555241496493
N            1.40983110606484       -1.97543607225883        0.01636045061078
C            0.37689594596875       -1.10802389178129        0.01935408300635
C            0.87716874846220        0.18379269303150        0.00797977219909
C            0.05430378448228        1.32823110680400        0.02384156774423
O            0.41653951237593        2.50800517178773       -0.06307606685740
N           -1.33857164616685        1.03611456799023        0.15478099778801
C           -2.16306795544765        2.28520742942860        0.01239670381933
C           -1.87443992118933       -0.23842712684083        0.05581898925032
O           -3.06100951638663       -0.49175231656875        0.01536277468948
N           -0.96446934405668       -1.34854851105694        0.01770497549041
C           -1.41661335351193       -2.73069094935385       -0.01600646402301
H            3.64114711060931        1.28580861445295        0.98348505439528
H            3.95330510809522        1.05158151706173       -0.75280188064215
H            2.59765678788584        2.08531029513103       -0.21363243824602
H            3.57128649724635       -1.66738744588537       -0.00928830098538
H           -2.02714726077020        3.30041490415094        0.62637920960869
H           -1.74664954852887        2.79970388689222       -0.83543975538153
H           -3.18790927286724        1.92945329896175       -0.12935379369320
H           -1.10157375450517       -3.26665459391955        0.88680645959184
H           -1.00709992610423       -3.25605331934929       -0.88651024607201
H           -2.50189155756295       -2.74901807211333       -0.07455226783310
H            1.37470765811351       -2.98102023994691        0.01453876905924
25
 energy: 14.545975236730 xtb: 6.6.1 (8d0f1dd)
C            3.17308409537299        1.18410091428113       -0.00162081471228
N            2.26742666758343        0.08323696769800       -0.03030172665410
C            2.58891907320560       -1.26156709040321        0.00581298452663
N            1.40985644379510       -1.97535904785496        0.01548099656284
C            0.37681521043123       -1.10860475622354        0.01909918900030
C            0.87761418804256        0.18288564777722        0.00853972739909
C            0.05538550316944        1.32904031285786        0.02605085084099
O            0.41817526714569        2.50831699189652       -0.05755892749383
N           -1.33923992321839        1.03802351397457        0.15040974383624
C           -2.16308198804492        2.28614988064745        0.00995975428243
C           -1.87397848689140       -0.23830529211978        0.05408411357804
O           -3.06024109027656       -0.49157113828230        0.01147391789409
N           -0.96450387172101       -1.34791168086682        0.01792151948220
C           -1.41625733976582       -2.73020580891846       -0.01487517461010
H            3.64239571975520        1.28488347209695        0.98223794791988
H            3.95212906090990        1.05105757824597       -0.75459586732262
H            2.59780510659592        2.08478169372098       -0.21298930028358
H            3.57163927447344       -1.66679302389674       -0.00961522101009
H           -2.02764542445855        3.29602208830852        0.62823202888119
H           -1.75115425685436        2.80305286274751       -0.83618242344203
H           -3.19032937411776        1.92982496601031       -0.12947222936390
H           -1.09872352169619       -3.26516703942985        0.88750403616074
H           -1.00778865727876       -3.25513708004553       -0.88618139419231
H           -2.50146044534996       -2.75050030096604       -0.07138806386528
H            1.37537343712953       -2.98122602908380        0.01500822873268
25
 energy: 14.076076282071 xtb: 6.6.1 (8d0f1dd)
C            3.17307703452100        1.18353830541283       -0.00222534976089
N            2.26704615995653        0.08290875401555       -0.02913411747447
C            2.58849871614953       -1.26189782919860        0.00618055316143
N            1.40969604391421       -1.97517669165894        0.01461294459901
C            0.37647128911536       -1.10886373390218        0.01902161934540
C            0.87766319804157        0.18253442414860        0.00884928482646
C            0.05608197608876        1.32948133164925        0.02727501264735
O            0.41900372341189        2.50865044667751       -0.05356780877521
N           -1.33998605513421        1.03900293004994        0.14673891237980
C           -2.16303868753115        2.28624386440140        0.00775054208144
C           -1.87401883420885       -0.23854034276450        0.05278830422000
O           -3.06019943020878       -0.49149109276646        0.00945223056245
N           -0.96484782413958       -1.34736956319149        0.01840688330081
C           -1.41605589507475       -2.72996217411678       -0.01380610401377
H            3.64357556779058        1.28438760741421        0.98096182000413
H            3.95099244175895        1.05037205846948       -0.75633299696830
H            2.59777395990638        2.08448445604304       -0.21282709827093
H            3.57176084791851       -1.66578870462023       -0.01009107999663
H           -2.03103421728849        3.28935755974149        0.63322401174070
H           -1.74872869853910        2.80839360688503       -0.83675270122498
H           -3.19138856503298        1.93046090303939       -0.13258354040614
H           -1.09650384153425       -3.26432432591737        0.88809974995862
H           -1.00836042989193       -3.25447211519381       -0.88582531101923
H           -2.50118548554434       -2.75169333695997       -0.06886024541507
H            1.37592167349150       -2.98120773548545        0.01567838064524
25
 energy: 13.804765570602 xtb: 6.6.1 (8d0f1dd)
C            3.17317525487034        1.18358605533227       -0.00210061898945
N            2.26708958636562        0.08305482805359       -0.02819912265989
C            2.58837815705320       -1.26197263002760        0.00694794339671
N            1.40943743664884       -1.97515189804342        0.01442340885295
C            0.37630739579767       -1.10869966912138        0.01885886434389
C            0.87760119227266        0.18281418658294        0.00853070760261
C            0.05663935603259        1.32940715247143        0.02615802882156
O            0.41933963681073        2.50885533535043       -0.05358141160920
N           -1.33991048040292        1.03894455979103        0.14377903632811
C           -2.16211328393900        2.28623512527302        0.00700975391073
C           -1.87413647817350       -0.23857176048489        0.05181181808716
O           -3.06054459044638       -0.49109212892044        0.00953927120414
N           -0.96514829938408       -1.34707972268655        0.01818146621866
C           -1.41596719310823       -2.72995574232629       -0.01389794424716
H            3.64401919830438        1.28470063106924        0.98097528080068
H            3.95086981233478        1.05007684805906       -0.75638009760140
H            2.59767914726614        2.08442478269968       -0.21276564300209
H            3.57176432483046       -1.66551879211529       -0.00950997873870
H           -2.03044250725679        3.28578790903486        0.63386196516603
H           -1.75213944436948        2.80967280363430       -0.83687363659770
H           -3.19014314761654        1.93140776817583       -0.12932000656959
H           -1.09616314482874       -3.26425664440456        0.88797043840554
H           -1.00813198958345       -3.25453366109316       -0.88593050901612
H           -2.50110894978439       -2.75195880090833       -0.06901529061550
H            1.37586367824243       -2.98114793322383        0.01656017265527
25