25
 energy: -42.171764685240 gnorm: 0.032041907720 xtb: 6.6.1 (8d0f1dd)
C            3.50457262591022        1.73511790658746        0.54204800534787
N            2.25585993502025       -0.52447578978756        0.00277148801799
C            2.52968250474411        0.84512016899393       -0.28539273099586
N            0.27846458961804       -3.17501632950172       -0.08116922710216
C            0.07058580032348       -1.92096583505205        0.01153684930651
C            0.96607332354540       -0.72398925557704       -0.02585744528368
C            0.32885616856181        0.56424836692261       -0.20447765072114
O            1.22753624661089        1.49631953297326       -0.36159891782023
N           -0.96991002157956        0.76566835513397       -0.19425237088460
C           -1.57424844178356        2.07430937270001       -0.35692053244061
C           -1.85415224334397       -0.33351816606055        0.00980220235832
O           -3.03347136996958       -0.13167237763998        0.06089040691880
N           -1.27493084113932       -1.57180294643505        0.12402023992316
C           -2.19405812848294       -2.68870794553164        0.28593642535133
H            4.46205308012583        1.23018938611826        0.61127680634468
H            3.61316626838970        2.68163248055668        0.02539941815713
H            3.10704136736908        1.89912455273757        1.53932244497623
H            2.94745591773210        0.84233367296179       -1.31039128787540
H           -0.79256222436253        2.82367983187975       -0.44026034479146
H           -2.20034980105414        2.07685507828264       -1.24981443473084
H           -2.21415913661802        2.28190805092168        0.50127242230376
H           -1.85744581067248       -3.31270549220383        1.11274857585116
H           -2.20296648780963       -3.29908702308711       -0.61775585368161
H           -3.19122025321855       -2.30012122300643        0.48009924928135
H            1.22855844618296       -3.51620583131261       -0.14806211991478
25
 energy: -42.176761776031 gnorm: 0.015609063438 xtb: 6.6.1 (8d0f1dd)
C            3.47584857642989        1.66811774172807        0.54893867026085
N            2.24797014265104       -0.52400112475567       -0.02291203177268
C            2.51471336546212        0.83626493437353       -0.31808829963673
N            0.34058548666468       -3.12471169054711       -0.04968835777381
C            0.08227159222930       -1.88734233679685        0.02845750195031
C            0.96027325977670       -0.70236998529873       -0.03035744192605
C            0.32083155291911        0.57927088951197       -0.21436790543731
O            1.22126310587984        1.50610526550994       -0.38136138324516
N           -0.97807354563197        0.77630260247375       -0.19654462670519
C           -1.58343929224095        2.08287887335973       -0.35964869429558
C           -1.85764140209442       -0.32751017683549        0.01226641654828
O           -3.03746590239091       -0.13173478234042        0.06532955947496
N           -1.26994906174171       -1.56172614864768        0.13129705089519
C           -2.18162214002470       -2.68649069436463        0.28728139704704
H            4.43577119130774        1.16718135356334        0.61358733815632
H            3.59942001222616        2.62819833253981        0.05623923273411
H            3.07714032221090        1.82599561909974        1.54690715749261
H            2.94051739615165        0.84041598668000       -1.33869153169403
H           -0.80085040928588        2.83138290247365       -0.44438022264457
H           -2.20953349062352        2.08292212784292       -1.25231251093081
H           -2.22152315768357        2.29007268911707        0.49985698726568
H           -1.84773641196365       -3.31027347437574        1.11516494057535
H           -2.18388707693616       -3.29599574298570       -0.61725249347703
H           -3.18262435485917       -2.30440640518784        0.47611277259134
H            1.29817175566710       -3.44030821456359       -0.12466190755717
25
 energy: -42.179890574083 gnorm: 0.010202595805 xtb: 6.6.1 (8d0f1dd)
C            3.45003582122275        1.59466374257826        0.55389825106464
N            2.23140079671687       -0.52298237451305       -0.07017325942144
C            2.50329881443191        0.82922758460730       -0.36034239629038
N            0.41293985049814       -3.07357312082349       -0.00285103607082
C            0.08830574694833       -1.85146018187906        0.04623551700989
C            0.94484318385278       -0.67587982110011       -0.04430818519384
C            0.31041941979946        0.60204085642304       -0.23069844572914
O            1.21771574743589        1.51861857675951       -0.41913588202275
N           -0.98893321211068        0.79173651408439       -0.19915602243067
C           -1.59838010535453        2.09549916483588       -0.36357681589538
C           -1.86277945047354       -0.31963812291694        0.01739005178927
O           -3.04257643414842       -0.12890537013065        0.07369788430392
N           -1.26881379858612       -1.55205353573112        0.13866445950351
C           -2.16626598003650       -2.68816607052067        0.28933580430340
H            4.40392609816833        1.08132667170263        0.61432082805011
H            3.60661396636878        2.58585319707860        0.12015720089657
H            3.03519884454279        1.71109034254106        1.55232273478962
H            2.93661852164086        0.85203683805783       -1.37603531099519
H           -0.81697524783296        2.84519238238703       -0.45102287030439
H           -2.22573409803027        2.09340367761775       -1.25524555955767
H           -2.23486182460175        2.30337041572643        0.49683383562717
H           -1.82870903859199       -3.30889092586233        1.11783859055656
H           -2.15655171068615       -3.29474302608112       -0.61734311383298
H           -3.17254264344211       -2.31756267407686        0.47388661872842
H            1.38223824636775       -3.35196619919022       -0.07352126098249
25
 energy: -42.181287616854 gnorm: 0.012740619426 xtb: 6.6.1 (8d0f1dd)
C            3.43798879545776        1.54095630566297        0.56508198755074
N            2.21976428354612       -0.51824179489593       -0.12967999794911
C            2.50015868475964        0.83286919968351       -0.40241604520108
N            0.45718953442465       -3.04329927678593        0.04857518177878
C            0.08945301442584       -1.83031475150878        0.05862902315894
C            0.93286873571953       -0.65442965978147       -0.06999909699451
C            0.30390136921375        0.62447550175325       -0.25115555855622
O            1.21632588415132        1.53361881085880       -0.45628717769551
N           -0.99660968894391        0.80554942610141       -0.20358488923015
C           -1.61511208330048        2.10566575252213       -0.36675877919858
C           -1.86414915639265       -0.31397558674086        0.01895732793620
O           -3.04383594775890       -0.12718849588438        0.08105983319766
N           -1.26728536605711       -1.54638042428284        0.14209323755705
C           -2.15318948210765       -2.69047505193470        0.29256071439343
H            4.38152543373816        1.00627145450956        0.61671400300674
H            3.62030922348965        2.55527852265752        0.18987576259009
H            3.00312818500404        1.60476730117022        1.56313271484226
H            2.94062121281502        0.88255681946639       -1.41379622053391
H           -0.83768523173892        2.85939528011991       -0.45704280615003
H           -2.24494172029750        2.10178333318843       -1.25684156934767
H           -2.25052055465206        2.31219707289129        0.49485112826235
H           -1.80919446933807       -3.30640875246677        1.12199474293243
H           -2.13241000303300       -3.29668015834554       -0.61426798420627
H           -3.16427184054924       -2.33166964711489        0.47401914807028
H            1.43640270152363       -3.28808263926917       -0.01454306231797
25
 energy: -42.182103109889 gnorm: 0.010570605846 xtb: 6.6.1 (8d0f1dd)
C            3.42987315732854        1.49754489847332        0.57697068815719
N            2.21179050663293       -0.51323873536831       -0.19173225295915
C            2.50089050759554        0.84040293431255       -0.43972997733436
N            0.48309059640360       -3.02271946279398        0.10310514202349
C            0.09041619712791       -1.81711972300971        0.06505387152753
C            0.92576622402141       -0.63796343845277       -0.10295478963335
C            0.30121851192559        0.64489776106449       -0.27204251696663
O            1.21650209886500        1.54887624188590       -0.48731774172720
N           -1.00062234901623        0.81768589583430       -0.20856124985799
C           -1.63169312598608        2.11323270406723       -0.36802823727759
C           -1.86192242528164       -0.30902418028667        0.01776252224481
O           -3.04170808993994       -0.12612247527651        0.08551330106142
N           -1.26326829256955       -1.54170054396622        0.14066961488026
C           -2.14054937528423       -2.69096839579276        0.29544661732951
H            4.36174284743016        0.94064220073821        0.61782605901471
H            3.63027963816726        2.52393304441508        0.25572619220870
H            2.97406867558019        1.50929613321857        1.56939146370858
H            2.95286288833793        0.92498885047609       -1.44342446465542
H           -0.86079388197680        2.87369458175412       -0.46003181723075
H           -2.26439890692668        2.10710341400325       -1.25637188661022
H           -2.26688155509646        2.31476133616214        0.49505566369985
H           -1.78956295973524       -3.30071566223256        1.12679736453525
H           -2.11114273392186       -3.29976742652164       -0.60937672050211
H           -3.15536891322953       -2.34263196177656        0.47466006014818
H            1.46984227364782       -3.23684944935339        0.04676471211128
25
 energy: -42.182471233508 gnorm: 0.006512795708 xtb: 6.6.1 (8d0f1dd)
C            3.42371182131931        1.47064725559176        0.58386192976542
N            2.20840043320613       -0.50929007954276       -0.23550789878567
C            2.50238404736205        0.84720186131560       -0.46271285287004
N            0.49239754664911       -3.01167996726645        0.14319122790152
C            0.09305881659225       -1.81102728200311        0.06379676909903
C            0.92467533166043       -0.63024961142916       -0.13047542423672
C            0.30124288193728        0.65656970496150       -0.28659090915459
O            1.21661002580179        1.55877578589303       -0.50299549014909
N           -1.00117841191211        0.82468821744602       -0.21302619130506
C           -1.64258836342501        2.11656853830641       -0.36689745333535
C           -1.85875137470452       -0.30565755763647        0.01280639175292
O           -3.03878468335986       -0.12555060010426        0.08421001403722
N           -1.25862127418786       -1.53801537482651        0.13350688559468
C           -2.13144711107246       -2.68908476026596        0.29755644417577
H            4.34741261497013        0.90016747901857        0.61627869532530
H            3.63503379149968        2.50047629479379        0.30202711218699
H            2.95479940978999        1.44805446557177        1.56763259983871
H            2.96447781979726        0.96016908515698       -1.45758823552734
H           -0.87820388342009        2.88375981316320       -0.45819122885457
H           -2.27714189118355        2.10863554470339       -1.25411949318545
H           -2.27839269224906        2.31053510389281        0.49755124345659
H           -1.77520478335028       -3.29151128993708        1.13241546528039
H           -2.09860146203899       -3.30385507416013       -0.60296574609517
H           -3.14778035648197       -2.34600385885745        0.47556029364133
H            1.48292326090002       -3.20608515221132        0.09184746933913
