25
 energy: 0.000000000000 xtb: 6.6.1 (8d0f1dd)
C            3.23720163006194        1.16630919979326        0.08434469647475
N            2.29877817382611        0.07527477071623        0.03981603040599
C            2.58028210190900       -1.21425402444508        0.03006176031096
N            1.43813958087363       -1.93419271955128        0.00098261760884
C            0.39035688448383       -1.05887472636071       -0.00790371836672
C            0.93510056364412        0.21347819449412        0.01709077491437
C            0.09450143893243        1.40504303904423       -0.00410947031874
O            0.49712751527797        2.54126714362870       -0.00342325688240
N           -1.25076640035757        1.06271879480407       -0.03085478223738
C           -2.21907211982101        2.15522099834493       -0.05001256985998
C           -1.81739487048744       -0.20012725993278       -0.04692818574614
O           -2.99983886758376       -0.37846417018721       -0.07008878229737
N           -0.92618586207120       -1.30210215599479       -0.03682761578324
C           -1.46982264913417       -2.64643102187190       -0.06029820460571
H            3.71247264356769        1.21471455160235        1.06488849150277
H            4.00791497605742        1.03430808813993       -0.67357694370751
H            2.69910007168542        2.09770118228144       -0.09130154882931
H            3.56654120610678       -1.63682992603973        0.04233140067262
H           -1.67107961066214        3.09322851271934       -0.02552706933167
H           -2.82428953597071        2.09428624779827       -0.95318082946668
H           -2.87644029173232        2.07745725625962        0.81450067533302
H           -1.17061996399332       -3.19584890659852        0.83242232437030
H           -1.14560257411436       -3.17511610292205       -0.95688275822323
H           -2.55549792440841       -2.55659984320617       -0.07459039797972
H            1.38130855184625       -2.94313852034425       -0.01389874181052
25
 energy: -5.398211739788 xtb: 6.6.1 (8d0f1dd)
C            3.24395986901214        1.17754602657078        0.08675538512666
N            2.30810622187124        0.09559412516014        0.03771624527238
C            2.59961587270159       -1.23254671293577        0.03005420772802
N            1.42751447928324       -1.94017649034813        0.00081167051261
C            0.39642789948572       -1.05609511058729       -0.00827224321787
C            0.93026624884109        0.22262851401717        0.01524291274424
C            0.10171660549264        1.39607333262339       -0.00526656543445
O            0.49833030493921        2.56194293170385       -0.00465237553163
N           -1.26029307901262        1.05066089027046       -0.03111011928949
C           -2.22051198381647        2.14678980288058       -0.04985239056536
C           -1.82356421612759       -0.20063709703572       -0.04730549840457
O           -3.02020333386906       -0.38302870601873       -0.07040780496548
N           -0.93414246160051       -1.30086829607061       -0.03704978356094
C           -1.47205794438161       -2.64286410303338       -0.06020869734031
H            3.72218315470760        1.22342365363716        1.06882277943756
H            4.01202439294511        1.04275254568305       -0.67625049582238
H            2.69720393854615        2.10219693926059       -0.08878004824455
H            3.57781899503544       -1.65887337520948        0.04269379417031
H           -1.65893035430897        3.07804616299519       -0.02536237888043
H           -2.82590513403149        2.09333581928412       -0.95425485208943
H           -2.87808289209581        2.07670981011114        0.81601870304945
H           -1.16874201015744       -3.19413977061611        0.83189671811387
H           -1.14371651749952       -3.17359460164009       -0.95601580266318
H           -2.55735136695261       -2.55195665976978       -0.07457565529725
H            1.36054797892873       -2.94389102876050       -0.01361380870045
25
 energy: -6.567240335201 xtb: 6.6.1 (8d0f1dd)
C            3.25055331214649        1.18402111078601        0.08907153913859
N            2.31442677567836        0.10690476866806        0.03411195849102
C            2.60913629485794       -1.24550129445774        0.03025799457265
N            1.41571657490576       -1.93878133521225        0.00113453346404
C            0.39978095523254       -1.05201974297399       -0.00891330555356
C            0.92669514773606        0.23031648871913        0.01258879464136
C            0.10770265338777        1.38444756100730       -0.00733198280860
O            0.48692857713259        2.56502608372008       -0.00740837593364
N           -1.27018465269615        1.04005060046698       -0.03169850766377
C           -2.22090873092764        2.14017044027010       -0.04964955061833
C           -1.82570034313440       -0.20189484827982       -0.04769300561352
O           -3.02628466982792       -0.39017068622119       -0.07049967527311
N           -0.93974709923963       -1.29774345823963       -0.03727606281890
C           -1.47245212645402       -2.63848970391071       -0.06000871730062
H            3.73555466064301        1.23280508047730        1.06974586871844
H            4.01804009801435        1.05732559898417       -0.67782068002449
H            2.69896520663879        2.10674919102268       -0.08205048178859
H            3.58069839742913       -1.67772580551184        0.04335303945569
H           -1.64281110184176        3.06208009068138       -0.02519490399052
H           -2.82737620921620        2.09399826874133       -0.95427789436409
H           -2.87896033168912        2.07753908921912        0.81696854028512
H           -1.16736094632172       -3.19156922162475        0.83157395052309
H           -1.14222570566471       -3.17142721216710       -0.95503395049635
H           -2.55772606776370       -2.54668270546039       -0.07451312461685
H            1.33975399891036       -2.94039975653222       -0.01240210427778
25
 energy: -6.669350990803 xtb: 6.6.1 (8d0f1dd)
C            3.25344060792683        1.18536807570466        0.09026177182180
N            2.31718835785433        0.10776015670180        0.03111402159264
C            2.60951829060571       -1.25066475858532        0.03038207092470
N            1.41120534460818       -1.93689548483471        0.00180573862458
C            0.40033216938613       -1.05054916607427       -0.00947241576525
C            0.92674387446115        0.23301402813988        0.01051929122544
C            0.10948858126521        1.38181233291311       -0.00947857321087
O            0.47594256696413        2.56524521063055       -0.01043539880788
N           -1.27531448741572        1.03689602898960       -0.03253005779265
C           -2.22096484965832        2.13884399661667       -0.04959562229044
C           -1.82651162811336       -0.20375110864272       -0.04806691023028
O           -3.02651235802412       -0.39665610908995       -0.07051988841825
N           -0.94045301346715       -1.29641215094759       -0.03740342594926
C           -1.47115767852780       -2.63707788034973       -0.05969861840888
H            3.74357186099862        1.23431478350147        1.06890839127842
H            4.02050777136917        1.06851996612441       -0.67916343621997
H            2.70087163960032        2.10939135806337       -0.07428848370189
H            3.57859468499295       -1.68764804706810        0.04374806705883
H           -1.63396908067701        3.05503436182375       -0.02531054365950
H           -2.82831347086554        2.09620786806713       -0.95378422884840
H           -2.87870481552132        2.07969838751459        0.81748523457928
H           -1.16637192025540       -3.18995377932470        0.83214973449767
H           -1.14103350751699       -3.17035640874477       -0.95460649933669
H           -2.55657187968335       -2.54451833016467       -0.07435315022220
H            1.33068760762956       -2.93859472879247       -0.01063317259369
25
 energy: -6.695331226167 xtb: 6.6.1 (8d0f1dd)
C            3.25581355792212        1.18562860821957        0.09199004600706
N            2.32036395504307        0.10624686937632        0.02654044441356
C            2.60798629776153       -1.25490206398702        0.03034095885535
N            1.40800340048211       -1.93474183232761        0.00304166654301
C            0.40016864397682       -1.04899096583934       -0.01042168682191
C            0.92811315449992        0.23536076996164        0.00718729648585
C            0.11111672987544        1.38167069420636       -0.01335441061010
O            0.46316118924907        2.56646871305538       -0.01573407195421
N           -1.28013294410576        1.03469724615378       -0.03424392309963
C           -2.22090384503901        2.13873690827581       -0.04965549995505
C           -1.82789080857705       -0.20619268826396       -0.04881350144550
O           -3.02663866242404       -0.40432909806935       -0.07049127842509
N           -0.94006467091638       -1.29531640597029       -0.03760311279853
C           -1.46856876389782       -2.63657674431930       -0.05901236086591
H            3.75290391837720        1.22970388779859        1.06765745403222
H            4.02059026355297        1.08320162736983       -0.68234526666618
H            2.70152443373789        2.11152293679289       -0.06031148443045
H            3.57451804082392       -1.69800847956368        0.04407334989292
H           -1.62573360364049        3.04938950482901       -0.02587181650141
H           -2.82987397340533        2.10038762899651       -0.95286155838685
H           -2.87767485860618        2.08358807586379        0.81835066601954
H           -1.16428159626048       -3.18824193267582        0.83355066588596
H           -1.13853549036477       -3.16980038605245       -0.95379181717310
H           -2.55418820569126       -2.54378231428349       -0.07395799471302
H            1.32243850556274       -2.93669195737514       -0.00722886814125
25
 energy: -6.680570621101 xtb: 6.6.1 (8d0f1dd)
C            3.25706178373292        1.18507015734624        0.09462240619072
N            2.32317463033977        0.10394846361927        0.02055533557836
C            2.60570138962549       -1.25735824016655        0.02977767422782
N            1.40605789088792       -1.93291002756959        0.00463128234784
C            0.39928379759369       -1.04712718051178       -0.01187681228861
C            0.92981531203797        0.23736822325108        0.00240795742905
C            0.11280088809691        1.38306926728038       -0.01921403297785
O            0.45342541607072        2.56870684845396       -0.02359655258463
N           -1.28339169450078        1.03325978454922       -0.03709398294175
C           -2.22064479095622        2.13946518457385       -0.04994897263148
C           -1.82979882585176       -0.20806792236078       -0.05000393243909
O           -3.02745016727995       -0.41024277582145       -0.07033707763735
N           -0.93948551224980       -1.29453025825236       -0.03793254938823
C           -1.46517323770939       -2.63710272843916       -0.05779496445973
H            3.76313978045643        1.21684533425870        1.06638343076347
H            4.01645895656081        1.09999594557260       -0.68781899160727
H            2.69949591194772        2.11253659545741       -0.03904922717657
H            3.56984130451685       -1.70645177118165        0.04406231116967
H           -1.62023651859499        3.04648383151664       -0.02718168922992
H           -2.83209766289886        2.10543656002141       -0.95160550829649
H           -2.87551177455064        2.08806318429494        0.81970549200407
H           -1.16068223218680       -3.18666508981608        0.83579214294142
H           -1.13431349830077       -3.17028276346693       -0.95209467317380
H           -2.55100012650652       -2.54560478608033       -0.07319536826136
H            1.31574364765550       -2.93487723435701       -0.00215980141099
25
 energy: -6.507197096096 xtb: 6.6.1 (8d0f1dd)
C            3.25845664143439        1.18319469870265        0.10276228474995
N            2.32836203790436        0.09916511604114        0.00450082230795
C            2.60036194216725       -1.26117050590138        0.02717591892678
N            1.40185396476594       -1.92931875337441        0.00837510236996
C            0.39652814981787       -1.04245903714459       -0.01626099107764
C            0.93295978503785        0.24171892377420       -0.01122252779304
C            0.11664343320483        1.38678073554115       -0.03619675662186
O            0.43714517552331        2.57430829820898       -0.04635481442519
N           -1.28895582911432        1.03082154120029       -0.04575993288822
C           -2.21982714013935        2.14177574246627       -0.05116006989709
C           -1.83453067133788       -0.21077499728069       -0.05349751679611
O           -3.03020571989203       -0.42008837735436       -0.06965523202636
N           -0.93892354070730       -1.29290510438416       -0.03901136918164
C           -1.45672540776326       -2.63919258071828       -0.05391138028032
H            3.79014608854744        1.17492836512115        1.06309658792135
H            3.99996930983125        1.14350848276499       -0.70380672208486
H            2.69132870969941        2.11404182609286        0.02353618794073
H            3.55935067826635       -1.72284363539998        0.04328414060207
H           -1.61078758031832        3.04292138679157       -0.03179903071711
H           -2.83844134947210        2.11675722111709       -0.94822282181048
H           -2.86842196025794        2.09778088354144        0.82367458589137
H           -1.15019016528759       -3.18264367192814        0.84247355565672
H           -1.12206830576406       -3.17292458126892       -0.94620600567229
H           -2.54303850707565       -2.55343174270143       -0.07061957222001
H            1.30122492886571       -2.93092163173541        0.01183945327259
25
 energy: -4.210997180154 xtb: 6.6.1 (8d0f1dd)
C            3.26081158811068        1.17671084444153        0.13077956258780
N            2.34177249440286        0.08599994679534       -0.04721770579042
C            2.58448783864839       -1.27058201056526        0.01751592580047
N            1.38902188791562       -1.91932015587597        0.01926297656329
C            0.38762219539227       -1.02832178405383       -0.03133813368593
C            0.94097009682054        0.25423457658683       -0.05648329199445
C            0.12777413328559        1.39801983230251       -0.09253481752480
O            0.39638182613306        2.59058066627295       -0.12193089504334
N           -1.30356852869287        1.02507041603597       -0.07505105181805
C           -2.21741246387477        2.14939319360588       -0.05550263811876
C           -1.84872774663430       -0.21654918981483       -0.06511980119976
O           -3.03909944696633       -0.44464622693662       -0.06692587075270
N           -0.93850159586824       -1.28803632836443       -0.04297372602497
C           -1.43093596512449       -2.64599655110692       -0.04053923566256
H            3.87713599498123        1.03319910448337        1.05074482074322
H            3.94021267271626        1.28256260909354       -0.75372141040323
H            2.66475442048059        2.11638327790785        0.23166304674016
H            3.52874365684492       -1.76754743189452        0.03980988482529
H           -1.58647075750226        3.03575713170382       -0.04826646565972
H           -2.85985716479147        2.14926766114394       -0.93691294836300
H           -2.84400620049420        2.12513084330397        0.83702006357428
H           -1.11629162521857       -3.16914646490951        0.86502353938398
H           -1.08251520902441       -3.18273298496802       -0.92538305792359
H           -2.51872968402590       -2.58105363270608       -0.06145987178662
H            1.25864225042188       -2.91934874030945        0.05657499768068
25
 energy: -5.625943863070 xtb: 6.6.1 (8d0f1dd)
C            3.25847166750002        1.17696981647965        0.12551935065870
N            2.33599955967706        0.09069370876697       -0.03421382239974
C            2.58867653614674       -1.26508425004419        0.02020003556422
N            1.39308478929204       -1.92249062411633        0.01559132116298
C            0.38939264148198       -1.03196390112972       -0.02929128633514
C            0.93770761414337        0.25021059070689       -0.04779690614677
C            0.12378528851751        1.39578587112813       -0.08114574445259
O            0.41463799845721        2.58569876945985       -0.10646508673908
N           -1.29758873457822        1.02836068614363       -0.06885797010449
C           -2.21858654188168        2.14797387473420       -0.05284818084841
C           -1.84499139170983       -0.21310134531498       -0.06261492911844
O           -3.03732280547474       -0.43357501956111       -0.06647608433845
N           -0.93941681602047       -1.28945581672641       -0.04315795251187
C           -1.43760828739109       -2.64468395676609       -0.04394621374996
H            3.84813063205766        1.07094246041049        1.05164951315617
H            3.95361631754605        1.24003864109138       -0.72914142885412
H            2.67640704579844        2.10851937548320        0.17329135780393
H            3.53780836883431       -1.74965471920336        0.03983754153091
H           -1.59838044852506        3.04145102854437       -0.04347890630616
H           -2.85657103348335        2.13963679273730       -0.93670560168107
H           -2.84815159341268        2.11528264287779        0.83664860727592
H           -1.12341233524529       -3.17213637227188        0.85933893001380
H           -1.09132287320050       -3.18108572493051       -0.93004381614473
H           -2.52491769670872       -2.57704221635454       -0.06352521382038
H            1.27276676611530       -2.92226170997270        0.04466638253202
25
 energy: -5.448792012279 xtb: 6.6.1 (8d0f1dd)
C            3.25618754361576        1.17127758366144        0.14224367194760
N            2.33539382060490        0.08994565559877       -0.05669613568800
C            2.58364759495768       -1.26266178255105        0.01666368874995
N            1.38854850191841       -1.92008027384518        0.01729458550910
C            0.38530311329665       -1.02676478063626       -0.04068041639004
C            0.93712772617672        0.25323937006298       -0.07409949548387
C            0.12490869105251        1.40023032927472       -0.11262210951250
O            0.41675352810370        2.58942962600774       -0.14935747704649
N           -1.29865429560230        1.03030172849349       -0.08489061557375
C           -2.21912307463765        2.15165037804120       -0.05111497828981
C           -1.84963968988425       -0.21031326934146       -0.06873290133890
O           -3.04151586486646       -0.43146486792482       -0.06219465412371
N           -0.94182149307143       -1.28745515358431       -0.04835934307048
C           -1.42821883503606       -2.64729903288540       -0.03793633022790
H            3.86935658807598        1.01459563804232        1.04110419324291
H            3.92525725568428        1.28415247960927       -0.72161759607555
H            2.67734652364180        2.09292151529989        0.25209093285786
H            3.52997824827673       -1.75201037012260        0.03592480140800
H           -1.60094608508878        3.04656040276130       -0.05000916176428
H           -2.87210468423076        2.14776940986445       -0.92385754786870
H           -2.83226739779252        2.11793846418545        0.84995743582276
H           -1.10690580649260       -3.16379312891843        0.86969552834968
H           -1.07314638552194       -3.18715164898637       -0.91884567136447
H           -2.51584305218436       -2.59420038122725       -0.05852276353470
H            1.26259219694007       -2.91778928870786        0.06159625561254
25
 energy: -4.640332387036 xtb: 6.6.1 (8d0f1dd)
C            3.25526824225222        1.16466355442480        0.16366116657196
N            2.33699358082737        0.08780468383008       -0.08691731233184
C            2.57691349440679       -1.26302011323297        0.01204370347844
N            1.38148277282362       -1.91606566759809        0.01975237431099
C            0.38069066855018       -1.01997863968847       -0.05530700725007
C            0.93750704074599        0.25803723764898       -0.10773624671975
C            0.12698821441274        1.40517364920983       -0.15388744282983
O            0.41031280977024        2.59460453030089       -0.20628542502418
N           -1.30273259897780        1.03116927610818       -0.10599799578996
C           -2.21938897348755        2.15589006029835       -0.04962209752318
C           -1.85558064138132       -0.20869603975486       -0.07677470426210
O           -3.04621661251128       -0.43368389278710       -0.05683275410245
N           -0.94411380853236       -1.28430694406645       -0.05519310014005
C           -1.41571652391443       -2.64977760131877       -0.02972393948572
H            3.90255455807650        0.93888081527697        1.03032274121674
H            3.89178552567976        1.35033835725735       -0.71994378369245
H            2.67465862956834        2.07851099375573        0.36275191082217
H            3.51869771051218       -1.76167927925769        0.03093485744690
H           -1.59822946207795        3.04895147171161       -0.05958800820069
H           -2.89255293271232        2.15956254122525       -0.90763460801341
H           -2.81167007301266        2.12385396582854        0.86636769659644
H           -1.08674429561542       -3.15172494990644        0.88405898703985
H           -1.05076656707412       -3.19453150275952       -0.90397311407262
H           -2.50379245155969       -2.61316147521617       -0.05167899962696
H            1.24586636116700       -2.91178642911797        0.08423699772898
25
 energy: -3.812645869116 xtb: 6.6.1 (8d0f1dd)
C            3.25386422654767        1.15725423494591        0.18644768737175
N            2.33749060099911        0.08708539734774       -0.11589429491345
C            2.57103501815379       -1.26227801830254        0.00855285574971
N            1.37491990871382       -1.91230781424406        0.02048164977739
C            0.37668096106407       -1.01384557388898       -0.07186633112303
C            0.93708809676832        0.26205227720917       -0.14279965872416
C            0.12737634022831        1.40932454146540       -0.19763175512921
O            0.40618233169864        2.59840243802231       -0.26779651715725
N           -1.30581882944056        1.03283348115461       -0.12806161103932
C           -2.21969931401627        2.15981454143733       -0.04631964889606
C           -1.86046685879802       -0.20632871966401       -0.08503504568750
O           -3.05024862005299       -0.43335599666023       -0.04994311712921
N           -0.94657238435865       -1.28104591027906       -0.06405879397514
C           -1.40428786605419       -2.65138235103796       -0.02174395179301
H            3.92733882894907        0.87015415997129        1.01992623117628
H            3.86191876601317        1.40993436792858       -0.70661173345264
H            2.67535683691024        2.05841916563323        0.46518963625239
H            3.50958960926959       -1.76731506496344        0.02461279980769
H           -1.59746433919584        3.05231864049312       -0.06892193995830
H           -2.91549644058504        2.16922260336910       -0.88724099807932
H           -2.78842322721953        2.12711742766309        0.88590123762356
H           -1.06760888655148       -3.13789014731142        0.89849965135652
H           -1.02998012071580       -3.20219450186582       -0.88870641359156
H           -2.49256555585630       -2.63110496312388       -0.04444357713210
H            1.23200558546489       -2.90585561312743        0.10449753481318
25
 energy: -3.350209873626 xtb: 6.6.1 (8d0f1dd)
C            3.25174611302804        1.14991901580602        0.20840790927119
N            2.33669519490544        0.08817337146000       -0.13959472608997
C            2.56691408723195       -1.26030779534114        0.00708935791699
N            1.36967897368367       -1.90929868633346        0.01897564669384
C            0.37390647920339       -1.00921695512250       -0.08891726347279
C            0.93579398297126        0.26463821102469       -0.17540038546324
C            0.12582864495474        1.41184651219503       -0.23977177459442
O            0.40553289234798        2.59980086963612       -0.32877184081971
N           -1.30723177719280        1.03524951123930       -0.14886199518166
C           -2.21974601273981        2.16286468294312       -0.04107555372751
C           -1.86341080140343       -0.20325701244280       -0.09265717773470
O           -3.05286386159395       -0.42981787959438       -0.04188040622243
N           -0.94894672980203       -1.27801814350088       -0.07464616458362
C           -1.39547942985102       -2.65168630852608       -0.01499254044743
H            3.93913264232805        0.81778323822589        1.01248406243859
H            3.84007850306274        1.45421387321296       -0.68149021721580
H            2.67807017655567        2.03450266289432        0.54609637422458
H            3.50417559721966       -1.76753385757437        0.01700217310906
H           -1.59905681557298        3.05646930634361       -0.07693740263726
H           -2.93860777994135        2.17503792061326       -0.86368016504558
H           -2.76400765467509        2.12671882427479        0.90708852869907
H           -1.05194974245647       -3.12329460264613        0.91138854674106
H           -1.01351596059045       -3.20944161020811       -0.87461975513112
H           -2.48362579219263       -2.64562020692012       -0.03756405023664
H            1.22310373845537       -2.90069633948710        0.11936271565674
25
 energy: -2.623017891392 xtb: 6.6.1 (8d0f1dd)
C            3.24876978444470        1.14243614986955        0.23201902965934
N            2.33652353550674        0.08910523582108       -0.16328734418331
C            2.56267298764074       -1.25826435703646        0.00645109731049
N            1.36466758700260       -1.90591582804020        0.01682744320254
C            0.37137907251835       -1.00460866741119       -0.10728177846270
C            0.93497578881744        0.26717219160533       -0.20918160059756
C            0.12425051581374        1.41409813005843       -0.28510964822956
O            0.40325748406849        2.60048787702898       -0.39560801905952
N           -1.30867028737370        1.03755472133444       -0.17099188974594
C           -2.21900835651057        2.16579492675971       -0.03511055264621
C           -1.86603201676720       -0.20046582998839       -0.10072790590037
O           -3.05488576048301       -0.42658092321361       -0.03282472338641
N           -0.95091304335211       -1.27484533157294       -0.08690979927727
C           -1.38660511008233       -2.65154060801051       -0.00793586847545
H            3.95033699859645        0.76438492073288        1.00624991748396
H            3.81817379089412        1.50062815164130       -0.65366550956625
H            2.67821245293721        2.00881145425542        0.63041510589208
H            3.49865577727796       -1.76807211838125        0.00752584702960
H           -1.60011523551878        3.06029354441069       -0.08580209129393
H           -2.96267424590974        2.18055832326248       -0.83713846109419
H           -2.73644213617755        2.12635377168502        0.92975730019460
H           -1.03668370462789       -3.10687820437867        0.92518448019584
H           -0.99750942642732       -3.21732647516677       -0.85952446672377
H           -2.47450510901412       -2.65904767890825       -0.03009876096919
H            1.21438332466171       -2.89510477418503        0.13380209479045
25
 energy: -2.614590387403 xtb: 6.6.1 (8d0f1dd)
C            3.24456013113838        1.13606570786915        0.25289320101964
N            2.33500792298298        0.09198047263914       -0.17811195828274
C            2.56079284467432       -1.25494115617912        0.00839645378361
N            1.36163360715499       -1.90376102771593        0.01238774591477
C            0.37048000979540       -1.00215510200567       -0.12433483907260
C            0.93335142668777        0.26783056085877       -0.23653281100879
C            0.12088876751838        1.41409642510543       -0.32449282874014
O            0.40511331107673        2.59815215427986       -0.45613539411389
N           -1.30790855993428        1.04033060359484       -0.18958260162445
C           -2.21740394904030        2.16742593742569       -0.02770051490270
C           -1.86612147783704       -0.19715380120662       -0.10736982282335
O           -3.05491650113964       -0.41998872776180       -0.02333984478070
N           -0.95256466846087       -1.27236984801303       -0.10019374887026
C           -1.38151611252954       -2.64996400279033       -0.00282768259080
H            3.94709153857010        0.73377069982776        1.00429946128470
H            3.80558240011108        1.52636182918524       -0.61668569312229
H            2.67840967388987        1.98156883306121        0.68432899949457
H            3.49763278537279       -1.76272460612479       -0.00359854400041
H           -1.60331960288908        3.06466537416590       -0.09257621755435
H           -2.98353784335488        2.18109142689768       -0.80952311030837
H           -2.70945116618153        2.12214088539199        0.95152973792985
H           -1.02683075808319       -3.09093004488241        0.93608074213611
H           -0.98779095336688       -3.22426940728317       -0.84684818149454
H           -2.46885481250140       -2.66723720465589       -0.02367968837295
H            1.21188665428175       -2.89095737951180        0.14065103624731
25