25
 energy: 0.000000000000 xtb: 6.6.1 (8d0f1dd)
C            3.23720163006194        1.16630919979326        0.08434469647475
N            2.29877817382611        0.07527477071623        0.03981603040599
C            2.58028210190900       -1.21425402444508        0.03006176031096
N            1.43813958087363       -1.93419271955128        0.00098261760884
C            0.39035688448383       -1.05887472636071       -0.00790371836672
C            0.93510056364412        0.21347819449412        0.01709077491437
C            0.09450143893243        1.40504303904423       -0.00410947031874
O            0.49712751527797        2.54126714362870       -0.00342325688240
N           -1.25076640035757        1.06271879480407       -0.03085478223738
C           -2.21907211982101        2.15522099834493       -0.05001256985998
C           -1.81739487048744       -0.20012725993278       -0.04692818574614
O           -2.99983886758376       -0.37846417018721       -0.07008878229737
N           -0.92618586207120       -1.30210215599479       -0.03682761578324
C           -1.46982264913417       -2.64643102187190       -0.06029820460571
H            3.71247264356769        1.21471455160235        1.06488849150277
H            4.00791497605742        1.03430808813993       -0.67357694370751
H            2.69910007168542        2.09770118228144       -0.09130154882931
H            3.56654120610678       -1.63682992603973        0.04233140067262
H           -1.67107961066214        3.09322851271934       -0.02552706933167
H           -2.82428953597071        2.09428624779827       -0.95318082946668
H           -2.87644029173232        2.07745725625962        0.81450067533302
H           -1.17061996399332       -3.19584890659852        0.83242232437030
H           -1.14560257411436       -3.17511610292205       -0.95688275822323
H           -2.55549792440841       -2.55659984320617       -0.07459039797972
H            1.38130855184625       -2.94313852034425       -0.01389874181052
25
 energy: -5.395907053489 xtb: 6.6.1 (8d0f1dd)
C            3.24418334295941        1.17821063281367        0.08675779960757
N            2.30855578057660        0.09598047373753        0.03775284869438
C            2.60037906055929       -1.23206813300622        0.03009606561614
N            1.42843574050227       -1.94004307387521        0.00086281868337
C            0.39695338007615       -1.05638213070200       -0.00824235748242
C            0.93065926901578        0.22254578069011        0.01527746754678
C            0.10205772806450        1.39592331355746       -0.00524745998308
O            0.49851633875834        2.56185350874872       -0.00463827528214
N           -1.25985234831116        1.05030482213084       -0.03110035627950
C           -2.22025495511216        2.14622463270429       -0.04986804192478
C           -1.82300269287234       -0.20101579983004       -0.04728637397857
O           -3.01961988565230       -0.38345797270300       -0.07040018978950
N           -0.93380174476884       -1.30134601683149       -0.03703456737889
C           -1.47373519280886       -2.64284983077188       -0.06025698793656
H            3.72257363175353        1.22421401710452        1.06874567487828
H            4.01222570749584        1.04371878950164       -0.67633142360012
H            2.69725348873196        2.10278587861089       -0.08864811308292
H            3.57873956924042       -1.65805536550209        0.04275133827234
H           -1.65886111558138        3.07758061478609       -0.02538717035112
H           -2.82560101611141        2.09257157323944       -0.95428447287128
H           -2.87779203686966        2.07595965429302        0.81600778392321
H           -1.17182566404747       -3.19482160590508        0.83184285980711
H           -1.14687920319244       -3.17417791048973       -0.95618963360071
H           -2.55893968183524       -2.55087527568219       -0.07460036106324
H            1.36184716736536       -2.94375197444726       -0.01354497627708
25
 energy: -6.556122451000 xtb: 6.6.1 (8d0f1dd)
C            3.25073083018687        1.18556428643816        0.08898605773311
N            2.31527084562851        0.10776012961236        0.03424753767218
C            2.61101575332280       -1.24407975406178        0.03039945739459
N            1.41841976280879       -1.93860235972520        0.00128853371921
C            0.40116114523012       -1.05313108378903       -0.00879052018154
C            0.92752198539118        0.22977806393073        0.01275490505920
C            0.10861856206984        1.38394763762728       -0.00718513658365
O            0.48774840838329        2.56446267888932       -0.00725494809869
N           -1.26889607196335        1.03928141998050       -0.03163636324015
C           -2.22020167047641        2.13887549509977       -0.04970263428617
C           -1.82399378569030       -0.20281863700790       -0.04762243916803
O           -3.02451777314996       -0.39099512283849       -0.07048512330632
N           -0.93870668384455       -1.29919560343696       -0.03721324651090
C           -1.47671210129190       -2.63846729701015       -0.06015169762101
H            3.73600650482342        1.23454751963947        1.06948927637431
H            4.01819392567375        1.05945476702137       -0.67802918351881
H            2.69879636487752        2.10812150552644       -0.08189655144497
H            3.58312984646838       -1.67490331080132        0.04350188190310
H           -1.64315191044354        3.06139980788680       -0.02527266810377
H           -2.82653207032627        2.09196528897215       -0.95435105952554
H           -2.87819652518850        2.07555190386630        0.81687101996145
H           -1.17534704479907       -3.19340744232828        0.83141914632400
H           -1.15041241170993       -3.17296351390812       -0.95555015228360
H           -2.56174566240685       -2.54284640342121       -0.07454513342952
H            1.34401444436239       -2.94027137399020       -0.01223706269118
25
 energy: -6.656388959237 xtb: 6.6.1 (8d0f1dd)
C            3.25331113410639        1.18764713243355        0.09003023184784
N            2.31828391613948        0.10893056758993        0.03141975114640
C            2.61250675870123       -1.24842380643765        0.03065930334910
N            1.41568662002259       -1.93689517066802        0.00205266994874
C            0.40252691350634       -1.05263117272284       -0.00921601122501
C            0.92789416933816        0.23186230878319        0.01089927413297
C            0.11103473178796        1.38099355161460       -0.00907388283794
O            0.47781041889878        2.56420752342592       -0.00994388016758
N           -1.27314352782039        1.03589450475323       -0.03235292335036
C           -2.21991832257607        2.13689982511494       -0.04969180259644
C           -1.82373511820560       -0.20500964521043       -0.04792250138779
O           -3.02374593908223       -0.39744844409329       -0.07050815340879
N           -0.93875999564404       -1.29877574898078       -0.03726929708679
C           -1.47771885452028       -2.63695551021761       -0.05995354255222
H            3.74356495247003        1.23697220508029        1.06853900782550
H            4.02034884467832        1.07129247375518       -0.67948900022840
H            2.70010489983510        2.11128065522508       -0.07451996102197
H            3.58268174650564       -1.68276070289396        0.04396566585153
H           -1.63503733173106        3.05435887271136       -0.02543192796844
H           -2.82698306213269        2.09286601059123       -0.95395749125390
H           -2.87763090617264        2.07645836165958        0.81726793627327
H           -1.17862931890818       -3.19280676857240        0.83180436196806
H           -1.15361838142282       -3.17264560549892       -0.95544248358275
H           -2.56273155292980       -2.53752411369950       -0.07437938651406
H            1.33811187309200       -2.93875870157066       -0.01045206101370
25
 energy: -6.684729854802 xtb: 6.6.1 (8d0f1dd)
C            3.25503862116812        1.18904122233731        0.09139832578070
N            2.32173225070156        0.10788332862608        0.02736524849521
C            2.61277485847153       -1.25143636135971        0.03091588470672
N            1.41520960149876       -1.93521045369093        0.00338522347507
C            0.40360159810335       -1.05266486523960       -0.00987306090660
C            0.92967878142737        0.23310699349518        0.00812252254216
C            0.11365272431381        1.38027601970214       -0.01223153546499
O            0.46729425922410        2.56461317611055       -0.01425622297802
N           -1.27641411266187        1.03342131053108       -0.03372320149047
C           -2.21937643019184        2.13571407663359       -0.04981291451609
C           -1.82346681580158       -0.20774696571983       -0.04848672016674
O           -3.02244564561710       -0.40451993493267       -0.07049834115856
N           -0.93744236309182       -1.29901105463202       -0.03731805827897
C           -1.47867310587291       -2.63617858347511       -0.05950780274246
H            3.75155993238024        1.23446228786642        1.06717647641953
H            4.01997305783880        1.08619345911090       -0.68264684446454
H            2.69955651387867        2.11395050311403       -0.06221125048265
H            3.58139451512701       -1.68974577149608        0.04437288570314
H           -1.62816341841975        3.04880490269821       -0.02599871424251
H           -2.82771373672458        2.09474879848744       -0.95328351362551
H           -2.87631728841031        2.07819217160950        0.81785456297853
H           -1.18285413500539       -3.19259112646882        0.83272640539946
H           -1.15768180256224       -3.17302343158476       -0.95517879485065
H           -2.56360981626370       -2.53174586260714       -0.07400313539207
H            1.33490662442597       -2.93750523694372       -0.00725352859239
25
 energy: -6.681943022220 xtb: 6.6.1 (8d0f1dd)
C            3.25538735214982        1.18995572090908        0.09323463107926
N            2.32469679406574        0.10624139254037        0.02262519670570
C            2.61279006866279       -1.25249752572058        0.03093234616246
N            1.41641961236040       -1.93416572700955        0.00497981500355
C            0.40421389403391       -1.05282475108901       -0.01077442921167
C            0.93174323657364        0.23361447264372        0.00456554262871
C            0.11640005079301        1.38075227775135       -0.01645564144704
O            0.46098210555970        2.56564809877681       -0.01985322147864
N           -1.27759251392696        1.03169352112609       -0.03574335471597
C           -2.21852700945075        2.13499895649792       -0.05013807685296
C           -1.82332468198644       -0.20976711580621       -0.04928264692725
O           -3.02158057371524       -0.40911598522338       -0.07039580317409
N           -0.93587116942035       -1.29973852315849       -0.03738293542886
C           -1.47966007154429       -2.63620040220423       -0.05876398640270
H            3.75903736828119        1.22619745647141        1.06584562215126
H            4.01591755677246        1.10166128306863       -0.68744121757259
H            2.69609774195794        2.11538946922719       -0.04564875505705
H            3.58035665060643       -1.69391630313206        0.04444974745992
H           -1.62437735057166        3.04597143671184       -0.02711764771611
H           -2.82861031738223        2.09653985910274       -0.95251022659563
H           -2.87414575315384        2.07970387073912        0.81866244808292
H           -1.18673550179231       -3.19281033398510        0.83403413180473
H           -1.16133283548877       -3.17425347288486       -0.95440736329842
H           -2.56442247135118       -2.52735613980915       -0.07338300377507
H            1.33435248590317       -2.93669293337161       -0.00299727527719
25
 energy: -6.632006403894 xtb: 6.6.1 (8d0f1dd)
C            3.25460429302303        1.19164972495356        0.09774082603254
N            2.32923442438125        0.10368006089276        0.01268230115752
C            2.61318217461069       -1.25302676140127        0.03042683266824
N            1.41921710521080       -1.93303152023970        0.00807299235805
C            0.40503803387961       -1.05319548757780       -0.01294667254839
C            0.93502769738730        0.23399460082872       -0.00343896176543
C            0.12154414672074        1.38167037351637       -0.02606937259847
O            0.45479928702681        2.56761149003068       -0.03249661423363
N           -1.27780095945546        1.02902663299588       -0.04059954500221
C           -2.21651856272131        2.13383349603073       -0.05112634442827
C           -1.82296999632313       -0.21224346462748       -0.05111921833039
O           -3.02042192969574       -0.41429123997193       -0.07000731313849
N           -0.93344048333067       -1.30142429902658       -0.03759088099111
C           -1.48175062751342       -2.63673396602625       -0.05683450757924
H            3.77427273187097        1.20402569168978        1.06307900886796
H            4.00349331368651        1.13310947726663       -0.69853123582426
H            2.68643854617678        2.11739037941644       -0.00727908627563
H            3.57926111604667       -1.69891587735624        0.04400372662838
H           -1.61971655173619        3.04293704764597       -0.03018765989267
H           -2.83052699299050        2.09886525928638       -0.95096874069844
H           -2.86866058802974        2.08145942904054        0.82051730286221
H           -1.19330511995890       -3.19329821994413        0.83710248351431
H           -1.16743737878249       -3.17745418207546       -0.95196446026507
H           -2.56610199197356       -2.52091313229505       -0.07174369200401
H            1.33475298042610       -2.93569691088049        0.00631272763377
25
 energy: -6.029294719419 xtb: 6.6.1 (8d0f1dd)
C            3.25037998589884        1.19695282435951        0.11372637542828
N            2.34105858325162        0.09724527838332       -0.01941456391974
C            2.61506374767588       -1.25356533007708        0.02787891132900
N            1.42724086575395       -1.93075750932155        0.01721317949075
C            0.40735827822663       -1.05467194123701       -0.02066192452367
C            0.94358363880921        0.23430967789094       -0.03035477070766
C            0.13643516025725        1.38360723158692       -0.05839175627770
O            0.44336077554570        2.57242970356903       -0.07489527842467
N           -1.27639666842381        1.02197986820690       -0.05737890971798
C           -2.20994243727829        2.13059468214920       -0.05486466654408
C           -1.82141314686428       -0.21778583432579       -0.05732592597238
O           -3.01713428610779       -0.42543784923708       -0.06834166530706
N           -0.92721532042344       -1.30667443636270       -0.03853008510255
C           -1.48841897845407       -2.63851935539861       -0.04989158213408
H            3.82467257759202        1.12719615179861        1.05295909310487
H            3.95785030818145        1.23498746098398       -0.73437516019054
H            2.65419859459267        2.12270514709711        0.12305416240036
H            3.57736027683004       -1.71076345686703        0.04152495715970
H           -1.60753716306756        3.03594506234443       -0.04149413782884
H           -2.83717082174271        2.10393059473303       -0.94598054634280
H           -2.84960840190670        2.08497204419374        0.82670420306446
H           -1.21193780333189       -3.19403689000459        0.84777682595273
H           -1.18480113613493       -3.18822321720418       -0.94262513826650
H           -2.57148415029220       -2.50383983531752       -0.06568758572379
H            1.33671218934854       -2.93355146977152        0.03640988520121
25
 energy: -5.819561586202 xtb: 6.6.1 (8d0f1dd)
C            3.24690183355885        1.19846421205005        0.12192440938859
N            2.34343753256019        0.09613762976147       -0.03287931265020
C            2.61601952859863       -1.25203626777676        0.02673674668052
N            1.43015474561907       -1.93071145379241        0.02006430376997
C            0.40788404676839       -1.05545070442240       -0.02519970884984
C            0.94553930599623        0.23360685929456       -0.04355885686381
C            0.14077381333421        1.38411312899283       -0.07363089258574
O            0.44530116078217        2.57317470433918       -0.09435595523062
N           -1.27407226533980        1.02063768241446       -0.06540948393989
C           -2.20736921910492        2.12987291489036       -0.05594156374997
C           -1.82057594528155       -0.21818003474540       -0.06023454474090
O           -3.01623827052594       -0.42547537818666       -0.06681424609493
N           -0.92580653563283       -1.30870858178487       -0.03965851100285
C           -1.49092211252874       -2.63943458706677       -0.04673104602734
H            3.84300737639490        1.09504487374178        1.04588410614702
H            3.93485627747830        1.27417208684522       -0.74187149597036
H            2.64429656135703        2.12018414681731        0.17683570363262
H            3.57776482852826       -1.71112939730029        0.03961170574269
H           -1.60561648784853        3.03577946930910       -0.04661879981236
H           -2.84120188686681        2.10442602350378       -0.94241606587653
H           -2.84009118200059        2.08450059097318        0.83077779212486
H           -1.21720833438558       -3.19356215633988        0.85252639650888
H           -1.19012312444927       -3.19304603909118       -0.93790243151237
H           -2.57342039976082       -2.50015839530618       -0.06266288926973
H            1.33892342068527       -2.93319272494843        0.04855853632952
25
 energy: -4.392722532050 xtb: 6.6.1 (8d0f1dd)
C            3.22286027238666        1.20292849151512        0.16101727852073
N            2.34483205461181        0.09540919172406       -0.09390849749362
C            2.62033969107056       -1.23501735021757        0.02178166642580
N            1.44474915097215       -1.93474283696312        0.03054832359741
C            0.40737115519673       -1.05921083668748       -0.04669859016384
C            0.94932937077959        0.22685175600142       -0.10610836639651
C            0.15524462417279        1.38777931405058       -0.14125033726952
O            0.48599602390774        2.57419566398852       -0.17823879860133
N           -1.25379251731552        1.02085665673205       -0.10098773095316
C           -2.19606345852016        2.12905015460883       -0.06051798166821
C           -1.81704439817192       -0.21171666409134       -0.07224776411532
O           -3.01520143107886       -0.40496519065171       -0.05766159852269
N           -0.92334056692927       -1.31882009341637       -0.04429793222072
C           -1.50144635722778       -2.64614161286426       -0.03210172427930
H            3.91447909287528        0.94536481090474        1.00378304798131
H            3.81344053330258        1.43373475033405       -0.75643594524564
H            2.60711384249209        2.09235072640274        0.41078631081461
H            3.58355124427285       -1.69273670408684        0.02785819235002
H           -1.61408027703618        3.04927915909885       -0.07237914896490
H           -2.85907616690016        2.09845334775664       -0.92560936028958
H           -2.79501041481038        2.07651815799361        0.85054491036290
H           -1.23575861872760       -3.19133672232872        0.87503600696510
H           -1.20294818055845       -3.21689728921659       -0.91319650426315
H           -2.58074392079034       -2.49809090982452       -0.05265446949978
H            1.35741391996182       -2.93406736859064        0.09997290907663
25
 energy: 6.202439913933 xtb: 6.6.1 (8d0f1dd)
C            3.18740510610670        1.19374674674256        0.16581913104793
N            2.30896396059310        0.11274206245515       -0.09723580585893
C            2.62179256051717       -1.19100931256365        0.02488208610107
N            1.45351030421631       -1.95298907378856        0.02200094999643
C            0.39583871349684       -1.05933559322911       -0.04742912665976
C            0.93020384628318        0.21204296373502       -0.11732428716869
C            0.13450704233677        1.39336258069769       -0.13205435082005
O            0.62032959474777        2.56681066154166       -0.15253257087385
N           -1.21097961279705        1.04366246032095       -0.09374523750240
C           -2.19535116697443        2.13749236024446       -0.05901596498499
C           -1.81859112158886       -0.17864941936235       -0.06586983219747
O           -3.02798278036542       -0.32065184374381       -0.04982827285924
N           -0.93792487106667       -1.32514124733097       -0.03908225770809
C           -1.50043981944729       -2.65774429472231       -0.03203911546195
H            3.85961375713724        0.94016551223794        0.95243031096278
H            3.73881872321680        1.36455903599517       -0.67320997701189
H            2.63768925622391        2.01505785619165        0.36520784198760
H            3.59981242670080       -1.61188333839857        0.01686880019379
H           -1.68287298647295        3.10691232022195       -0.07976254555402
H           -2.85107609070726        2.06449577291484       -0.92549874086499
H           -2.78809613516263        2.05347455475225        0.85330832166656
H           -1.22124686656484       -3.19558693784771        0.87737465603932
H           -1.15866401542197       -3.22551709046090       -0.90128988124869
H           -2.57637968480254       -2.55318091925694       -0.07185096852947
H            1.39333452773133       -2.94380721517437        0.08691073345623
25
 energy: -4.759077477127 xtb: 6.6.1 (8d0f1dd)
C            3.20889051410207        1.19221540286907        0.16429361028641
N            2.32862541586570        0.09951331085723       -0.10145905560352
C            2.62036158804872       -1.22585639245912        0.02500798728432
N            1.44426882873356       -1.94111884698111        0.02574662935203
C            0.40360284004336       -1.06250194160740       -0.04935408452277
C            0.93938164272984        0.21928216816282       -0.11533317399346
C            0.15384525010183        1.38807646897317       -0.14196539858405
O            0.54051092950733        2.56493404083773       -0.17010152217517
N           -1.23846718022232        1.03619454143544       -0.09997170158016
C           -2.19483770880169        2.13607312722669       -0.06232079324876
C           -1.81324461137717       -0.19335878978757       -0.06945092825412
O           -3.01506651837772       -0.36512423333349       -0.05269190053873
N           -0.93103461500473       -1.31756283279882       -0.04254179756413
C           -1.49956425107565       -2.64868767565409       -0.02978597961664
H            3.89701243644321        0.93089619161733        0.97811912050424
H            3.78026414125969        1.42815216757859       -0.73909801673555
H            2.60471965576602        2.06256812236516        0.43001139775306
H            3.59209279578917       -1.66099331979361        0.02082675338815
H           -1.64509529855341        3.07639661135595       -0.08122495526141
H           -2.85780848234478        2.07846856492967       -0.92487599514390
H           -2.78845674983107        2.06666078078597        0.84994984873003
H           -1.23019008703938       -3.18849229550453        0.88078400840114
H           -1.17731281432384       -3.22160828483243       -0.90205596256985
H           -2.57999428738486       -2.52589999320581       -0.06318414171931
H            1.36971123388212       -2.93919829086477        0.09770994755936
25
 energy: -2.330460967839 xtb: 6.6.1 (8d0f1dd)
C            3.19795434912397        1.20000807427548        0.19844396338873
N            2.33862628935841        0.10022203749425       -0.15918381295976
C            2.62696728855742       -1.22449141358548        0.02532783996856
N            1.45052152009304       -1.94153436394451        0.03337010630581
C            0.40863375907165       -1.06518034559236       -0.07053526833975
C            0.94472978946648        0.21685284276850       -0.17302501834614
C            0.16139647922444        1.38382116229856       -0.20283178807248
O            0.53844731841467        2.56661936892337       -0.24248579534902
N           -1.23297088081866        1.02762771346978       -0.13113039151881
C           -2.18509296072843        2.13129633968575       -0.06557902756304
C           -1.80859995764536       -0.19720899116960       -0.07995117692296
O           -3.01015470966515       -0.37180633055275       -0.04392985127940
N           -0.92615818863361       -1.32379230094304       -0.04823498662690
C           -1.50964792298919       -2.64770370850585       -0.01745151107777
H            3.96343685543519        0.82350624774952        0.93725114799010
H            3.69221367504951        1.59048984922443       -0.74170345495755
H            2.58313163117392        2.03408027523558        0.63222365582583
H            3.59574109259388       -1.66840784408560        0.00831769947571
H           -1.62558502704916        3.06691414860013       -0.10240005178357
H           -2.87744998480768        2.07892086073405       -0.90756390500368
H           -2.74968116828680        2.06889471310283        0.86806995155218
H           -1.25317265159901       -3.17983049984739        0.90207375217648
H           -1.19451513468875       -3.23796276152033       -0.88165179148654
H           -2.58826156316820       -2.50519799836775       -0.05449585559282
H            1.37170477045338       -2.93710847327550        0.14410946634403
25
 energy: -3.462179465203 xtb: 6.6.1 (8d0f1dd)
C            3.21253181579666        1.20677980913885        0.20121701210847
N            2.35389649396510        0.09990210060144       -0.16323856097890
C            2.62986013084352       -1.24526921339786        0.03124308599566
N            1.44139087974541       -1.93540429201101        0.03030264827237
C            0.41737948386750       -1.06427274617754       -0.07662988237577
C            0.95053828867061        0.22195948323830       -0.17836469512657
C            0.15454070971177        1.37404128828835       -0.21049180757682
O            0.47408239611143        2.56679711922513       -0.24932778575648
N           -1.25325922779156        1.01520972188148       -0.13425000600219
C           -2.18596572624243        2.12614267129396       -0.06423880326278
C           -1.80618315243389       -0.21372911697465       -0.08081845837184
O           -3.00329987202566       -0.41382261421781       -0.04135942662654
N           -0.92000168022681       -1.31847498744860       -0.05324453314086
C           -1.50912450392025       -2.63669254948900       -0.01733308577191
H            3.97414537820928        0.85373446268628        0.93706827383935
H            3.71924879485035        1.62204150823978       -0.72477533519252
H            2.59539738629067        2.03189878643456        0.63544352539416
H            3.59174248519313       -1.70601311886610       -0.00213428473890
H           -1.58403785955082        3.03347425083215       -0.10220346845189
H           -2.88706761227491        2.09045739997135       -0.90078217276680
H           -2.74830901095470        2.08549932813336        0.87167702582238
H           -1.26289445368732       -3.16637964612450        0.90657407133025
H           -1.20410433646009       -3.23170689376943       -0.88182027141385
H           -2.58909033937689       -2.47530589058209       -0.05344934154586
H            1.35079819962584       -2.93183825873435        0.14797017248506
25
 energy: -3.187641537862 xtb: 6.6.1 (8d0f1dd)
C            3.20613535940758        1.20732243501346        0.22444693227120
N            2.35850465666696        0.10295095066091       -0.18925227701798
C            2.63324883986296       -1.24212370869504        0.03735884639603
N            1.44281843520066       -1.93450154210247        0.02918061600340
C            0.42171941298665       -1.06418668367126       -0.09677786889013
C            0.95417049232556        0.21889872458492       -0.21601716122680
C            0.14776917437695        1.36889863779014       -0.25377875639085
O            0.46992638189988        2.55871120220027       -0.30325477039312
N           -1.25164714210236        1.01307463214947       -0.15611676799774
C           -2.18046793576943        2.12611769511455       -0.06263274894996
C           -1.80325658644004       -0.21715710721403       -0.08681935395876
O           -3.00014127332985       -0.41860098463592       -0.03003287881860
N           -0.91593199259581       -1.31845925933737       -0.06389329114185
C           -1.51051451516900       -2.63341699135032       -0.01023055316142
H            3.99345940364621        0.82179202695562        0.90213676901304
H            3.67309807153541        1.69177775427431       -0.68354471445553
H            2.59047139227892        1.99331617308067        0.74733684766723
H            3.59281184932837       -1.70768914046725       -0.03128453608974
H           -1.57054226176397        3.02717279357387       -0.11777648767536
H           -2.90480912056260        2.09177093053155       -0.87928712277505
H           -2.71642534735285        2.08909693039368        0.88971170743837
H           -1.27222268901934       -3.15158908099425        0.92226202522880
H           -1.20879619696589       -3.24230549410641       -0.86584662051953
H           -2.58908571790858       -2.46402658797359       -0.05029015040493
H            1.35192197739951       -2.92781570360346        0.17143621199651
25