25
 energy: -1.943330057918 xtb: 6.6.1 (8d0f1dd)
C            3.37240809782206        1.12879056734759        0.09524367259202
N            2.33818190063481        0.13125472589421        0.01786400813106
C            2.58383447220710       -1.24814539402578        0.01364147773651
N            1.36498461881088       -1.89061757101812       -0.01499214949347
C            0.38301886593830       -0.97279387951397       -0.02038923445061
C            0.92032550250819        0.30835859469084        0.00291163264693
C            0.02415669734830        1.42854308980716        0.01213477746235
O            0.36190386244831        2.61144559374557        0.02197615226487
N           -1.40066218519107        1.05565228880212       -0.03373380378465
C           -2.36962726268384        2.13464789066838       -0.04645318868650
C           -1.92251516856410       -0.19361337546135       -0.07630416632874
O           -3.10072972598197       -0.46027855199278       -0.09775895232898
N           -0.95689829674990       -1.23170393396555       -0.04294045369358
C           -1.40557932751803       -2.60306886455836       -0.05160609360856
H            3.84422815067325        1.18751845167409        1.09642554954706
H            4.20992443706713        0.88036319420791       -0.58669901104582
H            2.95229149128576        2.09611681004224       -0.16445994656474
H            3.54102037629330       -1.73559765806392        0.02657495020484
H           -1.77723364061260        3.04621119779031       -0.01449620638253
H           -2.98728947616617        2.10299312765038       -0.94738652934406
H           -3.05024870630825        2.07402943134954        0.80812776882921
H           -1.07769022136865       -3.14385733191937        0.83913391690080
H           -1.06008425176100       -3.12451213862998       -0.94745641417253
H           -2.48481289029782       -2.56177156416663       -0.04862823790726
H            1.26049043840136       -2.89585161326186       -0.02307235713930
