      -----------------------------------------------------------      
     |                   =====================                   |     
     |                           x T B                           |     
     |                   =====================                   |     
     |                         S. Grimme                         |     
     |          Mulliken Center for Theoretical Chemistry        |     
     |                    University of Bonn                     |     
      -----------------------------------------------------------      

   * xtb version 6.6.1 (8d0f1dd) compiled by 'conda@1efc2f54142f' on 2023-08-01

   xtb is free software: you can redistribute it and/or modify it under
   the terms of the GNU Lesser General Public License as published by
   the Free Software Foundation, either version 3 of the License, or
   (at your option) any later version.
   
   xtb is distributed in the hope that it will be useful,
   but WITHOUT ANY WARRANTY; without even the implied warranty of
   MERCHANTABILITY or FITNESS FOR A PARTICULAR PURPOSE.  See the
   GNU Lesser General Public License for more details.
   
   Cite this work as:
   * C. Bannwarth, E. Caldeweyher, S. Ehlert, A. Hansen, P. Pracht,
     J. Seibert, S. Spicher, S. Grimme, WIREs Comput. Mol. Sci., 2020, 11,
     e01493. DOI: 10.1002/wcms.1493
   
   for GFN2-xTB:
   * C. Bannwarth, S. Ehlert and S. Grimme., J. Chem. Theory Comput., 2019,
     15, 1652-1671. DOI: 10.1021/acs.jctc.8b01176
   for GFN1-xTB:
   * S. Grimme, C. Bannwarth, P. Shushkov, J. Chem. Theory Comput., 2017,
     13, 1989-2009. DOI: 10.1021/acs.jctc.7b00118
   for GFN0-xTB:
   * P. Pracht, E. Caldeweyher, S. Ehlert, S. Grimme, ChemRxiv, 2019, preprint.
     DOI: 10.26434/chemrxiv.8326202.v1
   for GFN-FF:
   * S. Spicher and S. Grimme, Angew. Chem. Int. Ed., 2020, 59, 15665-15673.
     DOI: 10.1002/anie.202004239
   
   for ALPB and GBSA implicit solvation:
   * S. Ehlert, M. Stahn, S. Spicher, S. Grimme, J. Chem. Theory Comput.,
     2021, 17, 4250-4261. DOI: 10.1021/acs.jctc.1c00471
   
   for DFT-D4:
   * E. Caldeweyher, C. Bannwarth and S. Grimme, J. Chem. Phys., 2017,
     147, 034112. DOI: 10.1063/1.4993215
   * E. Caldeweyher, S. Ehlert, A. Hansen, H. Neugebauer, S. Spicher,
     C. Bannwarth and S. Grimme, J. Chem. Phys., 2019, 150, 154122.
     DOI: 10.1063/1.5090222
   * E. Caldeweyher, J.-M. Mewes, S. Ehlert and S. Grimme, Phys. Chem. Chem. Phys.
     2020, 22, 8499-8512. DOI: 10.1039/D0CP00502A
   
   for sTDA-xTB:
   * S. Grimme and C. Bannwarth, J. Chem. Phys., 2016, 145, 054103.
     DOI: 10.1063/1.4959605
   
   in the mass-spec context:
   * V. Asgeirsson, C. Bauer and S. Grimme, Chem. Sci., 2017, 8, 4879.
     DOI: 10.1039/c7sc00601b
   * J. Koopman and S. Grimme, ACS Omega 2019, 4, 12, 15120-15133.
     DOI: 10.1021/acsomega.9b02011
   
   for metadynamics refer to:
   * S. Grimme, J. Chem. Theory Comput., 2019, 155, 2847-2862
     DOI: 10.1021/acs.jctc.9b00143
   
   for SPH calculations refer to:
   * S. Spicher and S. Grimme, J. Chem. Theory Comput., 2021, 17, 1701-1714
     DOI: 10.1021/acs.jctc.0c01306
   
   with help from (in alphabetical order)
   P. Atkinson, C. Bannwarth, F. Bohle, G. Brandenburg, E. Caldeweyher
   M. Checinski, S. Dohm, S. Ehlert, S. Ehrlich, I. Gerasimov, C. Hölzer
   A. Katbashev, J. Koopman, C. Lavigne, S. Lehtola, F. März, M. Müller,
   F. Musil, H. Neugebauer, J. Pisarek, C. Plett, P. Pracht, F. Pultar,
   J. Seibert, P. Shushkov, S. Spicher, M. Stahn, M. Steiner, T. Strunk,
   J. Stückrath, T. Rose, and J. Unsleber
   
 * started run on 2024/04/06 at 11:14:37.499     

           -------------------------------------------------
          |                Calculation Setup                |
           -------------------------------------------------

          program call               : xtb xtbopt.xyz --opt crude --input .xc2 --gfn2
          hostname                   : n-62-30-23
          coordinate file            : xtbopt.xyz
          omp threads                :                     1

   ID    Z sym.   atoms
    1    7 N      1, 17
    2    6 C      2-6, 8, 9, 11-16, 18-23, 25, 26, 28-33
    3    8 O      7, 10, 24, 27
    4    1 H      34-72

molecular fragmentation (1/2 indicates fragments):
111111111111111111111111111111111111111111111111111111111111211111111111
# atoms in fragment 1/2:    71     1
 fragment masses (1/2) :      454.60        1.01
CMA distance (Bohr)    :   6.272
constraining FC (au)   :  0.0500
########################################################################
[WARNING] Please study the warnings concerning your input carefully
-1- readin_getIntValue: could not parse ''
########################################################################

           -------------------------------------------------
          |                 G F N 2 - x T B                 |
           -------------------------------------------------

        Reference                      10.1021/acs.jctc.8b01176
      * Hamiltonian:
        H0-scaling (s, p, d)           1.850000    2.230000    2.230000
        zeta-weighting                 0.500000
      * Dispersion:
        s8                             2.700000
        a1                             0.520000
        a2                             5.000000
        s9                             5.000000
      * Repulsion:
        kExp                           1.500000    1.000000
        rExp                           1.000000
      * Coulomb:
        alpha                          2.000000
        third order                    shell-resolved
        anisotropic                    true
        a3                             3.000000
        a5                             4.000000
        cn-shift                       1.200000
        cn-exp                         4.000000
        max-rad                        5.000000

q/qsh data taken from xtbrestart
CAMM data taken from xtbrestart

          ...................................................
          :                      SETUP                      :
          :.................................................:
          :  # basis functions                 171          :
          :  # atomic orbitals                 171          :
          :  # shells                          105          :
          :  # electrons                       180          :
          :  max. iterations                   250          :
          :  Hamiltonian                  GFN2-xTB          :
          :  restarted?                       true          :
          :  GBSA solvation                  false          :
          :  PC potential                    false          :
          :  electronic temp.         5000.0000000     K    :
          :  accuracy                    1.0000000          :
          :  -> integral cutoff          0.2500000E+02      :
          :  -> integral neglect         0.1000000E-07      :
          :  -> SCF convergence          0.1000000E-05 Eh   :
          :  -> wf. convergence          0.1000000E-03 e    :
          :  Broyden damping             0.4000000          :
          ...................................................

 iter      E             dE          RMSdq      gap      omega  full diag
   1   -100.6206784 -0.100621E+03  0.446E-05    0.36       0.0  T
   2   -100.6206784  0.287488E-08  0.153E-04    0.36      77.1  T
   3   -100.6206784 -0.312411E-08  0.125E-05    0.36     944.1  T

   *** convergence criteria satisfied after 3 iterations ***

         #    Occupation            Energy/Eh            Energy/eV
      -------------------------------------------------------------
         1        2.0000           -0.8162304             -22.2108
       ...           ...                  ...                  ...
        84        1.9919           -0.5161776             -14.0459
        85        1.9730           -0.4969672             -13.5232
        86        1.9581           -0.4898839             -13.3304
        87        1.9155           -0.4784205             -13.0185
        88        1.8168           -0.4653402             -12.6626
        89        1.7523           -0.4599913             -12.5170
        90        1.3785           -0.4416242             -12.0172 (HOMO)
        91        0.9780           -0.4283122             -11.6550 (LUMO)
        92        0.2571           -0.3987042             -10.8493
        93        0.0107           -0.3462461              -9.4218
        94        0.0024           -0.3227760              -8.7832
        95        0.0020           -0.3199282              -8.7057
       ...           ...                  ...                  ...
       171                          0.5703792              15.5208
      -------------------------------------------------------------
                  HL-Gap            0.0133121 Eh            0.3622 eV
             Fermi-level           -0.4290090 Eh          -11.6739 eV

 SCC (total)                   0 d,  0 h,  0 min,  0.119 sec
 SCC setup                      ...        0 min,  0.001 sec (  0.808%)
 Dispersion                     ...        0 min,  0.002 sec (  1.454%)
 classical contributions        ...        0 min,  0.000 sec (  0.361%)
 integral evaluation            ...        0 min,  0.018 sec ( 15.350%)
 iterations                     ...        0 min,  0.028 sec ( 23.371%)
 molecular gradient             ...        0 min,  0.069 sec ( 58.120%)
 printout                       ...        0 min,  0.001 sec (  0.524%)

         :::::::::::::::::::::::::::::::::::::::::::::::::::::
         ::                     SUMMARY                     ::
         :::::::::::::::::::::::::::::::::::::::::::::::::::::
         :: total energy             -99.252400346761 Eh    ::
         :: gradient norm              0.002942280821 Eh/a0 ::
         :: HOMO-LUMO gap              0.362239453177 eV    ::
         ::.................................................::
         :: SCC energy              -100.620678423638 Eh    ::
         :: -> isotropic ES            0.113950319180 Eh    ::
         :: -> anisotropic ES         -0.000477223830 Eh    ::
         :: -> anisotropic XC          0.043664185411 Eh    ::
         :: -> dispersion             -0.076925855164 Eh    ::
         :: repulsion energy           1.366940765897 Eh    ::
         :: add. restraining           0.000000000000 Eh    ::
         :: total charge               1.000000000313 e     ::
         :::::::::::::::::::::::::::::::::::::::::::::::::::::

      ----------------------------------------------------------- 
     |                   =====================                   |
     |                        A N C O P T                        |
     |                   =====================                   |
     |               Approximate Normal Coordinate               |
     |                Rational Function Optimizer                |
      ----------------------------------------------------------- 

          ...................................................
          :                      SETUP                      :
          :.................................................:
          :   optimization level             crude          :
          :   max. optcycles                   200          :
          :   ANC micro-cycles                  20          :
          :   degrees of freedom               210          :
          :.................................................:
          :   RF solver                   davidson          :
          :   write xtbopt.log                true          :
          :   linear?                        false          :
          :   energy convergence         0.5000000E-03 Eh   :
          :   grad. convergence          0.1000000E-01 Eh/α :
          :   maxmium RF displ.          1.0000000          :
          :   Hlow (freq-cutoff)         0.1000000E-01      :
          :   Hmax (freq-cutoff)         5.0000000          :
          :   S6 in model hess.         20.0000000          :
          ...................................................

generating ANC from model Hessian ...
Using Lindh-Hessian (1995)
 Shifting diagonal of input Hessian by    1.0733728548984698E-002
 Lowest  eigenvalues of input Hessian
    0.010000    0.010506    0.000000    0.000000    0.000000    0.000000
    0.000000    0.000000    0.010781    0.010789    0.010896    0.010982
    0.011051    0.011202    0.011385    0.011402    0.011606    0.011666
 Highest eigenvalues
    2.017859    2.043584    2.045553    2.117093    2.185130    2.186582


........................................................................
.............................. CYCLE    1 ..............................
........................................................................

 iter      E             dE          RMSdq      gap      omega  full diag
   1   -100.6206784 -0.100621E+03  0.103E-05    0.36       0.0  T
   2   -100.6206784  0.741807E-11  0.105E-05    0.36    1120.0  T
   3   -100.6206784 -0.602540E-11  0.828E-06    0.36    1423.7  T
     SCC iter.                  ...        0 min,  0.026 sec
     gradient                   ...        0 min,  0.069 sec
 * total energy  :   -99.2524003 Eh     change       -0.8100187E-12 Eh
   gradient norm :     0.0029421 Eh/α   predicted     0.0000000E+00 (-100.00%)
   displ. norm   :     0.0986023 α      lambda       -0.1288046E-03
   maximum displ.:     0.0675023 α      in ANC's #8, #9, #1, ...

   *** GEOMETRY OPTIMIZATION CONVERGED AFTER 1 ITERATIONS ***

------------------------------------------------------------------------
 total energy gain   :        -0.0000000 Eh       -0.0000 kcal/mol
 total RMSD          :         0.0000000 a0        0.0000 Å
 total power (kW/mol):        -0.0000000 (step)   -0.0000 (real)
------------------------------------------------------------------------

 ANCopt (total)                0 d,  0 h,  0 min,  0.177 sec
 optimizer setup                ...        0 min,  0.000 sec (  0.156%)
 model hessian                  ...        0 min,  0.051 sec ( 28.745%)
 ANC generation                 ...        0 min,  0.006 sec (  3.603%)
 coordinate transformation      ...        0 min,  0.000 sec (  0.027%)
 single point calculation       ...        0 min,  0.117 sec ( 65.926%)
 optimization log               ...        0 min,  0.002 sec (  1.065%)
 hessian update                 ...        0 min,  0.000 sec (  0.001%)
 rational function              ...        0 min,  0.000 sec (  0.105%)

================
 final structure:
================
72
 xtb: 6.6.1 (8d0f1dd)
N           -1.86675247615798        2.80667908164467        2.21243124044301
C           -1.84210204497764        2.05366550409736        1.21830529845413
C           -2.99368382427207        1.84880102446900        0.27260419079729
C           -3.47425028482610        0.40793334644361        0.37016351955134
C           -4.40629565809467       -0.07671392706701       -0.54938343107600
C           -4.87786306083439       -1.37802091705825       -0.48444042875729
O           -5.78055930597200       -1.92262196118102       -1.32232728827678
C           -6.39033033107258       -1.11809178555411       -2.30441416221860
C           -4.39395185959356       -2.24908210605963        0.53195514666460
O           -4.89432713383304       -3.49663082311631        0.50931553896881
C           -4.50009166218791       -4.41676928136368        1.50157591235235
C           -3.47389203321208       -1.75742018868628        1.44593827087441
C           -3.02544597600606       -0.44653956643493        1.36727580261460
C           -2.43546870470040        2.12134564646085       -1.14896254150379
C           -1.48165106940576        1.03648346361658       -1.67146129086085
C           -0.13151937133001        1.09323302566530       -1.06691795405590
N            0.63300590647159        0.06131482894844       -0.79164493692737
C            2.01068602319590        0.25370544956840       -0.40899946466004
C            2.96187694209744        0.11198148100966       -1.60821393893019
C            4.37976058041517        0.17560589530603       -1.11625596561752
C            5.20479463715176        1.28131839797567       -1.33651624984954
C            6.48959617845667        1.32548310558632       -0.81903086830418
C            7.00385797573209        0.27739237007160       -0.06535007419820
O            8.22016075919727        0.22090410298621        0.49587659714308
C            9.09643257474509        1.31789128506725        0.36089341682326
C            6.17864986113690       -0.87609706536523        0.15244922995473
O            6.69206445168481       -1.88427917357679        0.86514621288311
C            5.86431873074831       -3.02054377065609        0.99595654268348
C            4.91906350397232       -0.84332015506504       -0.38001427006589
C            0.17132115927910       -1.30259653362466       -0.87646088727238
C           -4.20028228482541        2.79252160140061        0.55578709851249
C           -4.83294148746689        2.49775874178671        1.91341188617896
C           -3.84324463225549        4.27355994939639        0.46504427398100
H           -4.77892975930901        0.57660651126693       -1.32076107610891
H           -6.91796501032286       -0.27059443798854       -1.85677210616021
H           -7.10774067121456       -1.76443355768395       -2.80614229880920
H           -5.66178299513644       -0.75318065325396       -3.03555303998157
H           -4.78007208492021       -4.07156409313890        2.50100094385802
H           -5.03472822997166       -5.33685911076688        1.27432125763253
H           -3.42273394627620       -4.60541467999400        1.46806425473377
H           -3.10409170567773       -2.38723283235297        2.23831764216505
H           -2.33157797921425       -0.09523987005604        2.11473729851807
H           -3.27306395716526        2.20169691780255       -1.84088146198974
H           -1.91849033944201        3.08157437963143       -1.14661726894678
H           -1.93821058918683        0.05378807596642       -1.55663197719813
H           -1.35190850239120        1.21153876007432       -2.74784135174234
H           -0.94720071167020        1.48322364815242        0.90123037483036
H            0.32774917350489        2.06889976904831       -0.98096703182067
H            2.27602709505150       -0.52657010163634        0.33318669768905
H            2.13718008929900        1.23901946680987        0.04401578958200
H            2.77129806351803        0.90607673446383       -2.33251068324193
H            2.79318004973628       -0.85421406929759       -2.08755403130367
H            4.83763048139626        2.11027670430897       -1.92255297795889
H            7.09536112193752        2.19624894073926       -1.01242137970938
H            8.66750454302345        2.22578791858628        0.79492386457419
H            9.35246473435745        1.49758450664949       -0.68713434961832
H            9.99437825332795        1.04313407904189        0.91054135053451
H            6.37186133468152       -3.69526859502783        1.68181934423255
H            4.88026808914554       -2.74381262789545        1.38981111364246
H            5.72814217260798       -3.50907591732880        0.02561645672591
H            2.34042580031428       -2.10966711272392        1.05253879878358
H            0.17989239373364       -1.66157283745739       -1.90881097300077
H           -0.84216895383913       -1.38988682037178       -0.47924063955838
H            0.83800176021681       -1.93152894636127       -0.27592919658217
H           -4.94781020602472        2.57833913573757       -0.21670129825472
H           -4.12812997291145        2.71908589142842        2.70869666809619
H           -5.13588355454453        1.45624385050932        1.98914233408647
H           -5.71291206104382        3.12114947745773        2.04832682161053
H           -3.07979947934865        4.52343109153943        1.19541484801152
H           -3.49670172722059        4.54996973800643       -0.52721723532814
H           -4.72770811161755        4.86616880629443        0.68348820980107
H           -1.02617509363769        2.89156033562421        2.77457472449575

 Bond Distances (Angstroems)
 ---------------------------
N1-C2=1.2474         N1-H72=1.0148        C2-N1=1.2474         C2-C3=1.5041         C2-H47=1.1076        C3-C2=1.5041         
C3-C4=1.5220         C3-C14=1.5514        C3-C31=1.5578        C4-C3=1.5220         C4-C5=1.3961         C4-C13=1.3877        
C5-C4=1.3961         C5-C6=1.3856         C5-H34=1.0774        C6-C5=1.3856         C6-O7=1.3467         C6-C9=1.4234         
O7-C6=1.3467         O7-C8=1.4084         C8-O7=1.4084         C8-H35=1.0941        C8-H36=1.0882        C8-H37=1.0948        
C9-C6=1.4234         C9-O10=1.3443        C9-C12=1.3869        O10-C9=1.3443        O10-C11=1.4095       C11-O10=1.4095       
C11-H38=1.0938       C11-H39=1.0881       C11-H40=1.0943       C12-C9=1.3869        C12-C13=1.3877       C12-H41=1.0776       
C13-C4=1.3877        C13-C12=1.3877       C13-H42=1.0787       C14-C3=1.5514        C14-C15=1.5361       C14-H43=1.0894       
C14-H44=1.0906       C15-C14=1.5361       C15-C16=1.4804       C15-H45=1.0896       C15-H46=1.0982       C16-C15=1.4804       
C16-N17=1.3134       C16-H48=1.0818       N17-C16=1.3134       N17-C18=1.4427       N17-C30=1.4424       C18-N17=1.4427       
C18-C19=1.5372       C18-H49=1.1091       C18-H50=1.0918       C19-C18=1.5372       C19-C20=1.5022       C19-H51=1.0916       
C19-H52=1.0917       C20-C19=1.5022       C20-C21=1.3971       C20-C29=1.3679       C21-C20=1.3971       C21-C22=1.3858       
C21-H53=1.0795       C22-C21=1.3858       C22-C23=1.3896       C22-H54=1.0782       C23-C22=1.3896       C23-O24=1.3407       
C23-C26=1.4349       O24-C23=1.3407       O24-C25=1.4105       C25-O24=1.4105       C25-H55=1.0939       C25-H56=1.0937       
C25-H57=1.0881       C26-C23=1.4349       C26-O27=1.3371       C26-C29=1.3679       O27-C26=1.3371       O27-C28=1.4119       
C28-O27=1.4119       C28-H58=1.0878       C28-H59=1.0955       C28-H60=1.0949       C29-C20=1.3679       C29-C26=1.3679       
C30-N17=1.4424       C30-H62=1.0930       C30-H63=1.0920       C30-H64=1.0957       C31-C3=1.5578        C31-C32=1.5265       
C31-C33=1.5262       C31-H65=1.0961       C32-C31=1.5265       C32-H66=1.0855       C32-H67=1.0873       C32-H68=1.0868       
C33-C31=1.5262       C33-H69=1.0857       C33-H70=1.0868       C33-H71=1.0868       H34-C5=1.0774        H35-C8=1.0941        
H36-C8=1.0882        H37-C8=1.0948        H38-C11=1.0938       H39-C11=1.0881       H40-C11=1.0943       H41-C12=1.0776       
H42-C13=1.0787       H43-C14=1.0894       H44-C14=1.0906       H45-C15=1.0896       H46-C15=1.0982       H47-C2=1.1076        
H48-C16=1.0818       H49-C18=1.1091       H50-C18=1.0918       H51-C19=1.0916       H52-C19=1.0917       H53-C21=1.0795       
H54-C22=1.0782       H55-C25=1.0939       H56-C25=1.0937       H57-C25=1.0881       H58-C28=1.0878       H59-C28=1.0955       
H60-C28=1.0949       H62-C30=1.0930       H63-C30=1.0920       H64-C30=1.0957       H65-C31=1.0961       H66-C32=1.0855       
H67-C32=1.0873       H68-C32=1.0868       H69-C33=1.0857       H70-C33=1.0868       H71-C33=1.0868       H72-N1=1.0148        
 C  H  Rav=1.0902 sigma=0.0070  Rmin=1.0774  Rmax=1.1091    37
 C  C  Rav=1.4525 sigma=0.0687  Rmin=1.3679  Rmax=1.5578    22
 N  H  Rav=1.0148 sigma=0.0000  Rmin=1.0148  Rmax=1.0148     1
 N  C  Rav=1.3615 sigma=0.0844  Rmin=1.2474  Rmax=1.4427     4
 O  C  Rav=1.3761 sigma=0.0340  Rmin=1.3371  Rmax=1.4119     8

 selected bond angles (degree)
 --------------------
H72-N1-C2=118.40               C3-C2-N1=124.62                H47-C2-N1=123.71               H47-C2-C3=111.62               
C4-C3-C2=109.29                C14-C3-C2=106.06               C14-C3-C4=109.80               C31-C3-C2=113.34               
C31-C3-C4=108.50               C31-C3-C14=109.81              C5-C4-C3=119.81                C13-C4-C3=121.79               
C13-C4-C5=118.39               C6-C5-C4=121.49                H34-C5-C4=119.47               H34-C5-C6=119.04               
O7-C6-C5=125.36                C9-C6-C5=119.50                C9-C6-O7=115.13                C8-O7-C6=119.54                
H35-C8-O7=111.47               H36-C8-O7=105.52               H36-C8-H35=109.32              H37-C8-O7=111.59               
H37-C8-H35=109.63              H37-C8-H36=109.20              O10-C9-C6=115.43               C12-C9-C6=118.63               
C12-C9-O10=125.94              C11-O10-C9=119.33              

 selected dihedral angles (degree)
 ---------------------------------
C3-C2-N1-H72=181.51           H47-C2-N1-H72=358.88          C4-C3-C2-N1=245.15            C4-C3-C2-H47= 67.50           
C14-C3-C2-N1=126.84           C14-C3-C2-H47=309.19          C31-C3-C2-N1=  6.29           C31-C3-C2-H47=188.64          
C5-C4-C3-C2=189.26            C5-C4-C3-C14=305.21           C5-C4-C3-C31= 65.22           C13-C4-C3-C2= 10.20           
C13-C4-C3-C14=126.15          C13-C4-C3-C31=246.16          C6-C5-C4-C3=180.68            C6-C5-C4-C13=359.77           
H34-C5-C4-C3=359.89           H34-C5-C4-C13=178.99          O7-C6-C5-C4=179.53            O7-C6-C5-H34=  0.32           
C9-C6-C5-C4=359.32            C9-C6-C5-H34=180.10           C8-O7-C6-C5=355.38            C8-O7-C6-C9=175.59            
H35-C8-O7-C6=301.66           H36-C8-O7-C6=183.10           H37-C8-O7-C6= 64.62           O10-C9-C6-C5=180.75           
O10-C9-C6-O7=  0.55           C12-C9-C6-C5=  1.02           C12-C9-C6-O7=180.83           C11-O10-C9-C6=181.78          
C11-O10-C9-C12=  1.48         

 CMA Distance (Angstroems)
 ---------------------------
R(CMA):  3.3188
           -------------------------------------------------
          |                Final Singlepoint                |
           -------------------------------------------------

          ...................................................
          :                      SETUP                      :
          :.................................................:
          :  # basis functions                 171          :
          :  # atomic orbitals                 171          :
          :  # shells                          105          :
          :  # electrons                       180          :
          :  max. iterations                   250          :
          :  Hamiltonian                  GFN2-xTB          :
          :  restarted?                      false          :
          :  GBSA solvation                  false          :
          :  PC potential                    false          :
          :  electronic temp.         5000.0000000     K    :
          :  accuracy                    1.0000000          :
          :  -> integral cutoff          0.2500000E+02      :
          :  -> integral neglect         0.1000000E-07      :
          :  -> SCF convergence          0.1000000E-05 Eh   :
          :  -> wf. convergence          0.1000000E-03 e    :
          :  Broyden damping             0.4000000          :
          ...................................................

 iter      E             dE          RMSdq      gap      omega  full diag
   1   -100.6206784 -0.100621E+03  0.525E-06    0.36       0.0  T
   2   -100.6206784  0.232063E-10  0.141E-05    0.36     834.7  T
   3   -100.6206784 -0.251532E-10  0.247E-06    0.36    4780.7  T

   *** convergence criteria satisfied after 3 iterations ***

         #    Occupation            Energy/Eh            Energy/eV
      -------------------------------------------------------------
         1        2.0000           -0.8162305             -22.2108
       ...           ...                  ...                  ...
        84        1.9919           -0.5161777             -14.0459
        85        1.9730           -0.4969673             -13.5232
        86        1.9581           -0.4898838             -13.3304
        87        1.9155           -0.4784206             -13.0185
        88        1.8168           -0.4653403             -12.6626
        89        1.7523           -0.4599913             -12.5170
        90        1.3785           -0.4416241             -12.0172 (HOMO)
        91        0.9780           -0.4283120             -11.6550 (LUMO)
        92        0.2571           -0.3987041             -10.8493
        93        0.0107           -0.3462461              -9.4218
        94        0.0024           -0.3227761              -8.7832
        95        0.0020           -0.3199283              -8.7057
       ...           ...                  ...                  ...
       171                          0.5703792              15.5208
      -------------------------------------------------------------
                  HL-Gap            0.0133121 Eh            0.3622 eV
             Fermi-level           -0.4290089 Eh          -11.6739 eV

 SCC (total)                   0 d,  0 h,  0 min,  0.117 sec
 SCC setup                      ...        0 min,  0.001 sec (  0.744%)
 Dispersion                     ...        0 min,  0.002 sec (  1.351%)
 classical contributions        ...        0 min,  0.000 sec (  0.374%)
 integral evaluation            ...        0 min,  0.018 sec ( 15.281%)
 iterations                     ...        0 min,  0.026 sec ( 22.613%)
 molecular gradient             ...        0 min,  0.069 sec ( 59.087%)
 printout                       ...        0 min,  0.001 sec (  0.537%)

         :::::::::::::::::::::::::::::::::::::::::::::::::::::
         ::                     SUMMARY                     ::
         :::::::::::::::::::::::::::::::::::::::::::::::::::::
         :: total energy             -99.252400346768 Eh    ::
         :: gradient norm              0.002942304928 Eh/a0 ::
         :: HOMO-LUMO gap              0.362240153746 eV    ::
         ::.................................................::
         :: SCC energy              -100.620678423645 Eh    ::
         :: -> isotropic ES            0.113950212707 Eh    ::
         :: -> anisotropic ES         -0.000477215565 Eh    ::
         :: -> anisotropic XC          0.043664187171 Eh    ::
         :: -> dispersion             -0.076925833115 Eh    ::
         :: repulsion energy           1.366940765897 Eh    ::
         :: add. restraining           0.000000000000 Eh    ::
         :: total charge               1.000000000313 e     ::
         :::::::::::::::::::::::::::::::::::::::::::::::::::::

           -------------------------------------------------
          |                Property Printout                |
           -------------------------------------------------

    * Orbital Energies and Occupations

         #    Occupation            Energy/Eh            Energy/eV
      -------------------------------------------------------------
         1        2.0000           -0.8162305             -22.2108
       ...           ...                  ...                  ...
        78        1.9975           -0.5348888             -14.5551
        79        1.9974           -0.5340023             -14.5309
        80        1.9971           -0.5324670             -14.4892
        81        1.9962           -0.5281468             -14.3716
        82        1.9941           -0.5212153             -14.1830
        83        1.9932           -0.5188467             -14.1185
        84        1.9919           -0.5161777             -14.0459
        85        1.9730           -0.4969673             -13.5232
        86        1.9581           -0.4898838             -13.3304
        87        1.9155           -0.4784206             -13.0185
        88        1.8168           -0.4653403             -12.6626
        89        1.7523           -0.4599913             -12.5170
        90        1.3785           -0.4416241             -12.0172 (HOMO)
        91        0.9780           -0.4283120             -11.6550 (LUMO)
        92        0.2571           -0.3987041             -10.8493
        93        0.0107           -0.3462461              -9.4218
        94        0.0024           -0.3227761              -8.7832
        95        0.0020           -0.3199283              -8.7057
        96        0.0018           -0.3178251              -8.6485
        97        0.0010           -0.3085603              -8.3964
        98        0.0000           -0.1973514              -5.3702
        99        0.0000           -0.1882076              -5.1214
       100                         -0.1329179              -3.6169
       101                         -0.0743205              -2.0224
       ...                                ...                  ...
       171                          0.5703792              15.5208
      -------------------------------------------------------------
                  HL-Gap            0.0133121 Eh            0.3622 eV
             Fermi-level           -0.4290089 Eh          -11.6739 eV

     #   Z          covCN         q      C6AA      α(0)
     1   7 N        1.774    -0.260    27.586     7.778
     2   6 C        2.827     0.102    25.723     8.311
     3   6 C        3.907     0.007    20.405     6.421
     4   6 C        2.974     0.003    27.947     8.671
     5   6 C        2.920    -0.079    29.978     8.979
     6   6 C        2.862     0.132    25.117     8.215
     7   8 O        1.706    -0.223    17.706     5.681
     8   6 C        3.644     0.026    20.478     6.505
     9   6 C        2.864     0.132    25.107     8.213
    10   8 O        1.706    -0.220    17.650     5.672
    11   6 C        3.645     0.024    20.506     6.508
    12   6 C        2.913    -0.071    29.761     8.946
    13   6 C        2.921    -0.049    29.224     8.865
    14   6 C        3.813    -0.066    21.758     6.639
    15   6 C        3.802    -0.070    21.833     6.652
    16   6 C        2.847     0.017    27.622     8.614
    17   7 N        2.729     0.039    20.567     6.735
    18   6 C        3.760    -0.027    21.111     6.550
    19   6 C        3.807    -0.062    21.687     6.629
    20   6 C        2.966     0.020    27.568     8.612
    21   6 C        2.933    -0.043    29.063     8.841
    22   6 C        2.911    -0.071    29.770     8.947
    23   6 C        2.869     0.137    25.004     8.197
    24   8 O        1.706    -0.211    17.500     5.648
    25   6 C        3.646     0.023    20.525     6.511
    26   6 C        2.878     0.149    24.773     8.159
    27   8 O        1.705    -0.205    17.408     5.633
    28   6 C        3.664     0.024    20.437     6.484
    29   6 C        2.017    -0.092    33.558     9.356
    30   6 C        3.700    -0.078    22.160     6.732
    31   6 C        3.853    -0.008    20.676     6.467
    32   6 C        3.756    -0.119    22.833     6.813
    33   6 C        3.755    -0.120    22.848     6.816
    34   1 H        0.926     0.054     2.275     2.358
    35   1 H        0.924     0.056     2.243     2.342
    36   1 H        0.925     0.084     1.937     2.177
    37   1 H        0.924     0.050     2.320     2.382
    38   1 H        0.924     0.059     2.211     2.325
    39   1 H        0.925     0.084     1.935     2.175
    40   1 H        0.924     0.054     2.265     2.353
    41   1 H        0.926     0.059     2.206     2.323
    42   1 H        0.926     0.045     2.383     2.414
    43   1 H        0.925     0.062     2.174     2.306
    44   1 H        0.924     0.056     2.249     2.345
    45   1 H        0.925     0.070     2.082     2.257
    46   1 H        0.923     0.086     1.917     2.165
    47   1 H        0.922     0.011     2.875     2.652
    48   1 H        0.925     0.076     2.018     2.221
    49   1 H        0.922     0.113     1.669     2.020
    50   1 H        0.924     0.063     2.170     2.304
    51   1 H        0.924     0.051     2.312     2.378
    52   1 H        0.924     0.069     2.101     2.267
    53   1 H        0.926     0.060     2.204     2.322
    54   1 H        0.926     0.066     2.125     2.279
    55   1 H        0.924     0.059     2.214     2.327
    56   1 H        0.924     0.060     2.194     2.317
    57   1 H        0.925     0.087     1.906     2.159
    58   1 H        0.925     0.082     1.959     2.189
    59   1 H        0.924     0.071     2.078     2.254
    60   1 H        0.924     0.062     2.176     2.307
    61   1 H        0.000    -0.297    55.128    13.576
    62   1 H        0.924     0.081     1.970     2.195
    63   1 H        0.924     0.076     2.017     2.221
    64   1 H        0.924     0.111     1.690     2.033
    65   1 H        0.924     0.040     2.454     2.450
    66   1 H        0.925     0.070     2.084     2.258
    67   1 H        0.925     0.037     2.490     2.467
    68   1 H        0.925     0.054     2.274     2.358
    69   1 H        0.925     0.063     2.163     2.300
    70   1 H        0.925     0.036     2.502     2.474
    71   1 H        0.925     0.057     2.235     2.338
    72   1 H        0.860     0.163     1.319     1.799

 Mol. C6AA /au·bohr⁶  :      49627.385466
 Mol. C8AA /au·bohr⁸  :    1118262.158246
 Mol. α(0) /au        :        344.187637


Wiberg/Mayer (AO) data.
largest (>0.10) Wiberg bond orders for each atom

 ---------------------------------------------------------------------------
     #   Z sym  total        # sym  WBO       # sym  WBO       # sym  WBO
 ---------------------------------------------------------------------------
     1   7 N    3.042 --     2 C    1.962    72 H    0.939
     2   6 C    3.933 --     1 N    1.962     3 C    0.993    47 H    0.899
     3   6 C    3.972 --     2 C    0.993     4 C    0.970    14 C    0.956
                            31 C    0.942
     4   6 C    3.936 --    13 C    1.406     5 C    1.371     3 C    0.970
     5   6 C    3.956 --     6 C    1.396     4 C    1.371    34 H    0.957
     6   6 C    3.894 --     5 C    1.396     9 C    1.213     7 O    1.107
     7   8 O    2.253 --     6 C    1.107     8 C    0.977
     8   6 C    3.929 --     7 O    0.977    36 H    0.976    35 H    0.973
                            37 H    0.972
     9   6 C    3.889 --    12 C    1.383     6 C    1.213    10 O    1.113
    10   8 O    2.254 --     9 C    1.113    11 C    0.975
    11   6 C    3.926 --    39 H    0.976    10 O    0.975    40 H    0.972
                            38 H    0.972
    12   6 C    3.955 --    13 C    1.412     9 C    1.383    41 H    0.963
    13   6 C    3.944 --    12 C    1.412     4 C    1.406    42 H    0.961
    14   6 C    3.978 --    15 C    0.989    44 H    0.971    43 H    0.968
                             3 C    0.956
    15   6 C    3.986 --    16 C    1.058    14 C    0.989    45 H    0.956
                            46 H    0.922
    16   6 C    3.692 --    17 N    1.477    15 C    1.058    48 H    0.955
    17   7 N    3.563 --    16 C    1.477    30 C    0.997    18 C    0.986
    18   6 C    3.893 --    17 N    0.986    50 H    0.967    19 C    0.965
                            49 H    0.896
    19   6 C    3.965 --    20 C    1.000    51 H    0.973    18 C    0.965
                            52 H    0.964
    20   6 C    3.900 --    29 C    1.425    21 C    1.334    19 C    1.000
    21   6 C    3.867 --    22 C    1.430    20 C    1.334    53 H    0.956
    22   6 C    3.946 --    21 C    1.430    23 C    1.375    54 H    0.956
    23   6 C    3.821 --    22 C    1.375    26 C    1.157    24 O    1.122
    24   8 O    2.248 --    23 C    1.122    25 C    0.969
    25   6 C    3.917 --    57 H    0.976    55 H    0.972    56 H    0.971
                            24 O    0.969
    26   6 C    3.851 --    29 C    1.397    23 C    1.157    27 O    1.126
    27   8 O    2.247 --    26 C    1.126    28 C    0.968
    28   6 C    3.907 --    58 H    0.978    60 H    0.969    27 O    0.968
                            59 H    0.964
    29   6 C    3.068 --    20 C    1.425    26 C    1.397
    30   6 C    3.928 --    17 N    0.997    63 H    0.965    62 H    0.961
                            64 H    0.947
    31   6 C    3.969 --    33 C    1.009    32 C    1.008    65 H    0.958
                             3 C    0.942
    32   6 C    3.974 --    31 C    1.008    67 H    0.981    68 H    0.980
                            66 H    0.972
    33   6 C    3.978 --    31 C    1.009    70 H    0.982    71 H    0.979
                            69 H    0.975
    34   1 H    0.996 --     5 C    0.957
    35   1 H    0.992 --     8 C    0.973
    36   1 H    0.992 --     8 C    0.976
    37   1 H    0.992 --     8 C    0.972
    38   1 H    0.990 --    11 C    0.972
    39   1 H    0.992 --    11 C    0.976
    40   1 H    0.991 --    11 C    0.972
    41   1 H    0.994 --    12 C    0.963
    42   1 H    0.997 --    13 C    0.961
    43   1 H    0.995 --    14 C    0.968
    44   1 H    0.996 --    14 C    0.971
    45   1 H    0.993 --    15 C    0.956
    46   1 H    0.973 --    15 C    0.922
    47   1 H    0.982 --     2 C    0.899
    48   1 H    0.994 --    16 C    0.955
    49   1 H    0.984 --    18 C    0.896
    50   1 H    0.993 --    18 C    0.967
    51   1 H    0.994 --    19 C    0.973
    52   1 H    0.991 --    19 C    0.964
    53   1 H    0.982 --    21 C    0.956
    54   1 H    0.987 --    22 C    0.956
    55   1 H    0.989 --    25 C    0.972
    56   1 H    0.989 --    25 C    0.971
    57   1 H    0.991 --    25 C    0.976
    58   1 H    0.992 --    28 C    0.978
    59   1 H    0.987 --    28 C    0.964
    60   1 H    0.986 --    28 C    0.969
    61   1 H    0.131
    62   1 H    0.985 --    30 C    0.961
    63   1 H    0.990 --    30 C    0.965
    64   1 H    0.987 --    30 C    0.947
    65   1 H    0.990 --    31 C    0.958
    66   1 H    0.989 --    32 C    0.972
    67   1 H    0.996 --    32 C    0.981
    68   1 H    0.993 --    32 C    0.980
    69   1 H    0.991 --    33 C    0.975
    70   1 H    0.996 --    33 C    0.982
    71   1 H    0.993 --    33 C    0.979
    72   1 H    0.967 --     1 N    0.939
 ---------------------------------------------------------------------------

Topologies differ in total number of bonds
Writing topology from bond orders to xtbtopo.mol

molecular dipole:
                 x           y           z       tot (Debye)
 q only:        0.105       0.996      -1.459
   full:        0.489       1.110      -1.668       5.242
molecular quadrupole (traceless):
                xx          xy          yy          xz          yz          zz
 q only:       66.891      16.063     -24.758       0.983      -7.179     -42.133
  q+dip:       63.965      21.568     -25.806       2.932     -10.755     -38.159
   full:       63.720      21.702     -26.323       0.128     -10.315     -37.397

           -------------------------------------------------
          |                Geometry Summary                 |
           -------------------------------------------------

      molecular mass/u    :      455.6105846
   center of mass at/Å    :        0.0242015       0.0054756      -0.0092151
  moments of inertia/u·Å² :        0.2452729E+04   0.1102132E+05   0.1223737E+05
rotational constants/cm⁻¹ :        0.6873010E-02   0.1529548E-02   0.1377554E-02

 * 65 selected distances

     #   Z          #   Z                                           value/Å
     1   7 N        2   6 C                                       1.2473667
     4   6 C        5   6 C                                       1.3961227
     5   6 C        6   6 C                                       1.3856384
     6   6 C        7   8 O                                       1.3466646
     7   8 O        8   6 C                                       1.4083978
     6   6 C        9   6 C                                       1.4233685
     9   6 C       10   8 O                                       1.3443460
    10   8 O       11   6 C                                       1.4094883
     9   6 C       12   6 C                                       1.3869416
     4   6 C       13   6 C                                       1.3877257
    12   6 C       13   6 C                                       1.3876959
    14   6 C       15   6 C                                       1.5361313
    15   6 C       16   6 C                                       1.4803882
    16   6 C       17   7 N                                       1.3134419
    17   7 N       18   6 C                                       1.4427178
    18   6 C       19   6 C                                       1.5371941 (max)
    20   6 C       21   6 C                                       1.3970670
    21   6 C       22   6 C                                       1.3858055
    22   6 C       23   6 C                                       1.3896023
    23   6 C       24   8 O                                       1.3407308
    24   8 O       25   6 C                                       1.4104801
    23   6 C       26   6 C                                       1.4349018
    26   6 C       27   8 O                                       1.3371473
    27   8 O       28   6 C                                       1.4118682
    20   6 C       29   6 C                                       1.3678853
    26   6 C       29   6 C                                       1.3678998
    17   7 N       30   6 C                                       1.4424289
    31   6 C       32   6 C                                       1.5265282
    31   6 C       33   6 C                                       1.5261668
     5   6 C       34   1 H                                       1.0773613 (min)
     8   6 C       35   1 H                                       1.0940904
     8   6 C       36   1 H                                       1.0881942
     8   6 C       37   1 H                                       1.0947628
    11   6 C       38   1 H                                       1.0938036
    11   6 C       39   1 H                                       1.0881390
    11   6 C       40   1 H                                       1.0942623
    12   6 C       41   1 H                                       1.0776277
    13   6 C       42   1 H                                       1.0786859
    14   6 C       43   1 H                                       1.0893916
    14   6 C       44   1 H                                       1.0905556
    15   6 C       45   1 H                                       1.0896434
    15   6 C       46   1 H                                       1.0982130
    16   6 C       48   1 H                                       1.0817768
    18   6 C       49   1 H                                       1.1090881
    18   6 C       50   1 H                                       1.0918184
    19   6 C       51   1 H                                       1.0915647
    19   6 C       52   1 H                                       1.0916774
    21   6 C       53   1 H                                       1.0795465
    22   6 C       54   1 H                                       1.0782321
    25   6 C       55   1 H                                       1.0939096
    25   6 C       56   1 H                                       1.0937114
    25   6 C       57   1 H                                       1.0880768
    28   6 C       58   1 H                                       1.0877780
    28   6 C       59   1 H                                       1.0954713
    28   6 C       60   1 H                                       1.0948826
    30   6 C       62   1 H                                       1.0930162
    30   6 C       63   1 H                                       1.0920467
    30   6 C       64   1 H                                       1.0957452
    31   6 C       65   1 H                                       1.0960888
    32   6 C       66   1 H                                       1.0854598
    32   6 C       67   1 H                                       1.0873189
    32   6 C       68   1 H                                       1.0868148
    33   6 C       69   1 H                                       1.0856912
    33   6 C       70   1 H                                       1.0867739
    33   6 C       71   1 H                                       1.0868205

 * 4 distinct bonds (by element types)

   Z      Z             #   av. dist./Å        max./Å        min./Å
   1 H    6 C          36     1.0896678     1.1090881     1.0773613
   6 C    6 C          17     1.4304155     1.5371941     1.3678853
   6 C    7 N           4     1.3614888     1.4427178     1.2473667
   6 C    8 O           8     1.3761404     1.4118682     1.3371473


optimized geometry written to: xtbopt.xyz


           -------------------------------------------------
          | TOTAL ENERGY              -99.252400346768 Eh   |
          | GRADIENT NORM               0.002942304928 Eh/α |
          | HOMO-LUMO GAP               0.362240153746 eV   |
           -------------------------------------------------

------------------------------------------------------------------------
 * finished run on 2024/04/06 at 11:14:37.965     
------------------------------------------------------------------------
 total:
 * wall-time:     0 d,  0 h,  0 min,  0.466 sec
 *  cpu-time:     0 d,  0 h,  0 min,  0.437 sec
 * ratio c/w:     0.939 speedup
 SCF:
 * wall-time:     0 d,  0 h,  0 min,  0.119 sec
 *  cpu-time:     0 d,  0 h,  0 min,  0.119 sec
 * ratio c/w:     0.999 speedup
 ANC optimizer:
 * wall-time:     0 d,  0 h,  0 min,  0.302 sec
 *  cpu-time:     0 d,  0 h,  0 min,  0.294 sec
 * ratio c/w:     0.974 speedup

