      -----------------------------------------------------------      
     |                   =====================                   |     
     |                           x T B                           |     
     |                   =====================                   |     
     |                         S. Grimme                         |     
     |          Mulliken Center for Theoretical Chemistry        |     
     |                    University of Bonn                     |     
      -----------------------------------------------------------      

   * xtb version 6.6.1 (8d0f1dd) compiled by 'conda@1efc2f54142f' on 2023-08-01

   xtb is free software: you can redistribute it and/or modify it under
   the terms of the GNU Lesser General Public License as published by
   the Free Software Foundation, either version 3 of the License, or
   (at your option) any later version.
   
   xtb is distributed in the hope that it will be useful,
   but WITHOUT ANY WARRANTY; without even the implied warranty of
   MERCHANTABILITY or FITNESS FOR A PARTICULAR PURPOSE.  See the
   GNU Lesser General Public License for more details.
   
   Cite this work as:
   * C. Bannwarth, E. Caldeweyher, S. Ehlert, A. Hansen, P. Pracht,
     J. Seibert, S. Spicher, S. Grimme, WIREs Comput. Mol. Sci., 2020, 11,
     e01493. DOI: 10.1002/wcms.1493
   
   for GFN2-xTB:
   * C. Bannwarth, S. Ehlert and S. Grimme., J. Chem. Theory Comput., 2019,
     15, 1652-1671. DOI: 10.1021/acs.jctc.8b01176
   for GFN1-xTB:
   * S. Grimme, C. Bannwarth, P. Shushkov, J. Chem. Theory Comput., 2017,
     13, 1989-2009. DOI: 10.1021/acs.jctc.7b00118
   for GFN0-xTB:
   * P. Pracht, E. Caldeweyher, S. Ehlert, S. Grimme, ChemRxiv, 2019, preprint.
     DOI: 10.26434/chemrxiv.8326202.v1
   for GFN-FF:
   * S. Spicher and S. Grimme, Angew. Chem. Int. Ed., 2020, 59, 15665-15673.
     DOI: 10.1002/anie.202004239
   
   for ALPB and GBSA implicit solvation:
   * S. Ehlert, M. Stahn, S. Spicher, S. Grimme, J. Chem. Theory Comput.,
     2021, 17, 4250-4261. DOI: 10.1021/acs.jctc.1c00471
   
   for DFT-D4:
   * E. Caldeweyher, C. Bannwarth and S. Grimme, J. Chem. Phys., 2017,
     147, 034112. DOI: 10.1063/1.4993215
   * E. Caldeweyher, S. Ehlert, A. Hansen, H. Neugebauer, S. Spicher,
     C. Bannwarth and S. Grimme, J. Chem. Phys., 2019, 150, 154122.
     DOI: 10.1063/1.5090222
   * E. Caldeweyher, J.-M. Mewes, S. Ehlert and S. Grimme, Phys. Chem. Chem. Phys.
     2020, 22, 8499-8512. DOI: 10.1039/D0CP00502A
   
   for sTDA-xTB:
   * S. Grimme and C. Bannwarth, J. Chem. Phys., 2016, 145, 054103.
     DOI: 10.1063/1.4959605
   
   in the mass-spec context:
   * V. Asgeirsson, C. Bauer and S. Grimme, Chem. Sci., 2017, 8, 4879.
     DOI: 10.1039/c7sc00601b
   * J. Koopman and S. Grimme, ACS Omega 2019, 4, 12, 15120-15133.
     DOI: 10.1021/acsomega.9b02011
   
   for metadynamics refer to:
   * S. Grimme, J. Chem. Theory Comput., 2019, 155, 2847-2862
     DOI: 10.1021/acs.jctc.9b00143
   
   for SPH calculations refer to:
   * S. Spicher and S. Grimme, J. Chem. Theory Comput., 2021, 17, 1701-1714
     DOI: 10.1021/acs.jctc.0c01306
   
   with help from (in alphabetical order)
   P. Atkinson, C. Bannwarth, F. Bohle, G. Brandenburg, E. Caldeweyher
   M. Checinski, S. Dohm, S. Ehlert, S. Ehrlich, I. Gerasimov, C. Hölzer
   A. Katbashev, J. Koopman, C. Lavigne, S. Lehtola, F. März, M. Müller,
   F. Musil, H. Neugebauer, J. Pisarek, C. Plett, P. Pracht, F. Pultar,
   J. Seibert, P. Shushkov, S. Spicher, M. Stahn, M. Steiner, T. Strunk,
   J. Stückrath, T. Rose, and J. Unsleber
   
 * started run on 2024/06/05 at 20:00:08.275     

           -------------------------------------------------
          |                Calculation Setup                |
           -------------------------------------------------

          program call               : xtb xtbopt.xyz --opt crude --input .xc2 --gfn2
          hostname                   : n-62-11-66
          coordinate file            : xtbopt.xyz
          omp threads                :                     1

   ID    Z sym.   atoms
    1    6 C      1, 3, 5-7, 10, 11, 14
    2    7 N      2, 4, 9, 13
    3    8 O      8, 12
    4    1 H      15-25
########################################################################
[WARNING] Please study the warnings concerning your input carefully
-1- readin_getIntValue: could not parse ''
########################################################################

           -------------------------------------------------
          |                 G F N 2 - x T B                 |
           -------------------------------------------------

        Reference                      10.1021/acs.jctc.8b01176
      * Hamiltonian:
        H0-scaling (s, p, d)           1.850000    2.230000    2.230000
        zeta-weighting                 0.500000
      * Dispersion:
        s8                             2.700000
        a1                             0.520000
        a2                             5.000000
        s9                             5.000000
      * Repulsion:
        kExp                           1.500000    1.000000
        rExp                           1.000000
      * Coulomb:
        alpha                          2.000000
        third order                    shell-resolved
        anisotropic                    true
        a3                             3.000000
        a5                             4.000000
        cn-shift                       1.200000
        cn-exp                         4.000000
        max-rad                        5.000000

q/qsh data taken from xtbrestart
CAMM data taken from xtbrestart

          ...................................................
          :                      SETUP                      :
          :.................................................:
          :  # basis functions                  67          :
          :  # atomic orbitals                  67          :
          :  # shells                           39          :
          :  # electrons                        74          :
          :  max. iterations                   250          :
          :  Hamiltonian                  GFN2-xTB          :
          :  restarted?                       true          :
          :  GBSA solvation                  false          :
          :  PC potential                    false          :
          :  electronic temp.         5000.0000000     K    :
          :  accuracy                    1.0000000          :
          :  -> integral cutoff          0.2500000E+02      :
          :  -> integral neglect         0.1000000E-07      :
          :  -> SCF convergence          0.1000000E-05 Eh   :
          :  -> wf. convergence          0.1000000E-03 e    :
          :  Broyden damping             0.4000000          :
          ...................................................

 iter      E             dE          RMSdq      gap      omega  full diag
   1    -42.6066700 -0.426067E+02  0.392E-05    0.19       0.0  T
   2    -42.6066700  0.216261E-09  0.772E-05    0.19     259.2  T
   3    -42.6066700 -0.233776E-09  0.253E-05    0.19     791.3  T

   *** convergence criteria satisfied after 3 iterations ***

         #    Occupation            Energy/Eh            Energy/eV
      -------------------------------------------------------------
         1        2.0000           -0.8970578             -24.4102
       ...           ...                  ...                  ...
        31        1.9962           -0.6180436             -16.8178
        32        1.9932           -0.6087650             -16.5653
        33        1.9902           -0.6030640             -16.4102
        34        1.9837           -0.5949108             -16.1883
        35        1.9619           -0.5813007             -15.8180
        36        1.7962           -0.5533495             -15.0574
        37        1.2258           -0.5261629             -14.3176 (HOMO)
        38        1.0119           -0.5192622             -14.1298 (LUMO)
        39        0.0434           -0.4585717             -12.4784
        40        0.0013           -0.4024391             -10.9509
        41        0.0005           -0.3877517             -10.5513
        42        0.0000           -0.3011109              -8.1936
       ...           ...                  ...                  ...
        67                          0.5446207              14.8199
      -------------------------------------------------------------
                  HL-Gap            0.0069007 Eh            0.1878 eV
             Fermi-level           -0.5188865 Eh          -14.1196 eV

 SCC (total)                   0 d,  0 h,  0 min,  0.022 sec
 SCC setup                      ...        0 min,  0.000 sec (  1.024%)
 Dispersion                     ...        0 min,  0.000 sec (  1.224%)
 classical contributions        ...        0 min,  0.000 sec (  0.318%)
 integral evaluation            ...        0 min,  0.004 sec ( 19.860%)
 iterations                     ...        0 min,  0.005 sec ( 24.642%)
 molecular gradient             ...        0 min,  0.011 sec ( 52.153%)
 printout                       ...        0 min,  0.000 sec (  0.748%)

         :::::::::::::::::::::::::::::::::::::::::::::::::::::
         ::                     SUMMARY                     ::
         :::::::::::::::::::::::::::::::::::::::::::::::::::::
         :: total energy             -42.089513701062 Eh    ::
         :: gradient norm              0.005631264014 Eh/a0 ::
         :: HOMO-LUMO gap              0.187777315697 eV    ::
         ::.................................................::
         :: SCC energy               -42.606669966040 Eh    ::
         :: -> isotropic ES            0.134910715785 Eh    ::
         :: -> anisotropic ES         -0.010750762107 Eh    ::
         :: -> anisotropic XC          0.017896257618 Eh    ::
         :: -> dispersion             -0.022198680060 Eh    ::
         :: repulsion energy           0.517041997587 Eh    ::
         :: add. restraining           0.000000000000 Eh    ::
         :: total charge               1.000000000002 e     ::
         :::::::::::::::::::::::::::::::::::::::::::::::::::::

      ----------------------------------------------------------- 
     |                   =====================                   |
     |                        A N C O P T                        |
     |                   =====================                   |
     |               Approximate Normal Coordinate               |
     |                Rational Function Optimizer                |
      ----------------------------------------------------------- 

          ...................................................
          :                      SETUP                      :
          :.................................................:
          :   optimization level             crude          :
          :   max. optcycles                   200          :
          :   ANC micro-cycles                  20          :
          :   degrees of freedom                69          :
          :.................................................:
          :   RF solver                   davidson          :
          :   write xtbopt.log                true          :
          :   linear?                        false          :
          :   energy convergence         0.5000000E-03 Eh   :
          :   grad. convergence          0.1000000E-01 Eh/α :
          :   maxmium RF displ.          1.0000000          :
          :   Hlow (freq-cutoff)         0.1000000E-01      :
          :   Hmax (freq-cutoff)         5.0000000          :
          :   S6 in model hess.         20.0000000          :
          ...................................................

generating ANC from model Hessian ...
Using Lindh-Hessian (1995)
 Shifting diagonal of input Hessian by    8.2900696797645508E-003
 Lowest  eigenvalues of input Hessian
    0.000000    0.000000    0.000000    0.000000    0.000000    0.000000
    0.010000    0.011888    0.013269    0.013908    0.014979    0.016219
    0.019690    0.020500    0.021907    0.022604    0.029702    0.035094
 Highest eigenvalues
    1.987860    2.031025    2.203124    2.317528    2.392661    2.533469


........................................................................
.............................. CYCLE    1 ..............................
........................................................................

 iter      E             dE          RMSdq      gap      omega  full diag
   1    -42.6066700 -0.426067E+02  0.120E-05    0.19       0.0  T
   2    -42.6066700  0.474643E-11  0.135E-05    0.19    1480.3  T
   3    -42.6066700 -0.211031E-11  0.111E-05    0.19    1808.9  T
     SCC iter.                  ...        0 min,  0.004 sec
     gradient                   ...        0 min,  0.011 sec
 * total energy  :   -42.0895137 Eh     change       -0.1595879E-10 Eh
   gradient norm :     0.0056312 Eh/α   predicted     0.0000000E+00 (-100.00%)
   displ. norm   :     0.0748534 α      lambda       -0.1615764E-03
   maximum displ.:     0.0500963 α      in ANC's #9, #5, #14, ...

   *** GEOMETRY OPTIMIZATION CONVERGED AFTER 1 ITERATIONS ***

------------------------------------------------------------------------
 total energy gain   :        -0.0000000 Eh       -0.0000 kcal/mol
 total RMSD          :         0.0000000 a0        0.0000 Å
 total power (kW/mol):        -0.0000000 (step)   -0.0000 (real)
------------------------------------------------------------------------

 ANCopt (total)                0 d,  0 h,  0 min,  0.031 sec
 optimizer setup                ...        0 min,  0.000 sec (  1.106%)
 model hessian                  ...        0 min,  0.006 sec ( 19.054%)
 ANC generation                 ...        0 min,  0.001 sec (  2.444%)
 coordinate transformation      ...        0 min,  0.000 sec (  0.033%)
 single point calculation       ...        0 min,  0.021 sec ( 67.880%)
 optimization log               ...        0 min,  0.003 sec (  8.404%)
 hessian update                 ...        0 min,  0.000 sec (  0.002%)
 rational function              ...        0 min,  0.000 sec (  0.399%)

================
 final structure:
================
25
 xtb: 6.6.1 (8d0f1dd)
C            3.16007121796081        1.60146436444592        0.24505356149970
N            2.37405451016208        0.45656698759700        0.13480701567619
C            1.74979145817979       -3.18145222451736       -0.12510437173240
N            1.61862185669774       -1.92487914721994       -0.06877699631700
C            0.58471132743097       -0.98521811676810       -0.05464565664212
C            1.08668812134703        0.33749389511847        0.06538228225070
C            0.11203267388838        1.46385211087619        0.12743758626998
O            0.45280062222160        2.61594679558091        0.24726874688433
N           -1.20503459430013        1.07623660323532        0.04564391780379
C           -2.22912548122842        2.11344421463687        0.09661098466133
C           -1.68754963792894       -0.21020323605354       -0.09143919167616
O           -2.86012722835258       -0.44952727011885       -0.17039191479729
N           -0.73284080333769       -1.25104968203400       -0.13689886225697
C           -1.25750527050770       -2.59417601285677       -0.27616239213708
H            2.58178512007901        2.50246346908881        0.48689767302724
H            3.92624411057730        1.42653101750957        1.00546642806589
H            3.68544393400143        1.76277203276156       -0.70301179540458
H            0.99145953931278       -3.94070473341749       -0.19347569489023
H           -1.73681299589433        3.08227136847718        0.13296169636178
H           -2.86516704502673        2.04245491355189       -0.78537347303986
H           -2.85168568558923        1.97504392392616        0.98112360648380
H           -1.01942308654174       -3.19107279464323        0.60485471289364
H           -0.86461837218756       -3.06239247171904       -1.17799318330295
H           -2.34141091095003       -2.51848412027232       -0.36214571040697
H            2.48802813408602       -1.32914334558183        0.00308264862616

 Bond Distances (Angstroems)
 ---------------------------
C1-N2=1.3931         C1-H15=1.0976        C1-H16=1.0935        C1-H17=1.0958        N2-C1=1.3931         N2-C6=1.2947         
C3-N4=1.2647         C3-H18=1.0753        N4-C3=1.2647         N4-C5=1.3972         N4-H25=1.0564        C5-N4=1.3972         
C5-C6=1.4198         C5-N13=1.3466        C6-N2=1.2947         C6-C5=1.4198         C6-C7=1.4908         C7-C6=1.4908         
C7-O8=1.2074         C7-N9=1.3754         O8-C7=1.2074         N9-C7=1.3754         N9-C10=1.4585        N9-C11=1.3808        
C10-N9=1.4585        C10-H19=1.0873       C10-H20=1.0897       C10-H21=1.0905       C11-N9=1.3808        C11-O12=1.1994       
C11-N13=1.4131       O12-C11=1.1994       N13-C5=1.3466        N13-C11=1.4131       N13-C14=1.4487       C14-N13=1.4487       
C14-H22=1.0905       C14-H23=1.0894       C14-H24=1.0899       H15-C1=1.0976        H16-C1=1.0935        H17-C1=1.0958        
H18-C3=1.0753        H19-C10=1.0873       H20-C10=1.0897       H21-C10=1.0905       H22-C14=1.0905       H23-C14=1.0894       
H24-C14=1.0899       H25-N4=1.0564        
 C  H  Rav=1.0900 sigma=0.0057  Rmin=1.0753  Rmax=1.0976    10
 C  C  Rav=1.4553 sigma=0.0355  Rmin=1.4198  Rmax=1.4908     2
 N  H  Rav=1.0564 sigma=0.0000  Rmin=1.0564  Rmax=1.0564     1
 N  C  Rav=1.3773 sigma=0.0584  Rmin=1.2647  Rmax=1.4585    10
 O  C  Rav=1.2034 sigma=0.0040  Rmin=1.1994  Rmax=1.2074     2

 selected bond angles (degree)
 --------------------
H15-C1-N2=113.25               H16-C1-N2=108.59               H16-C1-H15=110.32              H17-C1-N2=108.84               
H17-C1-H15=108.81              H17-C1-H16=106.81              C6-N2-C1=129.85                H18-C3-N4=129.14               
C5-N4-C3=138.20                H25-N4-C3=118.56               H25-N4-C5=103.24               C6-C5-N4=111.45                
N13-C5-N4=126.20               N13-C5-C6=122.34               C5-C6-N2=116.22                C7-C6-N2=125.33                
C7-C6-C5=118.44                O8-C7-C6=122.72                N9-C7-C6=114.25                N9-C7-O8=123.03                
C10-N9-C7=118.03               C11-N9-C7=127.09               C11-N9-C10=114.88              H19-C10-N9=108.48              
H20-C10-N9=109.59              H20-C10-H19=110.45             H21-C10-N9=109.81              H21-C10-H19=110.15             
H21-C10-H20=108.36             

 selected dihedral angles (degree)
 ---------------------------------
C6-N2-C1-H15= 12.13           C6-N2-C1-H16=135.04           C6-N2-C1-H17=250.97           C5-N4-C3-H18=  0.64           
H25-N4-C3-H18=179.57          C6-C5-N4-C3=178.20            C6-C5-N4-H25=359.16           N13-C5-N4-C3=358.42           
N13-C5-N4-H25=179.38          C5-C6-N2-C1=179.45            C7-C6-N2-C1=358.23            N2-C6-C5-N4=  0.24            
N2-C6-C5-N13=180.04           C7-C6-C5-N4=181.37            C7-C6-C5-N13=  1.17           O8-C7-C6-N2=  0.23            
O8-C7-C6-C5=178.99            N9-C7-C6-N2=180.65            N9-C7-C6-C5=359.40            C10-N9-C7-C6=180.07           
C10-N9-C7-O8=  0.49           C11-N9-C7-C6=359.59           C11-N9-C7-O8=180.01           H19-C10-N9-C7=  3.58          
H19-C10-N9-C11=184.00         H20-C10-N9-C7=124.24          H20-C10-N9-C11=304.66         H21-C10-N9-C7=243.16          
H21-C10-N9-C11= 63.58         
           -------------------------------------------------
          |                Final Singlepoint                |
           -------------------------------------------------

          ...................................................
          :                      SETUP                      :
          :.................................................:
          :  # basis functions                  67          :
          :  # atomic orbitals                  67          :
          :  # shells                           39          :
          :  # electrons                        74          :
          :  max. iterations                   250          :
          :  Hamiltonian                  GFN2-xTB          :
          :  restarted?                      false          :
          :  GBSA solvation                  false          :
          :  PC potential                    false          :
          :  electronic temp.         5000.0000000     K    :
          :  accuracy                    1.0000000          :
          :  -> integral cutoff          0.2500000E+02      :
          :  -> integral neglect         0.1000000E-07      :
          :  -> SCF convergence          0.1000000E-05 Eh   :
          :  -> wf. convergence          0.1000000E-03 e    :
          :  Broyden damping             0.4000000          :
          ...................................................

 iter      E             dE          RMSdq      gap      omega  full diag
   1    -42.6066700 -0.426067E+02  0.563E-06    0.19       0.0  T
   2    -42.6066700  0.415668E-11  0.108E-05    0.19    1854.5  T
   3    -42.6066700 -0.429878E-11  0.374E-06    0.19    5341.9  T

   *** convergence criteria satisfied after 3 iterations ***

         #    Occupation            Energy/Eh            Energy/eV
      -------------------------------------------------------------
         1        2.0000           -0.8970577             -24.4102
       ...           ...                  ...                  ...
        31        1.9962           -0.6180435             -16.8178
        32        1.9932           -0.6087650             -16.5653
        33        1.9902           -0.6030640             -16.4102
        34        1.9837           -0.5949107             -16.1883
        35        1.9619           -0.5813007             -15.8180
        36        1.7962           -0.5533496             -15.0574
        37        1.2258           -0.5261628             -14.3176 (HOMO)
        38        1.0119           -0.5192622             -14.1298 (LUMO)
        39        0.0434           -0.4585716             -12.4784
        40        0.0013           -0.4024390             -10.9509
        41        0.0005           -0.3877516             -10.5513
        42        0.0000           -0.3011108              -8.1936
       ...           ...                  ...                  ...
        67                          0.5446208              14.8199
      -------------------------------------------------------------
                  HL-Gap            0.0069006 Eh            0.1878 eV
             Fermi-level           -0.5188865 Eh          -14.1196 eV

 SCC (total)                   0 d,  0 h,  0 min,  0.021 sec
 SCC setup                      ...        0 min,  0.000 sec (  0.902%)
 Dispersion                     ...        0 min,  0.000 sec (  0.856%)
 classical contributions        ...        0 min,  0.000 sec (  0.319%)
 integral evaluation            ...        0 min,  0.004 sec ( 20.339%)
 iterations                     ...        0 min,  0.005 sec ( 21.856%)
 molecular gradient             ...        0 min,  0.011 sec ( 55.081%)
 printout                       ...        0 min,  0.000 sec (  0.610%)

         :::::::::::::::::::::::::::::::::::::::::::::::::::::
         ::                     SUMMARY                     ::
         :::::::::::::::::::::::::::::::::::::::::::::::::::::
         :: total energy             -42.089513701082 Eh    ::
         :: gradient norm              0.005631253425 Eh/a0 ::
         :: HOMO-LUMO gap              0.187774581230 eV    ::
         ::.................................................::
         :: SCC energy               -42.606669966060 Eh    ::
         :: -> isotropic ES            0.134911128520 Eh    ::
         :: -> anisotropic ES         -0.010750794341 Eh    ::
         :: -> anisotropic XC          0.017896261095 Eh    ::
         :: -> dispersion             -0.022198680968 Eh    ::
         :: repulsion energy           0.517041997587 Eh    ::
         :: add. restraining           0.000000000000 Eh    ::
         :: total charge               1.000000000002 e     ::
         :::::::::::::::::::::::::::::::::::::::::::::::::::::

           -------------------------------------------------
          |                Property Printout                |
           -------------------------------------------------

    * Orbital Energies and Occupations

         #    Occupation            Energy/Eh            Energy/eV
      -------------------------------------------------------------
         1        2.0000           -0.8970577             -24.4102
       ...           ...                  ...                  ...
        25        1.9999           -0.6769684             -18.4212
        26        1.9999           -0.6751299             -18.3712
        27        1.9994           -0.6468583             -17.6019
        28        1.9993           -0.6437977             -17.5186
        29        1.9990           -0.6387456             -17.3812
        30        1.9986           -0.6338125             -17.2469
        31        1.9962           -0.6180435             -16.8178
        32        1.9932           -0.6087650             -16.5653
        33        1.9902           -0.6030640             -16.4102
        34        1.9837           -0.5949107             -16.1883
        35        1.9619           -0.5813007             -15.8180
        36        1.7962           -0.5533496             -15.0574
        37        1.2258           -0.5261628             -14.3176 (HOMO)
        38        1.0119           -0.5192622             -14.1298 (LUMO)
        39        0.0434           -0.4585716             -12.4784
        40        0.0013           -0.4024390             -10.9509
        41        0.0005           -0.3877516             -10.5513
        42        0.0000           -0.3011108              -8.1936
        43                         -0.2104988              -5.7280
        44                         -0.1645919              -4.4788
        45                         -0.1475241              -4.0143
        46                         -0.1109038              -3.0178
        47                         -0.0800164              -2.1774
        48                         -0.0360993              -0.9823
       ...                                ...                  ...
        67                          0.5446208              14.8199
      -------------------------------------------------------------
                  HL-Gap            0.0069006 Eh            0.1878 eV
             Fermi-level           -0.5188865 Eh          -14.1196 eV

     #   Z          covCN         q      C6AA      α(0)
     1   6 C        3.691    -0.050    21.664     6.660
     2   7 N        1.845    -0.155    25.141     7.431
     3   6 C        1.841    -0.049    32.481     9.207
     4   7 N        2.694     0.017    20.964     6.800
     5   6 C        2.855     0.085    26.105     8.374
     6   6 C        2.906     0.042    27.069     8.531
     7   6 C        2.766     0.270    22.436     7.757
     8   8 O        0.858    -0.322    20.186     6.024
     9   7 N        2.739    -0.068    22.563     7.055
    10   6 C        3.710    -0.063    21.852     6.681
    11   6 C        2.726     0.317    21.606     7.610
    12   8 O        0.860    -0.340    20.509     6.072
    13   7 N        2.736    -0.026    21.752     6.927
    14   6 C        3.700    -0.074    22.086     6.721
    15   1 H        0.924     0.124     1.585     1.969
    16   1 H        0.924     0.117     1.639     2.002
    17   1 H        0.924     0.123     1.588     1.971
    18   1 H        0.926     0.128     1.551     1.947
    19   1 H        0.925     0.116     1.644     2.005
    20   1 H        0.925     0.108     1.715     2.048
    21   1 H        0.924     0.106     1.730     2.057
    22   1 H        0.924     0.097     1.809     2.103
    23   1 H        0.925     0.097     1.816     2.107
    24   1 H        0.925     0.133     1.511     1.923
    25   1 H        0.857     0.268     0.819     1.418

 Mol. C6AA /au·bohr⁶  :       6569.712147
 Mol. C8AA /au·bohr⁸  :     151256.162330
 Mol. α(0) /au        :        123.398932


Wiberg/Mayer (AO) data.
largest (>0.10) Wiberg bond orders for each atom

 ---------------------------------------------------------------------------
     #   Z sym  total        # sym  WBO       # sym  WBO       # sym  WBO
 ---------------------------------------------------------------------------
     1   6 C    3.879 --     2 N    1.099    16 H    0.921    15 H    0.904
                            17 H    0.902
     2   7 N    2.870 --     6 C    1.538     1 C    1.099
     3   6 C    2.751 --     4 N    1.686    18 H    0.917
     4   7 N    3.654 --     3 C    1.686     5 C    1.076    25 H    0.800
     5   6 C    3.683 --    13 N    1.250     6 C    1.197     4 N    1.076
     6   6 C    3.919 --     2 N    1.538     5 C    1.197     7 C    0.961
     7   6 C    3.906 --     8 O    1.706     9 N    1.144     6 C    0.961
     8   8 O    2.014 --     7 C    1.706     9 N    0.139
     9   7 N    3.547 --     7 C    1.144    11 C    1.114    10 C    0.963
                             8 O    0.139    12 O    0.124
    10   6 C    3.891 --    19 H    0.966     9 N    0.963    20 H    0.959
                            21 H    0.957
    11   6 C    3.935 --    12 O    1.706     9 N    1.114    13 N    1.030
    12   8 O    2.019 --    11 C    1.706     9 N    0.124    13 N    0.104
    13   7 N    3.492 --     5 C    1.250    11 C    1.030    14 C    0.978
                            12 O    0.104
    14   6 C    3.905 --    13 N    0.978    23 H    0.958    24 H    0.957
                            22 H    0.957
    15   1 H    0.929 --     1 C    0.904
    16   1 H    0.951 --     1 C    0.921
    17   1 H    0.942 --     1 C    0.902
    18   1 H    0.943 --     3 C    0.917
    19   1 H    0.983 --    10 C    0.966
    20   1 H    0.978 --    10 C    0.959
    21   1 H    0.978 --    10 C    0.957
    22   1 H    0.978 --    14 C    0.957
    23   1 H    0.979 --    14 C    0.958
    24   1 H    0.979 --    14 C    0.957
    25   1 H    0.907 --     4 N    0.800
 ---------------------------------------------------------------------------

Topologies differ in total number of bonds
Writing topology from bond orders to xtbtopo.mol

molecular dipole:
                 x           y           z       tot (Debye)
 q only:        1.664      -1.436      -0.062
   full:        1.528      -1.329      -0.067       5.151
molecular quadrupole (traceless):
                xx          xy          yy          xz          yz          zz
 q only:        7.841      -2.149       9.311       0.569       1.777     -17.152
  q+dip:        4.346       1.000       7.976       0.243       1.309     -12.321
   full:        3.027       0.702       6.882       0.070       1.057      -9.909

           -------------------------------------------------
          |                Geometry Summary                 |
           -------------------------------------------------

      molecular mass/u    :      195.1988581
   center of mass at/Å    :        0.0538966      -0.0363050       0.0036601
  moments of inertia/u·Å² :        0.6119016E+03   0.6420594E+03   0.1244317E+04
rotational constants/cm⁻¹ :        0.2754958E-01   0.2625557E-01   0.1354769E-01

 * 22 selected distances

     #   Z          #   Z                                           value/Å
     1   6 C        2   7 N                                       1.3931141
     3   6 C        4   7 N                                       1.2646559
     4   7 N        5   6 C                                       1.3971879
     2   7 N        6   6 C                                       1.2947242
     5   6 C        6   6 C                                       1.4198432
     7   6 C        8   8 O                                       1.2073958
     7   6 C        9   7 N                                       1.3753554
     9   7 N       10   6 C                                       1.4584786 (max)
     9   7 N       11   6 C                                       1.3807753
    11   6 C       12   8 O                                       1.1993532
     5   6 C       13   7 N                                       1.3466165
    11   6 C       13   7 N                                       1.4131161
    13   7 N       14   6 C                                       1.4486738
     1   6 C       15   1 H                                       1.0975896
     1   6 C       16   1 H                                       1.0935495
     1   6 C       17   1 H                                       1.0958398
    10   6 C       19   1 H                                       1.0873450 (min)
    10   6 C       20   1 H                                       1.0897179
    10   6 C       21   1 H                                       1.0904580
    14   6 C       22   1 H                                       1.0904862
    14   6 C       23   1 H                                       1.0894429
    14   6 C       24   1 H                                       1.0899422

 * 4 distinct bonds (by element types)

   Z      Z             #   av. dist./Å        max./Å        min./Å
   1 H    6 C           9     1.0915968     1.0975896     1.0873450
   6 C    6 C           1     1.4198432     1.4198432     1.4198432
   6 C    7 N          10     1.3772698     1.4584786     1.2646559
   6 C    8 O           2     1.2033745     1.2073958     1.1993532


optimized geometry written to: xtbopt.xyz


           -------------------------------------------------
          | TOTAL ENERGY              -42.089513701082 Eh   |
          | GRADIENT NORM               0.005631253425 Eh/α |
          | HOMO-LUMO GAP               0.187774581230 eV   |
           -------------------------------------------------

------------------------------------------------------------------------
 * finished run on 2024/06/05 at 20:00:08.386     
------------------------------------------------------------------------
 total:
 * wall-time:     0 d,  0 h,  0 min,  0.110 sec
 *  cpu-time:     0 d,  0 h,  0 min,  0.083 sec
 * ratio c/w:     0.749 speedup
 SCF:
 * wall-time:     0 d,  0 h,  0 min,  0.022 sec
 *  cpu-time:     0 d,  0 h,  0 min,  0.022 sec
 * ratio c/w:     1.000 speedup
 ANC optimizer:
 * wall-time:     0 d,  0 h,  0 min,  0.057 sec
 *  cpu-time:     0 d,  0 h,  0 min,  0.050 sec
 * ratio c/w:     0.869 speedup

