25
 energy: 0.000000000000 xtb: 6.6.1 (8d0f1dd)
C            3.23720163006194        1.16630919979326        0.08434469647475
N            2.29877817382611        0.07527477071623        0.03981603040599
C            2.58028210190900       -1.21425402444508        0.03006176031096
N            1.43813958087363       -1.93419271955128        0.00098261760884
C            0.39035688448383       -1.05887472636071       -0.00790371836672
C            0.93510056364412        0.21347819449412        0.01709077491437
C            0.09450143893243        1.40504303904423       -0.00410947031874
O            0.49712751527797        2.54126714362870       -0.00342325688240
N           -1.25076640035757        1.06271879480407       -0.03085478223738
C           -2.21907211982101        2.15522099834493       -0.05001256985998
C           -1.81739487048744       -0.20012725993278       -0.04692818574614
O           -2.99983886758376       -0.37846417018721       -0.07008878229737
N           -0.92618586207120       -1.30210215599479       -0.03682761578324
C           -1.46982264913417       -2.64643102187190       -0.06029820460571
H            3.71247264356769        1.21471455160235        1.06488849150277
H            4.00791497605742        1.03430808813993       -0.67357694370751
H            2.69910007168542        2.09770118228144       -0.09130154882931
H            3.56654120610678       -1.63682992603973        0.04233140067262
H           -1.67107961066214        3.09322851271934       -0.02552706933167
H           -2.82428953597071        2.09428624779827       -0.95318082946668
H           -2.87644029173232        2.07745725625962        0.81450067533302
H           -1.17061996399332       -3.19584890659852        0.83242232437030
H           -1.14560257411436       -3.17511610292205       -0.95688275822323
H           -2.55549792440841       -2.55659984320617       -0.07459039797972
H            1.38130855184625       -2.94313852034425       -0.01389874181052
25
 energy: -5.121028340007 xtb: 6.6.1 (8d0f1dd)
C            3.24509098058732        1.17867662705955        0.10135123780186
N            2.30910746538687        0.09792723821198        0.03897666831977
C            2.60111505513288       -1.23009571064418        0.02459914172712
N            1.43006922714422       -1.93793784145415       -0.01512684621131
C            0.40024746794351       -1.05448697553776       -0.02340012815513
C            0.93136076120606        0.22506776339490        0.00851914174576
C            0.10013574250352        1.39724364130085       -0.01259411246582
O            0.49484932268727        2.56394722453988       -0.00349386958185
N           -1.26214294495003        1.04856555579847       -0.03866009297464
C           -2.21799024556353        2.14921483986815       -0.05823623296477
C           -1.81738267451560       -0.20941281947342       -0.04832418564699
O           -3.00841638778404       -0.42065917970165       -0.04283514119657
N           -0.92790273098095       -1.30221238670894       -0.04872244054290
C           -1.47552877395783       -2.64034943597157       -0.05878366321345
H            3.72342009272828        1.21219823704614        1.08382062180823
H            4.01302650175877        1.05222227605642       -0.66299429270419
H            2.69854602166712        2.10529788325097       -0.06287013907295
H            3.57872631255699       -1.65668501233257        0.04204589578621
H           -1.65576551465789        3.07995790251530       -0.06749269411716
H           -2.84529278430415        2.08386370950691       -0.94506497162280
H           -2.85422302324573        2.10402667590840        0.82325484153983
H           -1.17523290770177       -3.18111687663134        0.84127918595192
H           -1.17539098499807       -3.16680818135297       -0.96379615352086
H           -2.55997199105168       -2.56815630741113       -0.04981240170851
H            1.36176068034468       -2.94126024506624       -0.03460547283352
25
 energy: -4.218337741724 xtb: 6.6.1 (8d0f1dd)
C            3.25745052183372        1.19347471314756        0.14651783160561
N            2.32232804279313        0.12365060244823        0.03668552770048
C            2.62457589398817       -1.24656669997910        0.00773190218677
N            1.41990370109126       -1.93455561813237       -0.05945337575214
C            0.41426123331965       -1.04744349744492       -0.06514800180160
C            0.92726770307630        0.24115571566428       -0.01394301723031
C            0.10601214361053        1.38052364409467       -0.03434936444574
O            0.47382774814675        2.57691843657489       -0.00828415212599
N           -1.28272690809363        1.02637498246330       -0.06013398474952
C           -2.21494469911992        2.14211426937624       -0.08167886682818
C           -1.81401763377592       -0.22665403315207       -0.04347315936519
O           -3.00598185919513       -0.49737160854282        0.02847194775106
N           -0.92680655821216       -1.30191883985456       -0.07930768047882
C           -1.48449908021460       -2.63119435890248       -0.05203979900521
H            3.74421818269527        1.19481027882146        1.12983116457213
H            4.02475932055506        1.10050222134871       -0.62740690971691
H            2.70257862545768        2.12117288054106        0.01866763768382
H            3.59119768675669       -1.68103246974734        0.03910351592314
H           -1.62066616677907        3.05588912886573       -0.18618093516705
H           -2.90444645497332        2.04869008804052       -0.92272888873119
H           -2.79157378799686        2.17809749105304        0.84858925500577
H           -1.16932638539544       -3.15404149188360        0.85642297309797
H           -1.24678620877821       -3.15799888902005       -0.97546182523826
H           -2.56921385659373       -2.58279530637914        0.01674133219227
H            1.33482346373993       -2.93277303722924       -0.09213923093562
25
 energy: 6.698860103978 xtb: 6.6.1 (8d0f1dd)
C            3.27081616211163        1.20991339097252        0.21793673189032
N            2.33696347850099        0.15137607521146        0.03104487761547
C            2.65009015407026       -1.26488231844065       -0.01986792155144
N            1.41148306504809       -1.92878984980376       -0.12775383140146
C            0.43127455313833       -1.04108459865601       -0.13182716099832
C            0.92314732887823        0.25880911559474       -0.04807222298208
C            0.11071592153023        1.36167180030086       -0.06411114778371
O            0.44058757429524        2.58798059107591       -0.01976213958861
N           -1.31192926587185        1.00100099928797       -0.09438738978746
C           -2.21011565477687        2.13757743168196       -0.12054913285497
C           -1.80965267079132       -0.24948561874950       -0.02829827460960
O           -2.99499955599366       -0.59970475515134        0.14065810069144
N           -0.92254876337203       -1.30349115685520       -0.13106984795477
C           -1.49417686745912       -2.62276980308095       -0.04213890635279
H            3.76934932312768        1.15687930741020        1.20087148800250
H            4.03902597965634        1.17704008076477       -0.56781715216187
H            2.70848030865635        2.14373882927842        0.15219796858073
H            3.60483181168528       -1.70903043828566        0.03609890720971
H           -1.57696362883363        3.02395117111681       -0.38537544672657
H           -3.00444161122960        1.98781293238980       -0.87857538380268
H           -2.68120602719513        2.30452232127585        0.88655574995173
H           -1.14724509345380       -3.11974088702365        0.87316531129154
H           -1.35914726707425       -3.14990668010657       -0.99302391494313
H           -2.57808749574806       -2.60228823025398        0.12458542324803
H            1.30596290903671       -2.92207110778200       -0.18345078883477
25
 energy: 24.636734263598 xtb: 6.6.1 (8d0f1dd)
C            3.27952727331903        1.22090004990167        0.28675353905695
N            2.34771486939019        0.17152977301119        0.02095862817271
C            2.66877294550497       -1.28019151236923       -0.04822842208227
N            1.40763598608643       -1.92273947403756       -0.19151466231245
C            0.44475262047232       -1.03736192884445       -0.19779439430881
C            0.92048162905296        0.27172472853371       -0.07964500783402
C            0.11341337910356        1.34951894582703       -0.08454481490202
O            0.40773236726814        2.59289890637207       -0.03128327710595
N           -1.34139526589402        0.98357950768893       -0.12850367134392
C           -2.20479017555429        2.13941632819878       -0.16197223913735
C           -1.80476983805230       -0.26816949260174       -0.00517862037477
O           -2.97269165748536       -0.69191098383660        0.25200172693065
N           -0.91756210304447       -1.30590552350918       -0.18839628150016
C           -1.49953218754936       -2.61876708796796       -0.03297423354727
H            3.79030347106518        1.11179141760711        1.26593629694377
H            4.04873607852029        1.25413046532155       -0.50802116776214
H            2.71329887359685        2.16205607685577        0.28687593458966
H            3.61462489133665       -1.73247905169218        0.03504847277218
H           -1.55341808607185        2.99342279950257       -0.57897420164083
H           -3.09820945093750        1.93470295761489       -0.82655251699927
H           -2.56564651312768        2.43119313867364        0.90370664521726
H           -1.11902080923231       -3.08936862855991        0.88661369281926
H           -1.47346870381948       -3.14219992091306       -1.00751450888759
H           -2.57836908522654       -2.62597000526842        0.23455275961082
H            1.28409415921453       -2.91277288333662       -0.27431578022720
25
 energy: 28.904279373202 xtb: 6.6.1 (8d0f1dd)
C            3.27770823678658        1.21624944985041        0.32764077626145
N            2.34746581807626        0.16727646108356        0.00494880550499
C            2.66379530172801       -1.28325279550621       -0.06560910380602
N            1.41503459047571       -1.91193189944980       -0.22137222133204
C            0.44541984610311       -1.03920095388897       -0.24275876425306
C            0.92316353111839        0.27196400336427       -0.09640064456334
C            0.11220124089702        1.35546655045106       -0.07622946494224
O            0.37409935729499        2.57542429842341       -0.03395303493058
N           -1.36900549013234        0.98749149921624       -0.15924209960791
C           -2.20096715526657        2.15369086443865       -0.19396370119633
C           -1.80056336301056       -0.27345566378806        0.02417970452284
O           -2.92145317821710       -0.74765891716744        0.33122871420977
N           -0.91248389544382       -1.30783929707773       -0.24905410803802
C           -1.49489884905170       -2.62444195076053       -0.03034990572434
H            3.80128658284176        1.07463562493949        1.29353459974918
H            4.04817187271230        1.30944467615741       -0.46552986004387
H            2.71955796054495        2.16589091359129        0.37643245433214
H            3.61066936393557       -1.74055529529926        0.03986506729422
H           -1.57470779706420        2.96273056508833       -0.69623192851069
H           -3.14561132131567        1.91804262179940       -0.76786688092390
H           -2.46923186571020        2.51865296956400        0.86897222327358
H           -1.09953171127628       -3.06923240421883        0.89333645290470
H           -1.55791228678439       -3.13326965477038       -1.00726885006857
H           -2.55958618345237       -2.65217082438723        0.30772843080153
H            1.27959406214647       -2.90492223948108       -0.33500276476628
25
 energy: 24.126009424165 xtb: 6.6.1 (8d0f1dd)
C            3.26044719015702        1.19267961243958        0.35142195686655
N            2.33677581911532        0.13392220427954       -0.00715504399881
C            2.62666492781230       -1.25582443801144       -0.07434412916958
N            1.44156175439388       -1.89481069339471       -0.23095604529346
C            0.42239708614951       -1.04215945345759       -0.26859840836629
C            0.93561909880305        0.25610042635594       -0.11315210535538
C            0.11005656546366        1.38479352524684       -0.07460941844948
O            0.34532565650637        2.54476013811274       -0.01633200819156
N           -1.38093771551482        1.00040967899934       -0.18969185275022
C           -2.19848661095499        2.17531482746385       -0.21375688920471
C           -1.80814441465946       -0.26838442454838        0.04126560941253
O           -2.85077936911146       -0.73947752668842        0.44258824617943
N           -0.91490991070643       -1.31048113805054       -0.31029983651173
C           -1.48076198064856       -2.64447400218375       -0.03620017298591
H            3.78797401943821        1.02814113418103        1.29729108561061
H            4.02721908722362        1.32975066100470       -0.42410335890446
H            2.71861958816235        2.14211187160781        0.43228222080948
H            3.58535533142932       -1.71504375524982        0.04669766154987
H           -1.64651469674079        2.91873657523467       -0.78062952123793
H           -3.14249697700233        1.93243803063822       -0.68719938534215
H           -2.37516226082376        2.58204283363159        0.77878067214470
H           -1.06902779433361       -3.06362907181982        0.88397556106934
H           -1.60864535226621       -3.12255882414313       -0.98470711942315
H           -2.51457130147418       -2.68345413106867        0.34394337875512
H            1.30463692751787       -2.89187545840762       -0.37947720106562
25
 energy: 33.997348888671 xtb: 6.6.1 (8d0f1dd)
C            3.25160178273386        1.18383426604144        0.40777337960424
N            2.33683471328129        0.13266918029505       -0.00940812044950
C            2.61982389966398       -1.24236642732071       -0.09130113916396
N            1.44947857578988       -1.88841568685282       -0.28205631647720
C            0.41774398170949       -1.03968309859123       -0.32204660039104
C            0.93758358113815        0.25648178379860       -0.14326909288936
C            0.11201813893724        1.38971487752684       -0.10399249537372
O            0.32025846305077        2.56213222395770        0.00211471000459
N           -1.38795968334496        0.98766850771646       -0.22514262504971
C           -2.19065043846336        2.18194371992855       -0.25613452451797
C           -1.80496280767839       -0.27937321599484        0.05551628466002
O           -2.80774971545122       -0.78022639206831        0.61349644138103
N           -0.91459914490115       -1.31575431094859       -0.37199441692438
C           -1.47404243593498       -2.65213510435989       -0.03983325217388
H            3.78051437004787        0.95795169604833        1.34601701332206
H            4.01383316358670        1.37129854635645       -0.36429021981716
H            2.70769861752379        2.12884311524078        0.54629782565219
H            3.57567114551124       -1.70247431291925        0.05295310989150
H           -1.67943746684196        2.88662820556522       -0.98329869961390
H           -3.21697541133594        1.90099166523781       -0.60861207633772
H           -2.23924460960141        2.71035358644780        0.75337892985877
H           -1.01444433784242       -3.05168582230740        0.87042699011287
H           -1.70469166365035       -3.11940920527602       -0.99452003967654
H           -2.48736659161610       -2.70998140291624        0.43203973032225
H            1.31127854162377       -2.87997779243376       -0.45708089980628
25
 energy: 33.559670318821 xtb: 6.6.1 (8d0f1dd)
C            3.23514698207855        1.17057775804119        0.43614432754995
N            2.33000098436423        0.12889357672716        0.00514745060990
C            2.60339323212394       -1.20791633327495       -0.09971218973421
N            1.44903789178635       -1.88486721080377       -0.32962602872220
C            0.40480442589153       -1.03433305363185       -0.33749886084217
C            0.93458816931806        0.25774493039701       -0.15660538537443
C            0.11416368797482        1.38936635494011       -0.13080499114637
O            0.31500171219501        2.59721474791515        0.03685462558208
N           -1.36215382077930        0.96901528233001       -0.23096779491039
C           -2.17785737226733        2.17749079258929       -0.29313249748885
C           -1.78990556532470       -0.28962868759730        0.08950970054004
O           -2.74104767204667       -0.77205745540649        0.70102249016507
N           -0.92245963420411       -1.32470663162335       -0.37216548152103
C           -1.47579839292941       -2.65640432908039       -0.04169338251578
H            3.76109357475180        0.89183616548167        1.36715112827790
H            3.98572373985658        1.37665815993077       -0.33499431838264
H            2.67928201299055        2.09922442137638        0.61535296526790
H            3.55666346693326       -1.66466817428509        0.04435432721424
H           -1.74022082334775        2.85515626366186       -1.10426901527882
H           -3.23324424671310        1.89683365874335       -0.55655216968359
H           -2.14841349375376        2.77175836762966        0.68559080532698
H           -0.95749716152757       -3.06324038822682        0.83763612585834
H           -1.76993474989490       -3.11753560281199       -0.99650784123280
H           -2.46577656575349       -2.71007508541616        0.50209708573984
H            1.32762428621312       -2.86730892543351       -0.50929717915179
25
 energy: 34.982779891695 xtb: 6.6.1 (8d0f1dd)
C            3.21571973865555        1.15780057841332        0.46927831006505
N            2.31490558982874        0.12805541277825        0.01652742908625
C            2.58812370221137       -1.18458358415186       -0.11633421876602
N            1.44496060518635       -1.87791049363933       -0.37267047631130
C            0.39593190796355       -1.02644624718594       -0.36552670092100
C            0.92244639695250        0.26550815198208       -0.16511263505471
C            0.10779798238650        1.39067891495891       -0.13951783574522
O            0.33045684720250        2.59298260066609        0.02648343277673
N           -1.34742050495004        0.97110771829115       -0.24286414391165
C           -2.17117578871550        2.18153797819551       -0.33359827800665
C           -1.77204245395450       -0.28645302694670        0.11929838506599
O           -2.67306635952662       -0.76962017808893        0.86105047301168
N           -0.93010099980926       -1.32561883178353       -0.38313559813396
C           -1.47830098920506       -2.65477121623563       -0.04150565359677
H            3.74251302967371        0.84097101658157        1.38534326010340
H            3.95894240957253        1.38994360158527       -0.30165085208396
H            2.65036511978330        2.07018826754904        0.68480865420895
H            3.54134875427494       -1.64007677375609        0.03215469128947
H           -1.79886782635175        2.81023003037066       -1.17436438126022
H           -3.21700896235291        1.90980015353329       -0.52143797618123
H           -2.08407670652100        2.80342651619614        0.57954767685722
H           -0.92218787967899       -3.07954528365620        0.80096637580857
H           -1.81056357006239       -3.10526745835941       -0.97689747424104
H           -2.43487846986901       -2.71555862594279        0.54474934957865
H            1.33839309524117       -2.85735061918291       -0.55855791749105
25
 energy: 32.160944093610 xtb: 6.6.1 (8d0f1dd)
C            3.19092585877846        1.14775417303462        0.49240106385010
N            2.29235448582298        0.13327816535709        0.03214618050634
C            2.57704567794390       -1.17111321938248       -0.13878439700514
N            1.43666828239948       -1.87290696465405       -0.39612811177954
C            0.38747292355642       -1.01892861397089       -0.36941007113930
C            0.90066355327662        0.27563405826466       -0.15418656347240
C            0.09035810436314        1.39135403320865       -0.11822495131991
O            0.35796618303394        2.57788996170839        0.00859314165402
N           -1.33361221240827        0.97895928135496       -0.22353795314962
C           -2.17129351794722        2.18163637722542       -0.36250299908258
C           -1.74749832358104       -0.27642415688418        0.18334671560939
O           -2.58483781455768       -0.73559342841744        0.89866777117285
N           -0.94623590499112       -1.32510532939110       -0.35962931587015
C           -1.48283229862354       -2.65254591604571       -0.04572205730155
H            3.72220453706794        0.81133577402041        1.38654927456099
H            3.92596305226339        1.39429230219566       -0.27803630792822
H            2.61766394657807        2.03860372435681        0.72825792187566
H            3.53088287036719       -1.62324986417206        0.00986631404163
H           -1.84713505343220        2.75024680228809       -1.27857120313566
H           -3.22934416164013        1.89317833831057       -0.45658492409655
H           -2.00265664630735        2.86367552122875        0.50590325317783
H           -0.89636221929425       -3.11924112720322        0.74420866939481
H           -1.82997334768703       -3.08099490270380       -0.96010473104916
H           -2.39704746817834       -2.72058892675226        0.56593685993788
H            1.35087416113229       -2.85211746080498       -0.58741968330460
25
 energy: 30.758280668647 xtb: 6.6.1 (8d0f1dd)
C            3.18034546837445        1.14707424347461        0.50720696932489
N            2.28397287538857        0.13648357456952        0.03750193273253
C            2.58095617796659       -1.17873541903080       -0.14982778248207
N            1.43462028711122       -1.87288278784754       -0.39262061020973
C            0.39141854840451       -1.01913020647080       -0.39073327138206
C            0.89290184062428        0.27651282142352       -0.15964186328959
C            0.07550243964752        1.39455252472424       -0.12002144518663
O            0.36204213162219        2.58102768676310        0.00573205061335
N           -1.33404277065132        0.98637642780973       -0.22649659022258
C           -2.17587989082465        2.17843062292398       -0.37974659388214
C           -1.72832555396818       -0.26946129252605        0.18876563308757
O           -2.53662104196447       -0.72544192586319        0.98616536381931
N           -0.94813557655018       -1.32056343796302       -0.37464100259877
C           -1.48447572365115       -2.64678086128304       -0.05534075785604
H            3.71557520136860        0.80566189683970        1.39146405777859
H            3.91471437639314        1.40194119098243       -0.26055968073325
H            2.60590537970790        2.03175281255380        0.74981500300442
H            3.53482346193497       -1.62882755526650        0.01299080654049
H           -1.87233543931769        2.70350307009135       -1.30996166978180
H           -3.22553768450952        1.89526426682533       -0.43090207329591
H           -1.98141607768666        2.88533472994399        0.44511305714482
H           -0.86070023915887       -3.14543402097228        0.69488858028246
H           -1.88841437112692       -3.06918224780985       -0.98699310122266
H           -2.38104748897256       -2.70382432442725        0.62099115862382
H            1.35636833777383       -2.85462318729307       -0.57611427466184
25
 energy: 28.102673027000 xtb: 6.6.1 (8d0f1dd)
C            3.17125867681754        1.14738177558200        0.50265602795715
N            2.27682978889533        0.13445789716227        0.03628833628514
C            2.58547645113522       -1.18688809413430       -0.15255468651097
N            1.43172701519336       -1.87722681673916       -0.37076451147986
C            0.39369311135135       -1.02403400461265       -0.39439482250414
C            0.88911008013635        0.26888242092737       -0.16371599106576
C            0.05987468017764        1.39490307156402       -0.12774050571005
O            0.36988863538963        2.58724492262739        0.00030547572920
N           -1.33015634799988        0.99367554465455       -0.21842302769017
C           -2.18274665854087        2.17151163973461       -0.38248519936875
C           -1.71134853265591       -0.26233264447008        0.19942107063583
O           -2.49258655259274       -0.69485905659308        1.06476368266468
N           -0.95221589923349       -1.31559843078808       -0.37800076115856
C           -1.49458972929681       -2.63797580273631       -0.07121312164165
H            3.71254957345885        0.79845631190607        1.38320446446514
H            3.90413336040908        1.40677833837787       -0.26655655196720
H            2.59425541936300        2.03243601526328        0.75388153639305
H            3.53932033867701       -1.63175548247837        0.02584356745496
H           -1.90340704219264        2.65496946256068       -1.33977217827825
H           -3.23744651716841        1.88903240476479       -0.38488163888922
H           -1.96126808048645        2.90925321392497        0.40390043350389
H           -0.87843522297702       -3.17353654025548        0.64181980825954
H           -1.87355635594439       -3.05502372433252       -0.98033121760882
H           -2.36257038267508       -2.67735774789785        0.58602560915843
H            1.36442485869489       -2.86336607184007       -0.54024190248645
25
 energy: 26.086322513022 xtb: 6.6.1 (8d0f1dd)
C            3.17057930657486        1.15300294078210        0.49913640407357
N            2.27686062220223        0.13544802213214        0.02867129411892
C            2.59391660129609       -1.19704165242065       -0.14889892398280
N            1.43111522231791       -1.88089589914940       -0.35331029531754
C            0.39924043337034       -1.02881856357302       -0.39805180201201
C            0.89097420988418        0.26246658961366       -0.16663697979160
C            0.05409249532803        1.39102267488874       -0.12527758204687
O            0.37499268249596        2.58170340664124       -0.01326342345140
N           -1.33379752475586        0.99764648570883       -0.20311297277200
C           -2.18977815528319        2.16558646862491       -0.38246069788197
C           -1.70117008143300       -0.26134930551255        0.22677860678309
O           -2.46267909127327       -0.68344262674901        1.07981822936908
N           -0.95177494692158       -1.31099067946003       -0.38735232269666
C           -1.50395365562334       -2.62996829322255       -0.08535094252485
H            3.71613385773211        0.80150351549677        1.38121981453792
H            3.90363525638306        1.41950515301554       -0.27265132844541
H            2.59282421156229        2.04223934566303        0.75472688658422
H            3.54591577083822       -1.63786210109232        0.04960188636606
H           -1.92868810481832        2.61961434407246       -1.35122889074056
H           -3.23252478196401        1.88499339606472       -0.36122252338597
H           -1.96282351335469        2.92449965588556        0.36895147158592
H           -0.86104987364958       -3.19479937854283        0.59093950119926
H           -1.91642827521635       -3.03655355616181       -1.00891909037545
H           -2.36028422898016       -2.65686855687643        0.62139158204151
H            1.36688623122369       -2.87161278365722       -0.51646400508734
25
 energy: 26.974587753238 xtb: 6.6.1 (8d0f1dd)
C            3.17214562322209        1.15605137273790        0.49503544128587
N            2.27991104670675        0.13496254669399        0.02639788431818
C            2.59533442593321       -1.19872379746607       -0.13089860371546
N            1.43309819707649       -1.88380191631056       -0.33664342999434
C            0.40035202091007       -1.03194682120650       -0.39062718050230
C            0.89733177217339        0.25759479538250       -0.16720749030050
C            0.06000291908163        1.38865976742476       -0.12791048385247
O            0.37938296507105        2.57223875769616       -0.02726747408344
N           -1.33477047336808        0.99897048219259       -0.19576278822085
C           -2.19226137449507        2.16233024746361       -0.37729549813375
C           -1.69375276229573       -0.26349226118212        0.23837385139466
O           -2.43821936981653       -0.68596495129497        1.10122237564528
N           -0.95041390236034       -1.30799960722120       -0.39908194870178
C           -1.51072565246873       -2.62592074845010       -0.10439091581037
H            3.71178630343229        0.82252990332491        1.37969076005417
H            3.90699801896715        1.41568862934956       -0.26957373283719
H            2.59785830780601        2.04294390508092        0.73135957984668
H            3.54453866448326       -1.63674141888154        0.08128986372826
H           -1.95878357874706        2.59771853279046       -1.38318743670404
H           -3.25694285308085        1.86989402803953       -0.31518839276622
H           -1.93380471840584        2.95308476042054        0.36610932927211
H           -0.86428396742909       -3.20583224608946        0.55085387597837
H           -1.94510566163501       -3.01787224051965       -1.03479718292121
H           -2.35666049392509       -2.64878720616962        0.62068829001273
H            1.36919921109965       -2.87655591163375       -0.50415479684525
25