25
 energy: 0.000000000000 xtb: 6.6.1 (8d0f1dd)
C            3.23720163006194        1.16630919979326        0.08434469647475
N            2.29877817382611        0.07527477071623        0.03981603040599
C            2.58028210190900       -1.21425402444508        0.03006176031096
N            1.43813958087363       -1.93419271955128        0.00098261760884
C            0.39035688448383       -1.05887472636071       -0.00790371836672
C            0.93510056364412        0.21347819449412        0.01709077491437
C            0.09450143893243        1.40504303904423       -0.00410947031874
O            0.49712751527797        2.54126714362870       -0.00342325688240
N           -1.25076640035757        1.06271879480407       -0.03085478223738
C           -2.21907211982101        2.15522099834493       -0.05001256985998
C           -1.81739487048744       -0.20012725993278       -0.04692818574614
O           -2.99983886758376       -0.37846417018721       -0.07008878229737
N           -0.92618586207120       -1.30210215599479       -0.03682761578324
C           -1.46982264913417       -2.64643102187190       -0.06029820460571
H            3.71247264356769        1.21471455160235        1.06488849150277
H            4.00791497605742        1.03430808813993       -0.67357694370751
H            2.69910007168542        2.09770118228144       -0.09130154882931
H            3.56654120610678       -1.63682992603973        0.04233140067262
H           -1.67107961066214        3.09322851271934       -0.02552706933167
H           -2.82428953597071        2.09428624779827       -0.95318082946668
H           -2.87644029173232        2.07745725625962        0.81450067533302
H           -1.17061996399332       -3.19584890659852        0.83242232437030
H           -1.14560257411436       -3.17511610292205       -0.95688275822323
H           -2.55549792440841       -2.55659984320617       -0.07459039797972
H            1.38130855184625       -2.94313852034425       -0.01389874181052
25
 energy: -5.368820278588 xtb: 6.6.1 (8d0f1dd)
C            3.24439212006387        1.17793058142302        0.09225890140194
N            2.30847501039883        0.09641195023311        0.03815280792914
C            2.60011371735724       -1.23174003700071        0.02795424461898
N            1.42833092483982       -1.93937244511423       -0.00520065614233
C            0.39776367948797       -1.05546198025467       -0.01392118467829
C            0.93064799789988        0.22354106534325        0.01268603111967
C            0.10107463395799        1.39649718730993       -0.00806653836233
O            0.49695342236504        2.56269991959031       -0.00435291026343
N           -1.26105382729780        1.04986876042649       -0.03390268932615
C           -2.21962770647814        2.14768328334006       -0.05298038519387
C           -1.82145602557327       -0.20383067174754       -0.04759032925829
O           -3.01609090689228       -0.39664751561881       -0.06017807949627
N           -0.93192966890303       -1.30131225213809       -0.04132948090743
C           -1.47315416779651       -2.64195257224659       -0.05961177538330
H            3.72264389128462        1.21919070560428        1.07449522957872
H            4.01243138130657        1.04630418799660       -0.67124090382213
H            2.69770229309316        2.10332424147328       -0.07902553625557
H            3.57807551284413       -1.65828288171981        0.04240528392348
H           -1.65761561925531        3.07865286833838       -0.04110675749729
H           -2.83320057897646        2.08979858203695       -0.95085915985128
H           -2.86925256656774        2.08694757882893        0.81875468978840
H           -1.17057579114272       -3.18930515573040        0.83532616977593
H           -1.15502415690681       -3.17110303396896       -0.95879716345599
H           -2.55816167170020       -2.55787109265887       -0.06532240950463
H            1.36075277052736       -2.94294267157389       -0.02151350259039
25
 energy: -6.472276281533 xtb: 6.6.1 (8d0f1dd)
C            3.25164436850307        1.18544334804573        0.10667015537501
N            2.31553416664473        0.10979027814105        0.03489065403757
C            2.61161059530809       -1.24411387805561        0.02280102293337
N            1.41786460401900       -1.93725875701915       -0.01774672196076
C            0.40313954730641       -1.05113976384898       -0.02586887353801
C            0.92704855156944        0.23237456259994        0.00455668146443
C            0.10632510189942        1.38408023618936       -0.01567327415824
O            0.48326644502654        2.56654731621524       -0.00851026265042
N           -1.27296491359597        1.03740496651854       -0.04009509760377
C           -2.21919291696491        2.14170777265891       -0.05947818498462
C           -1.82224250902836       -0.20854799351348       -0.04556245204991
O           -3.01959995469973       -0.41881035946549       -0.04092676445126
N           -0.93560790916133       -1.29906668524779       -0.04938463147664
C           -1.47518603761528       -2.63702198481168       -0.05709068599080
H            3.73643526707131        1.21936638340816        1.08825382892741
H            4.01959132826669        1.06930358166942       -0.66161173931676
H            2.70013985137207        2.11048271327023       -0.05111062508585
H            3.58252781592199       -1.67633358042725        0.04138216391591
H           -1.63736312363108        3.06202827629450       -0.07460713139396
H           -2.85093732588593        2.07956297974220       -0.94491104339849
H           -2.85254069653616        2.10822296463494        0.82674188582626
H           -1.16520233229808       -3.18132935330637        0.83853259968845
H           -1.17207756917740       -3.16851111287469       -0.96038639112412
H           -2.56050408604754       -2.55681894156758       -0.04654466619303
H            1.34050639966919       -2.93833436707816       -0.03728655064448
25
 energy: -6.323388531934 xtb: 6.6.1 (8d0f1dd)
C            3.25570626390283        1.18869711374762        0.12629615186636
N            2.31976613601117        0.11407828586600        0.03034525068144
C            2.61532748409317       -1.25072975221550        0.01348298530738
N            1.41325274605199       -1.93450959414253       -0.03540849571960
C            0.40589132951250       -1.04948654858676       -0.04178518919313
C            0.92633067516787        0.23680508730025       -0.00570562052396
C            0.10824261566037        1.37834283779424       -0.02548552328105
O            0.46741023744830        2.56694527062015       -0.01694895327806
N           -1.28219399493946        1.03077158219489       -0.04831802096330
C           -2.21851350694503        2.13998919314628       -0.06915416245551
C           -1.82313258662586       -0.21316041007588       -0.04032334779870
O           -3.01949237247996       -0.43688902443114       -0.01571032259310
N           -0.93581992202586       -1.29837764903776       -0.05928037979206
C           -1.47534673440689       -2.63515608232805       -0.05225106644579
H            3.74570577274609        1.20765864467027        1.10696695860739
H            4.02472013270041        1.09665955671606       -0.64570477117027
H            2.70275405537740        2.11745330781608       -0.00996520020342
H            3.58266669703967       -1.68815064092918        0.03746493937391
H           -1.62053539536254        3.05065664349132       -0.12442887443598
H           -2.87627534941627        2.06281576820208       -0.93543957440448
H           -2.82692245883241        2.13957985357183        0.83737604980699
H           -1.15208247998768       -3.17547700990177        0.84146678089492
H           -1.19369144821656       -3.16941689441992       -0.96095318029113
H           -2.56112623215098       -2.55493101430577       -0.01929790699141
H            1.32957300361389       -2.93513992259079       -0.06020463085015
25
 energy: -4.110344927291 xtb: 6.6.1 (8d0f1dd)
C            3.26324764901947        1.19431258110625        0.18955553342160
N            2.33004934104133        0.12052886199749        0.01461167528936
C            2.62164514037356       -1.26454672679773       -0.01891897218494
N            1.40602257748998       -1.92730665597826       -0.09135050752739
C            0.41186440118016       -1.04656775383739       -0.09222436227352
C            0.92660084652605        0.24603653363979       -0.03760676329133
C            0.11269592446411        1.36842995121453       -0.05519418868582
O            0.42604517118897        2.56784397900301       -0.04412777472979
N           -1.30489031691635        1.01692754486602       -0.07516398793785
C           -2.21623948583041        2.13876207343150       -0.10111701657498
C           -1.82589007371752       -0.22497880969089       -0.02369918238149
O           -3.01739795094139       -0.48262379270520        0.06487616566031
N           -0.93399375196517       -1.29772429866780       -0.09134958932801
C           -1.47415859248920       -2.63260371398807       -0.03546692324105
H            3.76550956200341        1.15706871738884        1.16814714841011
H            4.03473256658192        1.17861062907056       -0.59304357644956
H            2.70647255881732        2.13473216189111        0.12401338878591
H            3.58111279909123       -1.71523622503305        0.02216353671843
H           -1.58185330430533        3.02423574921684       -0.28877882926992
H           -2.95912401371899        2.00552752954305       -0.90186274911137
H           -2.74087869637264        2.24213871149099        0.86924404728361
H           -1.10442535593058       -3.16077969992180        0.84938357332205
H           -1.26194288368498       -3.17531603179883       -0.96094940491972
H           -2.56048238185768       -2.55101263598306        0.07029075172416
H            1.30749293788877       -2.92743007728589       -0.13439809656151
25
 energy: 0.197726117097 xtb: 6.6.1 (8d0f1dd)
C            3.26688680869023        1.19566294165202        0.25590427287853
N            2.33881425321496        0.12294976649067       -0.00423223992509
C            2.62481769743737       -1.27404910350123       -0.05521240802949
N            1.40333906138531       -1.92054548462751       -0.14996011015157
C            0.41594279002735       -1.04430183053734       -0.14505996369913
C            0.92866731750157        0.25280697189921       -0.07039904304367
C            0.11748098238713        1.36439434414662       -0.08349895525812
O            0.39093895836302        2.56859938229156       -0.07133954210249
N           -1.32404422992542        1.00803457390498       -0.10407107909186
C           -2.21365625032643        2.14043336465771       -0.13687617287251
C           -1.82777712726240       -0.23423817244270       -0.00516648292543
O           -3.01110630587729       -0.52140620198352        0.15161191459167
N           -0.93085738408702       -1.29739468727083       -0.12626244856617
C           -1.47113929447968       -2.63142347645700       -0.01588617939598
H            3.77992029965150        1.09332984705508        1.23062565867091
H            4.03901224107286        1.26031639791127       -0.53503727654348
H            2.70629395323201        2.14537443584219        0.26644518207570
H            3.57803974039478       -1.73647894910476        0.00426057731577
H           -1.56277148919427        3.00100461102121       -0.45675687009172
H           -3.04078196175002        1.94892315354689       -0.86283437892583
H           -2.64928289742169        2.34587171649411        0.88719177700619
H           -1.04897045436445       -3.14732368728122        0.85604592610428
H           -1.33502208728766       -3.18263121337107       -0.95698014296160
H           -2.55516232868521       -2.54847134586661        0.16875138056376
H            1.29263237523945       -2.92040875229770       -0.21422949947543
25
 energy: 0.366388539388 xtb: 6.6.1 (8d0f1dd)
C            3.26222372217732        1.18775989560262        0.29655780849369
N            2.34150544983313        0.11565909833808       -0.02069220668880
C            2.61899340801108       -1.27113200222763       -0.08065483950972
N            1.41004743378838       -1.91582876395953       -0.18557484145810
C            0.41404939353820       -1.04402750908675       -0.17866014478561
C            0.93379356480253        0.25245319679812       -0.08967157962524
C            0.12095193169632        1.37350001927067       -0.09448784271354
O            0.37681444662619        2.56785543325362       -0.08393776013143
N           -1.33017586456080        1.01174715380303       -0.12504677376452
C           -2.21168005629827        2.14669831346190       -0.16343595345390
C           -1.82720978042731       -0.23548707830974        0.00793449633937
O           -2.99703086539736       -0.53316292421111        0.21147559688506
N           -0.92645881650695       -1.29760282978430       -0.15284735489526
C           -1.46560648445631       -2.63301720565529        0.00055958901101
H            3.78065765095318        1.03729053313042        1.26313121544501
H            4.03089411447167        1.30531038940839       -0.49341534753925
H            2.70081489355114        2.13758742213795        0.35754102580855
H            3.57158561527254       -1.73903132037453       -0.00957048747374
H           -1.58734138785982        2.99002352200289       -0.54603058632576
H           -3.07600446444779        1.92643299412577       -0.83324601430987
H           -2.59299995884424        2.40066636005920        0.86429187489328
H           -1.00580928785721       -3.14071127375354        0.85799528906402
H           -1.38425476574265       -3.18918126476271       -0.94478520098384
H           -2.54182997736935       -2.54835289528100        0.23835621609139
H            1.29628475298233       -2.91642066181453       -0.26875228222556
25
 energy: -1.557012795747 xtb: 6.6.1 (8d0f1dd)
C            3.24401436330283        1.16563782425029        0.33012785353978
N            2.33714323052277        0.10316925621790       -0.03474555906086
C            2.60311501435789       -1.24452980505136       -0.10436135745936
N            1.42699733928393       -1.91041182028137       -0.21532968950837
C            0.40217387698243       -1.04175068331156       -0.20314859391292
C            0.94039176920899        0.24701624703152       -0.10357135494822
C            0.12311093861490        1.39540628366571       -0.10098367579268
O            0.38604852728301        2.57479534102137       -0.07977163488223
N           -1.31795067859961        1.02032761016722       -0.14685651653570
C           -2.21045224127588        2.15321668456290       -0.18732551866195
C           -1.82517053558525       -0.22944075384055        0.01604780425563
O           -2.97194748454964       -0.51147593596807        0.27632468409504
N           -0.92513818276846       -1.29991432108526       -0.17813150561533
C           -1.45648008398299       -2.63728957299649        0.01869331896584
H            3.75895646517326        0.96407451007002        1.27776576554628
H            4.00090580722769        1.31588944130326       -0.44201632650211
H            2.68040623641886        2.09392006025331        0.42882305485625
H            3.56014044489844       -1.71071691400881       -0.02832054007631
H           -1.65978369788935        2.97649665851726       -0.61927987830577
H           -3.08078723957233        1.91957249171080       -0.78966380513749
H           -2.53764270877465        2.44071082724385        0.80313943236465
H           -0.95741904780875       -3.13952927959613        0.84862435422338
H           -1.42184696923772       -3.19433334905199       -0.91340790700329
H           -2.50876122322347       -2.55214490649681        0.30016046731348
H            1.32219074792898       -2.90966729215500       -0.32575897561053
25
 energy: 0.887376937923 xtb: 6.6.1 (8d0f1dd)
C            3.23340216318215        1.15260412068784        0.39417717411005
N            2.33847249766227        0.10459552356571       -0.05244307400734
C            2.60021124046373       -1.23422932688384       -0.13915988354834
N            1.43141380929885       -1.90474966016635       -0.26831723016586
C            0.39908153666332       -1.03675054353804       -0.25182942046583
C            0.94134054452141        0.25091868736899       -0.13315109745782
C            0.12753183665864        1.40179467106100       -0.12832049288570
O            0.37910339389198        2.58537585139025       -0.08880538605379
N           -1.31809944617979        1.01637914583789       -0.18117860299841
C           -2.20840350693422        2.15422167863435       -0.22529041247595
C           -1.82267869947010       -0.22971850289046        0.02938210587406
O           -2.95350063962601       -0.51728870795766        0.37919274692485
N           -0.92562298979412       -1.30107631560664       -0.21771984599635
C           -1.44866565807594       -2.63726887138065        0.03516537480004
H            3.75086805508707        0.87247629863605        1.32784566938382
H            3.98357350687075        1.37166436348093       -0.37371394452253
H            2.65881840757588        2.06865791760021        0.56749146905636
H            3.55517986037744       -1.70325390026692       -0.04542692061489
H           -1.69190177574784        2.95222465573319       -0.80655299442646
H           -3.15779926604963        1.85982014607972       -0.72308445224729
H           -2.42386160225710        2.54782760580119        0.79725489087346
H           -0.88542955805631       -3.13177473633477        0.83529218377357
H           -1.49417234888625       -3.20025026013564       -0.90091870682773
H           -2.48320835816490       -2.55264124692651        0.40308076843361
H            1.32656166492455       -2.90052999161787       -0.40593602238836
25
 energy: 1.321417601664 xtb: 6.6.1 (8d0f1dd)
C            3.21895277941161        1.13916564934182        0.43693564979287
N            2.33276807046516        0.11436050996569       -0.06189840417142
C            2.60057414856770       -1.22156321308882       -0.17114370881299
N            1.42911618755445       -1.90350547794523       -0.30603130996891
C            0.39663833827796       -1.03062033812422       -0.27833037142190
C            0.93436559824775        0.25604465109106       -0.15027419361030
C            0.12430947763721        1.40211833777381       -0.14622157420363
O            0.39157198562338        2.59773284917833       -0.08305648068283
N           -1.30663758522582        1.01259784576639       -0.20626091246743
C           -2.20521749570823        2.15140295780611       -0.25526476015066
C           -1.81468593298320       -0.22488204939252        0.03616091960953
O           -2.93045712820855       -0.50131608142074        0.43739816294387
N           -0.93215018204125       -1.30305093024300       -0.23198168230704
C           -1.44322876783118       -2.63476395974794        0.05065336325602
H            3.73367669878091        0.80008157500774        1.35473343820785
H            3.96498522326924        1.40303466712913       -0.32547010086787
H            2.62817955382729        2.03615149916534        0.66615977272840
H            3.55584400944315       -1.68552731521976       -0.06958198191951
H           -1.73328279642094        2.92317187308103       -0.92394413151504
H           -3.19010062085864        1.82413883922413       -0.67160295321896
H           -2.34319045956526        2.60961459975090        0.76574482819083
H           -0.83089698055449       -3.12933290144057        0.81809894420085
H           -1.54420905360534       -3.20326895713047       -0.88287937979782
H           -2.45616468345229       -2.54936664152593        0.48622509555389
H            1.33145428328515       -2.89338938683030       -0.46113433322061
25
 energy: -0.298361518966 xtb: 6.6.1 (8d0f1dd)
C            3.19984265085967        1.12548461426114        0.47083601435886
N            2.31933064162305        0.13112663797558       -0.07056347883046
C            2.60384029025441       -1.20893692415654       -0.21314243652377
N            1.42113222707900       -1.90427473070860       -0.33683343222426
C            0.39637955110578       -1.02439411704558       -0.29109540927792
C            0.91942236251167        0.26110306690252       -0.16026968887644
C            0.10818939355253        1.39633798685104       -0.15601809184459
O            0.41903216863223        2.60130485513906       -0.07569270673915
N           -1.28998756115174        1.01300021798067       -0.22504468414476
C           -2.20346403596767        2.14871279523511       -0.28114582037682
C           -1.80256898860026       -0.21543893942197        0.04083398312315
O           -2.90728675121486       -0.47022431594504        0.47317399318666
N           -0.94162759397399       -1.30414791659775       -0.22491557410083
C           -1.43861420507570       -2.62852409603844        0.07232290875805
H            3.70689734484965        0.74558035741554        1.36879178974092
H            3.94791070585623        1.41666256484503       -0.27704635927704
H            2.59784909605527        1.99788703876378        0.73480658451422
H            3.56135172190036       -1.66147993573879       -0.10820764694313
H           -1.77586399940376        2.88662172891607       -0.98068040868998
H           -3.18111991728623        1.81261076242852       -0.63687118047771
H           -2.29670134173751        2.63284282697783        0.70511900351900
H           -0.79367606331867       -3.12976844673128        0.80210460011643
H           -1.57341912224078       -3.20219379121291       -0.84901839783378
H           -2.42199915233280       -2.54286441071586        0.55171085899554
H            1.33736524595987       -2.88799922720721       -0.50612052400500
25
 energy: 1.017182173990 xtb: 6.6.1 (8d0f1dd)
C            3.18165591984278        1.10950877778252        0.53183641386608
N            2.31233920025255        0.13577936932310       -0.09847811488659
C            2.60202704991555       -1.20100420335000       -0.27487086286884
N            1.42076566904195       -1.89755885366426       -0.38675622070706
C            0.39633881395670       -1.02174496828783       -0.32552418083319
C            0.91440907667239        0.26210718736529       -0.18135375664776
C            0.09527179519754        1.39829019373786       -0.16458580600706
O            0.41899958084552        2.59178371595371       -0.09178701700955
N           -1.29026114772070        1.01972499999388       -0.25051257422371
C           -2.20226741493274        2.15424375017306       -0.32114134902051
C           -1.79320473626412       -0.21007197439045        0.06384639660022
O           -2.87938538696746       -0.45943219683795        0.53810707840718
N           -0.94205881150057       -1.30183703205031       -0.23723852739369
C           -1.42971415554615       -2.62251823873680        0.10443254086543
H            3.68713846164476        0.66756996954692        1.40654988233343
H            3.93325532713475        1.46217630599217       -0.19249140301874
H            2.57948457632669        1.96466138264274        0.85373767064055
H            3.56025722845315       -1.65063663319096       -0.15367376792564
H           -1.82071919118270        2.84499150937523       -1.09775519283909
H           -3.20713341207620        1.78447509434234       -0.58192964195383
H           -2.21969306155602        2.69852665126784        0.63854912772304
H           -0.73486052392416       -3.12545233849323        0.79053388087804
H           -1.63241704257423       -3.19850251568895       -0.80961430411231
H           -2.38165547820605       -2.53564059582432        0.65330589272469
H            1.34364233110242       -2.88041075480968       -0.58615226844395
25
 energy: 0.983481944479 xtb: 6.6.1 (8d0f1dd)
C            3.16438519721078        1.09242838298502        0.56248794326431
N            2.30692293209758        0.14319966425228       -0.11505716336668
C            2.60437250271344       -1.19337669325773       -0.32370056239943
N            1.42091224666300       -1.89147458325289       -0.40865543750674
C            0.39788956288747       -1.02185970236142       -0.33260960390336
C            0.91099614079292        0.26011760900561       -0.18289232634686
C            0.07714075751300        1.39769485981732       -0.16197473925278
O            0.41806110062751        2.57908842904354       -0.09886628929433
N           -1.29204293318180        1.02689020314179       -0.25887838975043
C           -2.20672379375044        2.15583914869364       -0.34101267772619
C           -1.78371263781542       -0.20502869596614        0.07220140202814
O           -2.86067847375039       -0.44044719821129        0.56174302091344
N           -0.94158857415908       -1.29730289288276       -0.22964135801980
C           -1.42029255490594       -2.61483743934193        0.12511597947472
H            3.66053755674183        0.63098156970456        1.41558923127717
H            3.92406301050139        1.46429225466910       -0.12432954209318
H            2.56292574048657        1.92536312946356        0.90026237652192
H            3.56365244129229       -1.63777576418183       -0.19036711107476
H           -1.85739602523670        2.80196389310012       -1.16610225285394
H           -3.21650605196801        1.77480025815434       -0.53240830138846
H           -2.17364389845554        2.74766285509028        0.59102344803252
H           -0.71416398859686       -3.12764155300061        0.77263554063008
H           -1.64690314187637       -3.18588993478221       -0.77062670572264
H           -2.33959556078692       -2.52271409167386        0.69377559642928
H            1.35360311289132       -2.87294510603659       -0.63067818172487
25
 energy: 1.703161862602 xtb: 6.6.1 (8d0f1dd)
C            3.15438470425483        1.07723435067246        0.58958776265117
N            2.31008178386006        0.14972412961901       -0.13901898644614
C            2.60933173130845       -1.18861639830153       -0.37302714919534
N            1.42312085921826       -1.88496084692854       -0.43328295644361
C            0.40117289970683       -1.02201222605842       -0.34842871572498
C            0.91371000644129        0.25915481766162       -0.19053734271456
C            0.06967025486884        1.39744635989674       -0.16867252827819
O            0.40684267576591        2.57266333493166       -0.10596352398212
N           -1.29800669261390        1.03027998374223       -0.27008818819156
C           -2.20994237313135        2.15633230178710       -0.36359928417740
C           -1.77741466443881       -0.20441677595265        0.06927863119356
O           -2.85151794128070       -0.43410071063136        0.59619012330207
N           -0.93780645097861       -1.29113670994342       -0.23183989680309
C           -1.41251867942787       -2.60770939204075        0.14592427041371
H            3.64594604752025        0.57136431954654        1.43067771166707
H            3.92186304597706        1.49189374858599       -0.07227447273479
H            2.54241659084725        1.89853486701160        0.97235930201347
H            3.56659613393064       -1.63327671630378       -0.21229797538708
H           -1.89155172813373        2.76008935132990       -1.20681836999582
H           -3.20814420526378        1.78517657347513       -0.50418535184894
H           -2.15401375494618        2.77856336048246        0.52354360767824
H           -0.66376512863665       -3.12718617021320        0.75503897444739
H           -1.69707500848562       -3.17701143033070       -0.75088277720643
H           -2.31107639484649       -2.50543829758763        0.78033122358559
H            1.35991095641960       -2.86356322227856       -0.66498019167514
25
 energy: 1.373642035213 xtb: 6.6.1 (8d0f1dd)
C            3.14977228295192        1.06583675140499        0.59711037082365
N            2.31313252827936        0.15544813989856       -0.15112138789488
C            2.61230620836464       -1.18244794168621       -0.39611570967158
N            1.42481080022926       -1.88276398052925       -0.44053003841570
C            0.40141259887309       -1.02072712259856       -0.34338480284259
C            0.91566252272101        0.25968475023857       -0.18867385777173
C            0.07212905168518        1.39860103590300       -0.17127435286329
O            0.40586936008843        2.57647930029013       -0.10076469498416
N           -1.29680209715348        1.03061178800710       -0.26705526861789
C           -2.20989634988893        2.15498911067329       -0.37049369544225
C           -1.77480806035099       -0.20386146734857        0.07627349055536
O           -2.84504098011726       -0.42507281849670        0.58342848307062
N           -0.93730923413102       -1.28804630058592       -0.22182762090570
C           -1.40865840150396       -2.60396754722091        0.15117869320374
H            3.63618877484467        0.53952931664299        1.43226319160925
H            3.92061265367761        1.49955553433998       -0.04992653977422
H            2.52903460061452        1.87532580003756        0.99498121966131
H            3.56705524982204       -1.62740314195910       -0.21507855790015
H           -1.92021961558569        2.73979403654040       -1.25887967217344
H           -3.23311353925518        1.77062465931407       -0.46055067551762
H           -2.12184309843089        2.80986886321335        0.50424450158327
H           -0.64999023060475       -3.13258757505317        0.73715987922282
H           -1.71102059156216       -3.16580570848568       -0.74089100288759
H           -2.29121253525930       -2.49629326521616        0.80049381644133
H            1.36414276962745       -2.85834361515187       -0.67353187236143
25