72
 energy: -103.310447557117 gnorm: 0.093353121419 xtb: 6.6.1 (8d0f1dd)
N           -1.48478348069151        2.76417889632429        2.22798369078232
C           -1.56639003858988        2.16565017755724        1.14876308440218
C           -2.75064773546248        2.06039167881278        0.24356173474306
C           -3.31619304531620        0.64669168719992        0.32645853354819
C           -4.30069399621809        0.24357975335334       -0.57738261768683
C           -4.84663484390689       -1.02542880325145       -0.53193971536612
O           -5.80722068976792       -1.49495793149451       -1.36439726782202
C           -6.38660812407704       -0.61803545096778       -2.30108685382193
C           -4.39587631948286       -1.94478596852424        0.44856387505180
O           -4.98418951423057       -3.16548923974990        0.41647660975941
C           -4.66132507599057       -4.09901073583703        1.41733186812284
C           -3.42253411121533       -1.54119646094325        1.34001392922929
C           -2.88717435084307       -0.25827189272993        1.27903447144398
C           -2.20217166919154        2.31027187413437       -1.18221819895773
C           -1.27055628468633        1.18410008677041       -1.66352216728760
C            0.00385612837352        1.12412804141098       -0.90169432911044
N            0.63604516449318       -0.01377643650957       -0.59016085878743
C            2.00433211796194       -0.01039759395298       -0.17207573850995
C            2.93158326080221       -0.51752887460143       -1.29109149135258
C            4.36087486975720       -0.41697877547299       -0.84580477198858
C            5.08155218778205        0.74416281055563       -1.05086195598506
C            6.39663255646796        0.84714665519058       -0.61320681327067
C            6.99379012724283       -0.21892703558525        0.04823391885739
O            8.27344786879377       -0.21451949893882        0.51952827077942
C            9.07288232535558        0.92585500985639        0.31389746846132
C            6.25560358933734       -1.41623971385461        0.27782805690667
O            6.91778750979225       -2.42484059721701        0.93372547020362
C            6.35834305696204       -3.70510079727725        1.19328007252922
C            4.95615879430789       -1.47973483896418       -0.17473803620529
C           -0.04796126004115       -1.29032071785106       -0.63680629059469
C           -3.87838284369482        3.07784368701246        0.58657623553441
C           -4.50187560726773        2.77216340283536        1.94639128790820
C           -3.40825060539603        4.52916647790028        0.54996831159731
H           -4.65635114093361        0.94138837491321       -1.31849984138162
H           -6.84308634013850        0.24880596145676       -1.81361664043429
H           -7.16013680761625       -1.19809315118318       -2.80084348763892
H           -5.65588083887726       -0.27879882671347       -3.04324556769783
H           -4.88541046297243       -3.71189800033899        2.41528446997390
H           -5.28794132346904       -4.96663117852234        1.21772122263812
H           -3.60836738105399       -4.39529014156886        1.36743701165143
H           -3.07257253559007       -2.21248884862554        2.10826190858754
H           -2.15157437336805        0.02967211775310        2.01552800568734
H           -3.03116943211398        2.39262931442410       -1.88278412306560
H           -1.65990388075719        3.25697735007780       -1.19602552976955
H           -1.81132524666941        0.24141465626110       -1.62579888130523
H           -1.01163620972526        1.38684471587550       -2.70964858576891
H           -0.68452566308468        1.65469926778761        0.63683667810132
H            0.63257034399646        2.00002972730367       -0.93838466917094
H            2.11896734201797       -0.64662402655962        0.71083359878317
H            2.29890382087529        1.00430006954215        0.09983930184978
H            2.76968783414580        0.09722464178127       -2.17979760232673
H            2.68021996766493       -1.55013093568676       -1.53211310768839
H            4.63412594142431        1.57843507628224       -1.57256535645643
H            6.93882192060693        1.75999674502046       -0.79987121110512
H            8.65733862611452        1.81082297330102        0.80934002703278
H            9.20970928099189        1.13696836122717       -0.75123495766179
H           10.03702172244476        0.68596502808853        0.75929861876762
H            7.10780547281286       -4.27464561557163        1.68037489470941
H            5.47463591700452       -3.61654384546746        1.84601658509901
H            6.05647452391531       -4.19885749928338        0.25971779705808
H            4.38792950982452       -2.38509302340265       -0.01579662636016
H           -0.21937935849665       -1.60511097531960       -1.66803916067649
H           -1.01326943804379       -1.23495929040924       -0.12073970693179
H            0.56773618830194       -2.03733753497069       -0.14412721557807
H           -4.65181455197428        2.95185908041390       -0.17880858375932
H           -3.77073210846194        2.90348806825915        2.73446077073132
H           -4.87914055946913        1.75249083467919        1.98348464800282
H           -5.33099169453773        3.45140097571216        2.12775350233880
H           -2.61706035760479        4.69260005823632        1.27343324462400
H           -3.05973455977553        4.81824550238387       -0.43728425278530
H           -4.24103213200133        5.17910509885774        0.80928937213010
H           -0.61358106437368        2.79565392258491        2.73772145638703
72
 energy: -103.313830852025 gnorm: 0.033268556773 xtb: 6.6.1 (8d0f1dd)
N           -1.50184252392189        2.79630474903082        2.24103288802696
C           -1.57081392308163        2.16133671690687        1.16483517976058
C           -2.75336079376564        2.06352675261502        0.24991159767233
C           -3.32097343077261        0.65177155955356        0.33093435823303
C           -4.30342054951877        0.24508633492762       -0.57419608678575
C           -4.84663640607740       -1.02489803517441       -0.53051565943575
O           -5.81025112812748       -1.49644491127561       -1.36560618089730
C           -6.38570606438598       -0.61829175680920       -2.30124428651762
C           -4.39699452984290       -1.94314513998142        0.44788562791200
O           -4.98721018871263       -3.16787953711316        0.41496900789916
C           -4.66084007664016       -4.09869834680290        1.41635285511550
C           -3.42574070187519       -1.53807483218724        1.34214380716554
C           -2.89382980720803       -0.25362078337444        1.28364098444193
C           -2.20277746064961        2.30726613373295       -1.17927786614453
C           -1.26700144469301        1.19389637148411       -1.68074660849082
C            0.00445827015481        1.13911485778905       -0.90560586521895
N            0.63986280123400       -0.02969063080288       -0.58183607055720
C            2.00810809877383       -0.02290833707875       -0.17249276571290
C            2.94031804127642       -0.52322193729595       -1.29398845223801
C            4.36718138046406       -0.42773110201978       -0.85316389704995
C            5.08852789968297        0.73405819554881       -1.05231167356715
C            6.39865788397513        0.83494944112599       -0.60599228239727
C            6.99947023576104       -0.22518132115807        0.05537418066785
O            8.28083939281075       -0.22092237814352        0.52487276887743
C            9.07251488400299        0.92205132722345        0.31512319933911
C            6.26488097777612       -1.41848659715624        0.27895707355363
O            6.93614220699078       -2.41299310546161        0.93608458867255
C            6.34513027703071       -3.67568266991628        1.17949860879612
C            4.96304559037293       -1.49094598292714       -0.17524051934480
C           -0.04492545039060       -1.29660235310283       -0.63483084202184
C           -3.88485471692912        3.07681193488162        0.58445985816466
C           -4.50646024980359        2.77363495611468        1.94577594871363
C           -3.41228873991734        4.52815961944321        0.55016432128124
H           -4.65466544349557        0.94085302903409       -1.31858024103984
H           -6.84098303020565        0.24941318070395       -1.81307824071437
H           -7.16005281888342       -1.19636432421316       -2.80287179975765
H           -5.65367479008578       -0.27803687335587       -3.04167148628844
H           -4.88375022371910       -3.71085368482706        2.41537792718196
H           -5.28604064568594       -4.96815724502810        1.21940964690288
H           -3.60701476630513       -4.39331999967059        1.36747869899581
H           -3.07134587259192       -2.21208487652596        2.10633320631513
H           -2.15117230461088        0.03214131514293        2.01254737166851
H           -3.03566280255717        2.39651072539381       -1.87747830249822
H           -1.65788001318571        3.25239477330779       -1.19203226966118
H           -1.80078301176503        0.24641664618230       -1.63149374360744
H           -1.03783035140269        1.39649541662289       -2.73714583287863
H           -0.69479603290029        1.64630096802145        0.66979955546494
H            0.64697632683442        2.00495884143063       -0.97316165784055
H            2.13076951760848       -0.65521067876946        0.71335098906137
H            2.29752690036439        0.99551666707149        0.09688192072215
H            2.77186910330258        0.09416866379763       -2.17861252222246
H            2.68267330921977       -1.55435954573190       -1.53577179153198
H            4.63939822647733        1.57053633552933       -1.56897041701348
H            6.94152218176127        1.74813837337974       -0.79078142142292
H            8.65332946635993        1.80558888703697        0.80950096345442
H            9.20634790921889        1.13389035189732       -0.75100829138682
H           10.03885455289825        0.68808558628804        0.75900395819765
H            7.10846075306052       -4.25809106331351        1.67486638364829
H            5.46835861391499       -3.59686467369912        1.83624069467107
H            6.05115800563980       -4.17736755481826        0.24963074424095
H            4.39181537947106       -2.39370590300078       -0.01403272426224
H           -0.22024384784160       -1.61127632516155       -1.66816560719207
H           -1.00860396372269       -1.23376993464460       -0.12032664681502
H            0.56630262372860       -2.04732028663091       -0.14055164555191
H           -4.66003060429910        2.95419357705561       -0.18091454455520
H           -3.76579357500142        2.90310768804274        2.72779428793459
H           -4.88090204005354        1.75321797039731        1.98264170811670
H           -5.33594478413489        3.45287117750051        2.13080929651631
H           -2.61709717685336        4.68402500166775        1.27256451919122
H           -3.05946565781058        4.81476383606293       -0.43709286576693
H           -4.24271222249434        5.18185228274079        0.80995952510734
H           -0.62337573185428        2.79709638627695        2.74862064640761
72
 energy: -103.314581130270 gnorm: 0.020830981687 xtb: 6.6.1 (8d0f1dd)
N           -1.49016113114538        2.78753166833329        2.23369826462950
C           -1.55580336640415        2.15103667605443        1.15017716566243
C           -2.74961485091411        2.06235152876538        0.24595661289568
C           -3.31313968441214        0.64893588246852        0.32439911205953
C           -4.29943443358159        0.24282828103931       -0.57710864920184
C           -4.84282241494611       -1.02639956436798       -0.53152760914686
O           -5.81145708139787       -1.49786294786151       -1.36612737521437
C           -6.38648831819574       -0.61984193399432       -2.30037311899924
C           -4.39397277973653       -1.94384067700115        0.44535940173485
O           -4.98874125472082       -3.16975637905683        0.41441126883906
C           -4.66246882965850       -4.09921216101816        1.41593729297314
C           -3.42167224469288       -1.54034478409199        1.33950712329120
C           -2.88731134426908       -0.25748208462431        1.27794018348955
C           -2.20389028554559        2.30923986223858       -1.18492029686814
C           -1.26928223142054        1.19111517274086       -1.67322853802538
C           -0.00373708684361        1.14821003538844       -0.89217667789206
N            0.63703157668761       -0.03495104850822       -0.56987708126278
C            2.00361142950363       -0.01442373551878       -0.16715094530655
C            2.93583672935432       -0.51308348480621       -1.29116277418520
C            4.35852223534429       -0.41718419864196       -0.84856448477473
C            5.08163009813326        0.74317616172379       -1.05019777468427
C            6.39210716924019        0.83643185269377       -0.60800199227507
C            6.99202781442295       -0.22484171116906        0.05307883624269
O            8.27488476477926       -0.21996139156654        0.52084608414933
C            9.06815984536779        0.92208272378245        0.31331461876734
C            6.25764590257517       -1.41854508633311        0.27948097720334
O            6.93077289339162       -2.41567877852319        0.93362215496438
C            6.34372581879489       -3.67853302060317        1.18002285380632
C            4.95259040385964       -1.48499556392729       -0.17110995263750
C           -0.04570256257950       -1.29429770902066       -0.63638313068728
C           -3.87660007296187        3.07522801867485        0.58675407751082
C           -4.50239344751137        2.77212646230678        1.94697931946914
C           -3.40947192548502        4.52976792039625        0.55103424446679
H           -4.65359555433885        0.93984473373552       -1.31876027934057
H           -6.84238147263945        0.24836883975540       -1.81269558254669
H           -7.16147763998892       -1.19837641174922       -2.80080865102823
H           -5.65641351702930       -0.27915824415955       -3.04265759580355
H           -4.88531836078811       -3.71151219801767        2.41576177674388
H           -5.28891159196514       -4.96778177403055        1.21891195642515
H           -3.60892906376312       -4.39589896414291        1.36799630450405
H           -3.07145153191327       -2.21327052773631        2.10683524127386
H           -2.14959479465103        0.02958690812248        2.01075710772579
H           -3.03613596241982        2.39603832777204       -1.88546696668437
H           -1.65857873184374        3.25476998727816       -1.19857871916512
H           -1.80256795561315        0.24103104493975       -1.62204531824731
H           -1.02739392363789        1.38742487249937       -2.72631978330805
H           -0.68624367499540        1.65780162165239        0.64807338853216
H            0.63792104949043        2.01272473127683       -0.94363894110336
H            2.12805805287149       -0.64517295700248        0.71928441610079
H            2.28995794282583        1.00683623094778        0.10126497696241
H            2.76532841894044        0.10243179867354       -2.17614354819416
H            2.67624860468325       -1.54482810298502       -1.53078070709809
H            4.63304310916780        1.57897154640163       -1.56938040724956
H            6.93692686207286        1.74984984212366       -0.79687168104048
H            8.65405543039132        1.80793416342795        0.80806795828717
H            9.20707993756598        1.13670521131159       -0.75212297348279
H           10.03355825490902        0.68517389431219        0.75818666970367
H            7.12045066220784       -4.26462931123670        1.68010975901262
H            5.47621694052717       -3.61942948821785        1.84635485041813
H            6.05656738425450       -4.20020450236179        0.26059572218154
H            4.37719500230929       -2.38449113034051       -0.01463214041867
H           -0.21981968777123       -1.60527838995662       -1.67266252126247
H           -1.01038341496900       -1.23650958454306       -0.12401740871864
H            0.56733810797681       -2.04466346102275       -0.14427903244789
H           -4.65149783882652        2.95246470285437       -0.17890723797728
H           -3.76575396092151        2.90284603689922        2.73344049318364
H           -4.87672441973973        1.75178760207382        1.98319958437200
H           -5.33274936975214        3.45133091548230        2.12710816674774
H           -2.61448910623130        4.69110325149097        1.27313521712561
H           -3.05769052276345        4.81751407585808       -0.43683386477520
H           -4.24275441752826        5.17980675222356        0.80968453491786
H           -0.59471966874269        2.77833587420840        2.71826383438534
72
 energy: -103.315040813002 gnorm: 0.011035612427 xtb: 6.6.1 (8d0f1dd)
N           -1.51140285593259        2.78507902327607        2.24035096890680
C           -1.56239335479481        2.15705608999887        1.15331591893850
C           -2.75335082929461        2.06274342565654        0.24689086576898
C           -3.31734372870588        0.64979828090434        0.32754739985084
C           -4.30272355543458        0.24443490649681       -0.57493929441638
C           -4.84526578847182       -1.02475436518363       -0.52898298075136
O           -5.81150519380703       -1.49617043656342       -1.36586199908354
C           -6.38509961806979       -0.61823497543984       -2.30092196538173
C           -4.39622366105448       -1.94190186561536        0.44820608525238
O           -4.98794547224448       -3.16865408237090        0.41599019786870
C           -4.66039897091259       -4.09838801917218        1.41633503351110
C           -3.42432914868978       -1.53915550513769        1.34275482385843
C           -2.89124121098890       -0.25618719629308        1.28186344649745
C           -2.20198252993572        2.30973777432878       -1.18124422693144
C           -1.26953649183746        1.18849194635348       -1.66763875417994
C           -0.00003384038646        1.14263472636778       -0.89780825155291
N            0.63996429961991       -0.03556432436294       -0.58112542027113
C            2.00648154492852       -0.01671232461888       -0.17712620310708
C            2.94166134904824       -0.52101068460065       -1.29602243779437
C            4.36429632479628       -0.41906812470422       -0.85043154583720
C            5.08603462052782        0.74252057507436       -1.05303149818478
C            6.39713913211777        0.83990489367623       -0.61106644863713
C            6.99673516982925       -0.22196142296270        0.05129611895027
O            8.27846379736708       -0.21529849735286        0.52164000790256
C            9.07361154956757        0.92553887147023        0.31515586579796
C            6.26291193296442       -1.41807194580886        0.27887246306988
O            6.92943351244060       -2.42071241197751        0.93491539671116
C            6.34317491045703       -3.68371797508422        1.18188977190394
C            4.96025643691631       -1.48515239650824       -0.17441275991842
C           -0.04731197418907       -1.29221087693836       -0.63693080872455
C           -3.87986955269655        3.07606781113063        0.58624412895997
C           -4.50559306428073        2.77286679941265        1.94654923054703
C           -3.41083505244030        4.52976075567371        0.54988637370145
H           -4.65705626769141        0.94168999998291       -1.31671775408052
H           -6.84264663877957        0.24980235613529       -1.81443370388872
H           -7.15905400126850       -1.19695653688274       -2.80261647791088
H           -5.65419744232150       -0.27754377571130       -3.04251351238104
H           -4.88435842159829       -3.71209877630013        2.41627275088455
H           -5.28571881109084       -4.96743455088309        1.21807226308956
H           -3.60653789665462       -4.39363567881026        1.36777124050710
H           -3.07379590884035       -2.21216436612493        2.10965628586937
H           -2.15507912546485        0.03149591113915        2.01664164495578
H           -3.03273895864525        2.39547938405406       -1.88236495875226
H           -1.65844633068080        3.25638867366508       -1.19298560335164
H           -1.80713752465890        0.24077272747694       -1.62483391139923
H           -1.01830205624372        1.38847783687699       -2.71636108823365
H           -0.69195234448334        1.65807377698538        0.65425991266723
H            0.64365497737003        2.00312839295626       -0.94977599595875
H            2.12554369099357       -0.64994705724193        0.70809676422802
H            2.29898319784533        1.00153838340704        0.09411294629036
H            2.77391827163908        0.09182760340138       -2.18334199400304
H            2.68440991864584       -1.55402677246562       -1.53445094103208
H            4.63632603042077        1.57579816441051       -1.57467295184247
H            6.93947518597558        1.75620009429094       -0.79768299986451
H            8.65955107602406        1.81182777495908        0.80942650927776
H            9.21263654095985        1.13847598529004       -0.75047228562727
H           10.03898727956530        0.68785094269210        0.76033026840053
H            7.10899653018081       -4.27744910298710        1.68309179097968
H            5.47250917202877       -3.61343887323500        1.84263075253546
H            6.05503158526843       -4.19651195484877        0.25833211478817
H            4.38913850968847       -2.38719277534543       -0.02005893452221
H           -0.22335538661204       -1.61096854851676       -1.66989653443465
H           -1.01110905278591       -1.23287396884276       -0.12122743849010
H            0.56655929740600       -2.04017573012280       -0.14239929931412
H           -4.65427744605838        2.95243425540456       -0.17972800046454
H           -3.77030393631530        2.90335649989207        2.73350111926114
H           -4.88193896708361        1.75325470672623        1.98342108580529
H           -5.33414208697594        3.45318434860565        2.12771788422766
H           -2.61697448755794        4.69076897005938        1.27278009850013
H           -3.05984587297228        4.81756891100962       -0.43804502358446
H           -4.24304368268097        5.18021117431343        0.80888890075382
H           -0.62073639056763        2.78740704925007        2.73145336259413
72
 energy: -103.315126455538 gnorm: 0.009993072254 xtb: 6.6.1 (8d0f1dd)
N           -1.50017119113358        2.78950526311819        2.23784635643594
C           -1.55661790196450        2.15989633918944        1.15436725211220
C           -2.75013317556876        2.06272112857727        0.24899998061475
C           -3.31705737210669        0.65034411036325        0.32854531054579
C           -4.30106485416044        0.24466619320803       -0.57572135155214
C           -4.84365303603783       -1.02490671797194       -0.53020217254444
O           -5.80985142772253       -1.49636144017537       -1.36642778613009
C           -6.38567726953744       -0.61881704244373       -2.30028550035396
C           -4.39468052648249       -1.94232739091986        0.44685990031537
O           -4.98671439221124       -3.16845002198932        0.41507273747719
C           -4.66154296089427       -4.09824402029145        1.41604349348506
C           -3.42186860693619       -1.54002367827910        1.34055236783594
C           -2.88925927822760       -0.25676241590523        1.28069675347143
C           -2.20278902949295        2.30777834295410       -1.18154294303257
C           -1.27010624199761        1.18967058215733       -1.67593595994255
C            0.00076728396269        1.14121312909971       -0.90765032969535
N            0.63848193226084       -0.03148554259692       -0.58308389849819
C            2.00302968403463       -0.01473578004710       -0.17003153016195
C            2.93677268982435       -0.51872890676726       -1.28966984131161
C            4.36157016534451       -0.42118954934627       -0.84739488050579
C            5.08407982474516        0.74001959010056       -1.04964271930543
C            6.39559911474284        0.83898871930938       -0.60805808997232
C            6.99462745158744       -0.22300335219797        0.05276243015965
O            8.27626695560163       -0.21887634373509        0.52204407304997
C            9.07003987747935        0.92190133333188        0.31406604715512
C            6.26023206350755       -1.41753204846823        0.27981841351078
O            6.92891079218734       -2.41779812605093        0.93557679039003
C            6.34608640718196       -3.68033271267348        1.18158292704375
C            4.95800124561383       -1.48667185689529       -0.17259792482444
C           -0.04599546036029       -1.29100553517967       -0.63632177403733
C           -3.87876518801702        3.07551045888234        0.58599899505982
C           -4.50300305282413        2.77191352726807        1.94645711611987
C           -3.40933498376550        4.52849602215877        0.55066017725489
H           -4.65350834270927        0.94111895996751       -1.31925310063380
H           -6.84198958841627        0.24907609751364       -1.81257487187744
H           -7.16075085510064       -1.19731923503051       -2.80069814733766
H           -5.65583962794430       -0.27830285515013       -3.04297358918635
H           -4.88492240929864       -3.71058659339815        2.41535939464982
H           -5.28827532168585       -4.96663916484302        1.21883211256381
H           -3.60829363294174       -4.39527107157019        1.36778936137885
H           -3.06922294505934       -2.21392168894507        2.10537271599617
H           -2.14831686949025        0.02919215097747        2.01167723559064
H           -3.03616361120329        2.39430144447784       -1.87899023038087
H           -1.65975380215317        3.25430670947669       -1.19530155111569
H           -1.80695223442532        0.24291276257373       -1.63223438788881
H           -1.02797286964757        1.39252966396564       -2.72718122918425
H           -0.69076741577594        1.64708873002641        0.65766947508671
H            0.64390923555651        2.00171537638433       -0.96219944889875
H            2.12211262449529       -0.64959812119410        0.71496180991625
H            2.29592159190060        1.00207153546602        0.10287437784805
H            2.76825369204184        0.09815209885820       -2.17442815911895
H            2.67731865047070       -1.55017849951982       -1.53171655845121
H            4.63375768508166        1.57447282562455       -1.56798370894430
H            6.93878605712718        1.75417113594666       -0.79391380065217
H            8.65306597795751        1.80637242660510        0.80898668052849
H            9.20461369197203        1.13378199162571       -0.75221746293197
H           10.03658454717049        0.68581552832960        0.75752456331604
H            7.11189259325057       -4.26955455202866        1.67879824403657
H            5.47417622168441       -3.60500773318096        1.84141723149504
H            6.05560590670262       -4.18541914117323        0.25421542488259
H            4.38717722779637       -2.38841106959555       -0.01252275804117
H           -0.21822263952146       -1.61023567105744       -1.66929453526178
H           -1.01155168740803       -1.23478866487265       -0.12296806638987
H            0.56651229162537       -2.04072739336933       -0.14123399280981
H           -4.65415834483924        2.95220734558356       -0.17933136625168
H           -3.76596038907300        2.90284864953191        2.73114010128748
H           -4.87776974586285        1.75175067691657        1.98324226888676
H           -5.33201112003393        3.45112828389660        2.12982541863159
H           -2.61551259517867        4.68707562774480        1.27372545906075
H           -3.05827224178170        4.81611472146815       -0.43700325015003
H           -4.24071165866510        5.17972447041556        0.81049925694996
H           -0.61021667285743        2.79096388755870        2.73076245293639
72
 energy: -103.315271287916 gnorm: 0.004808413976 xtb: 6.6.1 (8d0f1dd)
N           -1.50157721549504        2.78758475606240        2.23956377091131
C           -1.55884690669504        2.15640130280614        1.15615182012227
C           -2.75199928942896        2.06319350729803        0.24869427861116
C           -3.31794522660638        0.65032878588503        0.32718108039631
C           -4.30210101398444        0.24387350814532       -0.57649326577183
C           -4.84479048613036       -1.02573068390035       -0.53036193770395
O           -5.81141262924594       -1.49730803984641       -1.36662796116411
C           -6.38587918199272       -0.61952878485786       -2.30086026468768
C           -4.39621983252858       -1.94262856462021        0.44700725904683
O           -4.98794543727002       -3.16937553393823        0.41541579780955
C           -4.66138665804240       -4.09893973975220        1.41611236316693
C           -3.42448614968496       -1.53909986473390        1.34157204625031
C           -2.89149632958030       -0.25590979616106        1.28067310976861
C           -2.20270873731814        2.30863039394147       -1.18149942985310
C           -1.26804397361862        1.19055952776484       -1.67185201378903
C            0.00082410696593        1.14282667722359       -0.89963718033903
N            0.63950833124933       -0.03294119604591       -0.57744602868295
C            2.00583712009607       -0.01608616074272       -0.17102494925362
C            2.93818686448543       -0.51765043893307       -1.29379052552909