25
 energy: 0.000000000000 xtb: 6.6.1 (8d0f1dd)
C            3.23720163006194        1.16630919979326        0.08434469647475
N            2.29877817382611        0.07527477071623        0.03981603040599
C            2.58028210190900       -1.21425402444508        0.03006176031096
N            1.43813958087363       -1.93419271955128        0.00098261760884
C            0.39035688448383       -1.05887472636071       -0.00790371836672
C            0.93510056364412        0.21347819449412        0.01709077491437
C            0.09450143893243        1.40504303904423       -0.00410947031874
O            0.49712751527797        2.54126714362870       -0.00342325688240
N           -1.25076640035757        1.06271879480407       -0.03085478223738
C           -2.21907211982101        2.15522099834493       -0.05001256985998
C           -1.81739487048744       -0.20012725993278       -0.04692818574614
O           -2.99983886758376       -0.37846417018721       -0.07008878229737
N           -0.92618586207120       -1.30210215599479       -0.03682761578324
C           -1.46982264913417       -2.64643102187190       -0.06029820460571
H            3.71247264356769        1.21471455160235        1.06488849150277
H            4.00791497605742        1.03430808813993       -0.67357694370751
H            2.69910007168542        2.09770118228144       -0.09130154882931
H            3.56654120610678       -1.63682992603973        0.04233140067262
H           -1.67107961066214        3.09322851271934       -0.02552706933167
H           -2.82428953597071        2.09428624779827       -0.95318082946668
H           -2.87644029173232        2.07745725625962        0.81450067533302
H           -1.17061996399332       -3.19584890659852        0.83242232437030
H           -1.14560257411436       -3.17511610292205       -0.95688275822323
H           -2.55549792440841       -2.55659984320617       -0.07459039797972
H            1.38130855184625       -2.94313852034425       -0.01389874181052
25
 energy: -4.266739230657 xtb: 6.6.1 (8d0f1dd)
C            3.24120047766617        1.23020807884774        0.07722796526808
N            2.32001594917920        0.11603188215095        0.02192620899951
C            2.59785449405611       -1.22103885411386        0.03333054791332
N            1.43226822779118       -1.95316451552792        0.00926456008471
C            0.39266301512474       -1.08214847094431       -0.00497238226834
C            0.93518004067264        0.19901266857831        0.01497273388499
C            0.11508562467113        1.36479386764884        0.00335536919467
O            0.52390727906489        2.52468970184573        0.00758843755243
N           -1.24582440608455        1.02779693557686       -0.02662765837414
C           -2.18624639857856        2.13726386170022       -0.04705793031497
C           -1.82276272792417       -0.21651012428375       -0.04796124662720
O           -3.02143320514079       -0.38401003299766       -0.07642971680371
N           -0.94428983683614       -1.32613873424181       -0.03592540179695
C           -1.51665049995257       -2.65810139880181       -0.06564637392270
H            3.70152313446439        1.28899972082586        1.06971014809222
H            4.00506885730029        1.10558406667695       -0.70123177433154
H            2.71713543399821        2.17458209699197       -0.08740570401024
H            3.57158826905709       -1.63880482274096        0.05711083620101
H           -1.60508110828829        3.05687892533902       -0.01899609715802
H           -2.78592791682763        2.09349350644347       -0.95511002783991
H           -2.84513329810461        2.07521961534999        0.81760083244267
H           -1.23443993197913       -3.22410449898322        0.82392118293585
H           -1.20723019099360       -3.19563024884127       -0.96398783404501
H           -2.60159218704363       -2.54430660685352       -0.08063598210455
H            1.37533557264381       -2.96156801747379        0.00301320317508
25
 energy: 7.226999005281 xtb: 6.6.1 (8d0f1dd)
C            3.24695132714782        1.35017127995593        0.06175935059935
N            2.35925317055119        0.18772333761517       -0.02390001409286
C            2.61831507275487       -1.22149678675457        0.04065904354709
N            1.42797547343869       -1.98197801325615        0.02779746699437
C            0.39494978327092       -1.13156918681668        0.00308807333335
C            0.93664622584646        0.16309651954219        0.00944812038592
C            0.15375430741679        1.28231021485765        0.01772460262694
O            0.56507715808117        2.46661710626220        0.03310976056407
N           -1.23445786440701        0.96411455384319       -0.01760074302178
C           -2.11991272624174        2.10687687123199       -0.04067525407271
C           -1.82403990486613       -0.24916830867212       -0.04958760123609
O           -3.04048254571375       -0.39309232924612       -0.09006932380093
N           -0.97412760336067       -1.37430711093571       -0.03204460487945
C           -1.61010530136367       -2.68177120448413       -0.07669258363929
H            3.67559783985707        1.43213055695959        1.07517479132608
H            3.99887989199475        1.24886928102886       -0.75178110539213
H            2.74907764201950        2.32102195539804       -0.08259605523934
H            3.57378376045753       -1.63065530372026        0.09069763199709
H           -1.47633529523601        2.99031352563426       -0.00497965570452
H           -2.70845075283756        2.09520221343161       -0.95725630480711
H           -2.78260690341065        2.07376803481849        0.82234222257964
H           -1.36922670254825       -3.28344548303081        0.80590695943949
H           -1.33720321680921       -3.23745904007906       -0.97947778330619
H           -2.69336192233637       -2.51471218182936       -0.09311783987664
H            1.38226375423050       -2.99353189958215        0.03910474182292
25
 energy: 37.656694508038 xtb: 6.6.1 (8d0f1dd)
C            3.25875601909368        1.47736363346706        0.04596943232468
N            2.40491261927722        0.26134217580015       -0.07867514263263
C            2.63306460003068       -1.21815125360965        0.04601475172690
N            1.42845800730540       -2.01446393091095        0.04689499499896
C            0.39583871417170       -1.18819909776874        0.01075761793460
C            0.94463485757122        0.11876260059707        0.00113432448178
C            0.18816661621836        1.20391531618984        0.03421218928449
O            0.59974022517809        2.40359463498546        0.06349170616900
N           -1.22334373601083        0.90359027335435       -0.00633112627994
C           -2.05336666533346        2.07704494553957       -0.03378841899245
C           -1.82388298207031       -0.28413804596926       -0.05163134283759
O           -3.05394629757975       -0.40274380507437       -0.10453858912565
N           -1.00326099374397       -1.42752331183358       -0.02730619863923
C           -1.71153798275530       -2.70780709182689       -0.08819545556132
H            3.65036859322479        1.58009075938429        1.08066308102043
H            3.99708738242745        1.39675758811640       -0.80279661931521
H            2.79527169585425        2.48017381711151       -0.08076237615116
H            3.57436890518143       -1.61931020880977        0.13144584363241
H           -1.35131541961072        2.92281475085689        0.01012335342524
H           -2.62779403037632        2.09438219983404       -0.95912308290690
H           -2.71941216833757        2.07040390154121        0.82618801419517
H           -1.51823518486506       -3.34589630062909        0.78627353647484
H           -1.48116377257157       -3.28074680822662       -0.99621935262298
H           -2.79135304228593       -2.48096875621442       -0.10545092871709
H            1.40015870794275       -3.03125938373244        0.07868368426096
25
 energy: 80.981428338149 xtb: 6.6.1 (8d0f1dd)
C            3.27807370370245        1.61144372921425        0.03575765840519
N            2.46091223886030        0.33658327732181       -0.14165222273668
C            2.63375955303039       -1.21469117720518        0.04582077600399
N            1.42851842886969       -2.05600832340810        0.06226219351400
C            0.39053336909901       -1.25289861494108        0.01505540605355
C            0.96198959642111        0.06125163823724       -0.01176197158266
C            0.21487862152709        1.13676576649503        0.05304995705729
O            0.62819463645939        2.33411794518091        0.09578989511112
N           -1.21377496772818        0.85375642458950        0.00754020519403
C           -1.98897560917062        2.05400057847770       -0.02751789532384
C           -1.82416331506565       -0.31758327916123       -0.05426672620305
O           -3.06064420786945       -0.40729639193735       -0.11746788606186
N           -1.03434470737750       -1.48399393991582       -0.02319327509649
C           -1.81089782120017       -2.73745926538959       -0.09776637529711
H            3.62183813122518        1.72548288251629        1.09244281193331
H            3.99500197540153        1.53780026280113       -0.85305105734994
H            2.85073862605555        2.64714116848618       -0.08047918641301
H            3.56664125828312       -1.60716461939125        0.17800008032706
H           -1.24019408413034        2.86211748384087        0.02326620344471
H           -2.54758777164006        2.09494017406661       -0.95995495839610
H           -2.65682852888755        2.07155298461954        0.82808149407803
H           -1.66144625789939       -3.40213722647508        0.76786561128168
H           -1.62001515260030       -3.32151750032769       -1.00987556247210
H           -2.88358126497253       -2.45695681133338       -0.11430992350224
H            1.42358821754316       -3.08021856418921        0.11339864417839
25
 energy: 125.922911986345 xtb: 6.6.1 (8d0f1dd)
C            3.30603252043457        1.74097821352317        0.03789192250950
N            2.52801753484015        0.40513650364021       -0.20818063193199
C            2.59883483038255       -1.20902015734408        0.03777455332121
N            1.42468934411819       -2.10705984509944        0.07316876384758
C            0.36820174513342       -1.31863833324736        0.01468763090933
C            0.99102906552531       -0.01149258624600       -0.02823844289382
C            0.22870701763690        1.09580458478569        0.07016884866197
O            0.65297256369147        2.24935487110016        0.12464035100157
N           -1.20131000657647        0.82955053765245        0.02329587831029
C           -1.93462785761321        2.04488608004092       -0.02306891375553
C           -1.82702165142503       -0.34440164968539       -0.05721882656187
O           -3.05295792037494       -0.39999757583717       -0.12666278427506
N           -1.06545667338547       -1.53571912114604       -0.02124487508554
C           -1.88747851596456       -2.76844272532152       -0.10294104916113
H            3.59081802813593        1.84245041257416        1.11038484210202
H            3.98858632164564        1.64425122491506       -0.89447965876039
H            2.90321397363621        2.79977040479684       -0.08277641683456
H            3.53742290845312       -1.58786483848334        0.22574582100432
H           -1.16830249382701        2.82096149166019        0.03161062374421
H           -2.48001577080629        2.09799107294943       -0.95749726713686
H           -2.60232879452147        2.07982644343734        0.82680788909855
H           -1.76672178926646       -3.43670764031819        0.75387081460368
H           -1.72189360275304       -3.34860901807762       -1.01630868475780
H           -2.94665250320095       -2.45423887372018       -0.11733452383682
H            1.44845639401766       -3.13974087437715        0.13293803202447
25
 energy: 171.297573254566 xtb: 6.6.1 (8d0f1dd)
C            3.31909508127704        1.86401269027624        0.03607458242728
N            2.57921705120600        0.45972416843174       -0.26545379891512
C            2.54857093835280       -1.19544731807758        0.02878753104917
N            1.42184122097260       -2.15868693838421        0.08364534696145
C            0.33624200609324       -1.37165187277222        0.00880800530753
C            1.00516602179498       -0.07725456904176       -0.04390457192322
C            0.25144568927338        1.04231404561173        0.07160712474049
O            0.71285642971327        2.15268943659142        0.16078516834683
N           -1.16319931905475        0.79746031465227        0.03629686082026
C           -1.87723670106628        2.03297633701485       -0.01754466760444
C           -1.83259985823240       -0.37434159815076       -0.05649260194397
O           -3.05107579972614       -0.38767096614117       -0.13556072775933
N           -1.09074701532340       -1.58083364899446       -0.02377807671686
C           -1.95125051427478       -2.79714744976779       -0.10563569975944
H            3.55194286880724        1.94757511855083        1.11952227102610
H            3.98634406254058        1.74220014897961       -0.91522157113967
H            2.94464782512743        2.94278762965147       -0.09236395789433
H            3.48946119364320       -1.54072082116833        0.27412153974368
H           -1.10556541108542        2.79459733018829        0.03999740830855
H           -2.41775667429020        2.10110140205580       -0.95497638536389
H           -2.55114176952294        2.09111667679739        0.82858382049666
H           -1.85522262362406       -3.46974480340453        0.74750844144879
H           -1.81054992318453       -3.37542449920084       -1.02229346571319
H           -2.99996089542457       -2.45515644631958       -0.11633452832528
H            1.47169078394394       -3.19544576520631        0.14085584852929
25
 energy: 215.043291247240 xtb: 6.6.1 (8d0f1dd)
C            3.35304589960037        1.98494127295422        0.03831086119011
N            2.65540608059969        0.50793924298837       -0.33968032924078
C            2.44564349633580       -1.17289627148617        0.01666194910904
N            1.40250190971201       -2.21392065833680        0.09846620038021
C            0.28813469822248       -1.42063977729350        0.00668090036498
C            1.02879031245324       -0.16051843146734       -0.05240637368893
C            0.26223894207533        1.00421762046587        0.07426132054518
O            0.76487677161152        2.06351378994051        0.20520139752251
N           -1.11633361713324        0.78001373072101        0.04350491977446
C           -1.83732421392798        2.02204075595840       -0.01729512712317
C           -1.83624837210984       -0.39663389064117       -0.05488058491394
O           -3.03355361772654       -0.36346389674631       -0.14145291118798
N           -1.10889211931242       -1.61192521323678       -0.02539168893754
C           -1.98773423443138       -2.81826772091171       -0.10529361613018
H            3.52589275101538        2.00921984824983        1.12884884052308
H            3.98948494685221        1.79749149014332       -0.93550498841662
H            3.00159131818121        3.07533152765024       -0.09383209625378
H            3.39676100837322       -1.47374868527567        0.32174794463459
H           -1.07903884298570        2.78452337319988        0.04367402135964
H           -2.37879246848747        2.09217409221934       -0.95351435111153
H           -2.51605146431517        2.08724041241250        0.82383208515580
H           -1.89935092679320       -3.48363282218302        0.74577272464935
H           -1.85373691527797       -3.38621281736867       -1.02234780488368
H           -3.02589783023896       -2.46569872257665       -0.11453152154848
H            1.47080115564366       -3.25205964720755        0.13620212437500
25
 energy: 256.512537030901 xtb: 6.6.1 (8d0f1dd)
C            3.40541200605895        2.14629023055522        0.04512186701901
N            2.78672859282633        0.56272832518645       -0.43459204997114
C            2.27239678070282       -1.13350176273784        0.00710115106141
N            1.37866776649440       -2.29315801079870        0.12565912207145
C            0.21461290207397       -1.48036082864334        0.00712503347302
C            1.07070785741184       -0.28755640030960       -0.04677387657721
C            0.26838902913121        0.96225444647268        0.07238382809829
O            0.83231540122566        1.95284303039779        0.25857181065623
N           -1.03848548900392        0.76164951781150        0.04690843623908
C           -1.79424304985975        2.00841216725280       -0.01847580362132
C           -1.84271073211818       -0.42833617326959       -0.05078708041249
O           -3.00388842663883       -0.33052083079722       -0.14793768640855
N           -1.12114979163344       -1.64299614079334       -0.02923098089817
C           -2.01993676097336       -2.83900592723926       -0.10554106811185
H            3.49694616733531        2.06897047867007        1.13669173698890
H            3.98854206318104        1.84538509799540       -0.95933097399317
H            3.05711498242096        3.22321564186825       -0.09483913597520
H            3.25243939709462       -1.36388813568230        0.37024684617358
H           -1.05696677389125        2.78174115351633        0.04724695406123
H           -2.34338121608283        2.08201229281614       -0.95199370419120
H           -2.48146641384709        2.08117644692428        0.81736507736583
H           -1.93807473676848       -3.49478806141415        0.74452414548160
H           -1.89141336822150       -3.39328670747003       -1.02275124422045
H           -3.04525314300220       -2.47413937050021       -0.11363136086053
H            1.46491162401995       -3.32611187763917        0.12397285269896
25
 energy: 312.024775888885 xtb: 6.6.1 (8d0f1dd)
C            3.46992452628246        2.27001992980606        0.03730470850997
N            2.93610323401680        0.60842825221801       -0.47955748098345
C            2.10811486580694       -1.09587613578864        0.05434602548597
N            1.37706893832958       -2.36031294390482        0.15426839368259
C            0.14976150256681       -1.52691720667666        0.00451026358938
C            1.11452215723371       -0.39315668373671       -0.01775764227596
C            0.25662080675687        0.95383360531558        0.07331108674104
O            0.87662614557717        1.88536830846525        0.32408628925849
N           -0.97636831701214        0.75293031266238        0.04283235448608
C           -1.77635645095323        1.99896707152471       -0.01881065907268
C           -1.86011652611077       -0.46313494122014       -0.05041467683208
O           -2.99132709537238       -0.30026727073706       -0.16484197991438
N           -1.12762864654865       -1.66621256965610       -0.03915836201565
C           -2.04633076385698       -2.85659646458766       -0.10961428601797
H            3.47477632512038        2.11622747589174        1.12563757192643
H            4.00206412574464        1.85299949956482       -0.98502260359499
H            3.11908081049402        3.31731863411878       -0.11908700378702
H            3.12913156932648       -1.25807410434833        0.37159354633894
H           -1.05024011405156        2.78421411898684        0.05249554391498
H           -2.32489130017481        2.07217424719424       -0.95399000545496
H           -2.46519239407425        2.07004516909239        0.81489666950287
H           -1.97000140016572       -3.50695111469854        0.74029181623705
H           -1.92305507229822       -3.40281248240906       -1.02605141782420
H           -3.06271628411384       -2.48520197126196       -0.11647723310271
H            1.47264402541297       -3.37798413364296        0.11224297734959
25
 energy: 276.433369439717 xtb: 6.6.1 (8d0f1dd)
C            3.45577348431287        2.25003561900308        0.02527815308432
N            2.88287330991568        0.60796709342772       -0.47711509854219
C            2.20375681418138       -1.12848206321687        0.06199025237071
N            1.38536978093488       -2.34910129578255        0.14434467706174
C            0.17209478980314       -1.53395581674705        0.00991788781650
C            1.06675421714889       -0.34377282365097       -0.04598733373637
C            0.26360856928043        0.95221491012754        0.07634206991712
O            0.88650704639779        1.89382879721036        0.33267538090671
N           -1.01571870855231        0.74920694593096        0.04611159648914
C           -1.77139382002728        2.00156680997797       -0.01605831990385
C           -1.85871259180311       -0.45759967268939       -0.05107950440577
O           -3.01131682602807       -0.29981476021093       -0.16970592241235
N           -1.14766839814280       -1.68091391793944       -0.03437272932603
C           -2.06924339886505       -2.86680288411610       -0.11087166182530
H            3.47013953879168        2.14343146449014        1.12713737887853
H            4.01361801008636        1.88799139785738       -0.98898594766074
H            3.14138313567556        3.34244112563226       -0.11980329766864
H            3.18939229197416       -1.29473481667716        0.38424264288678
H           -1.03470777207492        2.77575287549574        0.05494804990781
H           -2.30936108338392        2.07126255662493       -0.95293150158240
H           -2.45286944734315        2.06924173119731        0.81778074438687
H           -1.99406474383888       -3.51903455096950        0.73851776453058
H           -1.94750815887035       -3.41396694604578       -1.02925726079975
H           -3.08710594659611       -2.48966647365400       -0.11666697558289
H            1.48061457495941       -3.37806670310353        0.12058285135682
25
 energy: 265.892772006314 xtb: 6.6.1 (8d0f1dd)
C            3.47771211331441        2.17379144740573        0.02296967147851
N            2.93060069817823        0.56996185567546       -0.42523908882243
C            2.20243002985540       -1.13606783803935        0.11334002836536
N            1.41911162680525       -2.32689164426711        0.12227369281863
C            0.17526911666235       -1.50273346666462        0.01625511207606
C            1.04643990409992       -0.31866270570823       -0.01008751515486
C            0.22315353339758        1.00965863360003        0.05640018178576
O            0.84993392932380        1.96126047525628        0.30316085967445
N           -1.03551504990978        0.77308005424039        0.02684696109610
C           -1.82803467878489        2.01591171439798       -0.01748225548009
C           -1.87409591707872       -0.45952126350015       -0.04333554788061
O           -3.02124808014584       -0.31752984104849       -0.16313608027399
N           -1.12380365648526       -1.65029026466231       -0.03595611283360
C           -2.02826597136010       -2.84615866782917       -0.11292041990741
H            3.49499887715165        2.06348089568993        1.10396828389329
H            4.03000998167535        1.82088996846140       -0.97310394113393
H            3.09277376503034        3.19682674840954       -0.11436629384835
H            3.23084005963296       -1.29019791948034        0.33544809569474
H           -1.07246172360240        2.80148261829754        0.05011314801833
H           -2.36763086695164        2.08691820310400       -0.95748437674986
H           -2.50450316872874        2.07966091256926        0.82522824901283
H           -1.93720709688865       -3.50226594659694        0.74227833951828
H           -1.89493237516951       -3.40055033708548       -1.03071291189435
H           -3.05562725610035       -2.47943005098385       -0.11832389609344
H            1.48226687401493       -3.33359497906937        0.11089971278790
25
 energy: 282.717380299836 xtb: 6.6.1 (8d0f1dd)
C            3.58240591674008        2.23293201934157        0.01092460070721
N            3.13442172612765        0.66343963673399       -0.48397954488661
C            2.12578776412622       -1.16821024000584        0.17022354857953
N            1.44797237096095       -2.35031989831113        0.02028352006834
C            0.11750001405161       -1.56402074036902        0.03817089348616
C            0.95396086259443       -0.36234847215639        0.01455329583736
C            0.20344417271610        1.03576088371515        0.05741866723850
O            0.89545063256376        1.87139339084654        0.30960811012583
N           -1.07863905433752        0.78076792084947        0.02748737940859
C           -1.83180087670152        2.02514143387879       -0.01565400087741
C           -1.91053525459363       -0.50281062591701       -0.02992797340357
O           -3.03377286079755       -0.30950074649157       -0.16771184094094
N           -1.18061388161954       -1.68877885800892       -0.02732655329333
C           -2.08103352020507       -2.87136632365098       -0.11663968967355
H            3.45818972500134        2.09805478759419        1.09627023821676
H            4.08414055674367        1.91674141231195       -1.00074216567387
H            3.17119725977221        3.24059848658165       -0.08825272636590
H            3.25148934717220       -1.25952628162577        0.36857674530157
H           -1.05091684661012        2.78985244252032        0.04820890891068
H           -2.34046883544017        2.09302261309854       -0.96395100693036
H           -2.49352140059648        2.09414902527960        0.83067967604876
H           -1.97076312999942       -3.51591787151209        0.74234361208128
H           -1.92926810480035       -3.41850501945744       -1.03317167734148
H           -3.10247775061875       -2.50471351624863       -0.11669602228912
H            1.49006583568617       -3.33680685682479        0.13633790181288
25
 energy: 271.042227189738 xtb: 6.6.1 (8d0f1dd)
C            3.56460839089538        2.21861058591292        0.03190652903546
N            3.18792590163780        0.72642953399916       -0.45136132300616
C            2.08691584196166       -1.16416663992659        0.13852262514721
N            1.44824471378695       -2.33290693009210       -0.00659240057219
C            0.11429962561299       -1.57243560454294        0.04253217419618
C            0.88957715217291       -0.37064275425505        0.03367856778495
C            0.23257806495736        1.03056574321148        0.06579505012869
O            0.98888091334154        1.81796631115840        0.34865740770757
N           -1.07623326661162        0.79366912198980        0.03318113129415
C           -1.80348052389935        2.01770671340996       -0.02034417437539
C           -1.89195871754161       -0.49790638270516       -0.05751286746861
O           -3.02627889172357       -0.27602893055255       -0.18409240634307
N           -1.20882397427035       -1.69629264978052       -0.04414661765858
C           -2.08081447268226       -2.87663458623325       -0.11519670244923
H            3.44704884105578        2.13047616471546        1.10904217654345
H            4.03736164169050        1.89628122798078       -1.00891158998118
H            3.14118295615575        3.27568668887405       -0.11956583217473
H            3.20557514045191       -1.27248819794479        0.31024072703162
H           -1.08335664967029        2.77924763844814        0.04853398637299
H           -2.32330849790435        2.08027838697780       -0.95384173777557
H           -2.46621092900818        2.06986108359014        0.81664703657973
H           -1.96939193824490       -3.51004754163348        0.74268132850065
H           -1.92134038112462       -3.41869774693724       -1.02699183739134
H           -3.09084698515430       -2.51363623150358       -0.11886719225409
H            1.51006071205119       -3.34586640198865        0.21303983727481
25
 energy: 244.294401672845 xtb: 6.6.1 (8d0f1dd)
C            3.56172728466345        2.17873178459426        0.06479747133476
N            3.29912189299194        0.84753954928901       -0.39532105964459
C            2.06183072023498       -1.12456021201243        0.11327924526487
N            1.45533069469065       -2.31658677546344       -0.03622055817603
C            0.12691017375160       -1.57768768573945        0.03891410893956
C            0.81609947384596       -0.38289773937784        0.01993743988757
C            0.23232502755475        0.98302763297687        0.04150124533933
O            1.04425689851492        1.75571402435687        0.36904195357452
N           -1.07509765533512        0.78384747341147        0.04495674554510
C           -1.78599228085031        2.00782702369090       -0.02391973757943
C           -1.87598021792743       -0.50568281703718       -0.07188636361482
O           -3.02940019796241       -0.27676632028498       -0.16697127757760
N           -1.23266128441978       -1.70518716752263       -0.05999565893691
C           -2.09282210901035       -2.88445544383329       -0.10913751175430
H            3.45044500391079        2.16278779320951        1.15747980109742
H            4.01762964769366        1.85185887723372       -1.04726119772962
H            3.16125630279834        3.32663321116995       -0.14872080553080
H            3.14299274023982       -1.24597644441718        0.29459023235494
H           -1.06323625890126        2.75611970585777        0.05115960715436
H           -2.33327668769061        2.09263655714334       -0.95243917181604
H           -2.47451302945419        2.08382579480787        0.80862155206723
H           -1.98826880775129       -3.52788909466497        0.74203328202179
H           -1.94344408076938       -3.42862714368390       -1.02494638227979
H           -3.10139968750760       -2.51390275521177       -0.11648556020653
H            1.53838110462515       -3.35130122632028        0.23402649641235
25