      -----------------------------------------------------------      
     |                   =====================                   |     
     |                           x T B                           |     
     |                   =====================                   |     
     |                         S. Grimme                         |     
     |          Mulliken Center for Theoretical Chemistry        |     
     |                    University of Bonn                     |     
      -----------------------------------------------------------      

   * xtb version 6.6.1 (8d0f1dd) compiled by 'conda@1efc2f54142f' on 2023-08-01

   xtb is free software: you can redistribute it and/or modify it under
   the terms of the GNU Lesser General Public License as published by
   the Free Software Foundation, either version 3 of the License, or
   (at your option) any later version.
   
   xtb is distributed in the hope that it will be useful,
   but WITHOUT ANY WARRANTY; without even the implied warranty of
   MERCHANTABILITY or FITNESS FOR A PARTICULAR PURPOSE.  See the
   GNU Lesser General Public License for more details.
   
   Cite this work as:
   * C. Bannwarth, E. Caldeweyher, S. Ehlert, A. Hansen, P. Pracht,
     J. Seibert, S. Spicher, S. Grimme, WIREs Comput. Mol. Sci., 2020, 11,
     e01493. DOI: 10.1002/wcms.1493
   
   for GFN2-xTB:
   * C. Bannwarth, S. Ehlert and S. Grimme., J. Chem. Theory Comput., 2019,
     15, 1652-1671. DOI: 10.1021/acs.jctc.8b01176
   for GFN1-xTB:
   * S. Grimme, C. Bannwarth, P. Shushkov, J. Chem. Theory Comput., 2017,
     13, 1989-2009. DOI: 10.1021/acs.jctc.7b00118
   for GFN0-xTB:
   * P. Pracht, E. Caldeweyher, S. Ehlert, S. Grimme, ChemRxiv, 2019, preprint.
     DOI: 10.26434/chemrxiv.8326202.v1
   for GFN-FF:
   * S. Spicher and S. Grimme, Angew. Chem. Int. Ed., 2020, 59, 15665-15673.
     DOI: 10.1002/anie.202004239
   
   for ALPB and GBSA implicit solvation:
   * S. Ehlert, M. Stahn, S. Spicher, S. Grimme, J. Chem. Theory Comput.,
     2021, 17, 4250-4261. DOI: 10.1021/acs.jctc.1c00471
   
   for DFT-D4:
   * E. Caldeweyher, C. Bannwarth and S. Grimme, J. Chem. Phys., 2017,
     147, 034112. DOI: 10.1063/1.4993215
   * E. Caldeweyher, S. Ehlert, A. Hansen, H. Neugebauer, S. Spicher,
     C. Bannwarth and S. Grimme, J. Chem. Phys., 2019, 150, 154122.
     DOI: 10.1063/1.5090222
   * E. Caldeweyher, J.-M. Mewes, S. Ehlert and S. Grimme, Phys. Chem. Chem. Phys.
     2020, 22, 8499-8512. DOI: 10.1039/D0CP00502A
   
   for sTDA-xTB:
   * S. Grimme and C. Bannwarth, J. Chem. Phys., 2016, 145, 054103.
     DOI: 10.1063/1.4959605
   
   in the mass-spec context:
   * V. Asgeirsson, C. Bauer and S. Grimme, Chem. Sci., 2017, 8, 4879.
     DOI: 10.1039/c7sc00601b
   * J. Koopman and S. Grimme, ACS Omega 2019, 4, 12, 15120-15133.
     DOI: 10.1021/acsomega.9b02011
   
   for metadynamics refer to:
   * S. Grimme, J. Chem. Theory Comput., 2019, 155, 2847-2862
     DOI: 10.1021/acs.jctc.9b00143
   
   for SPH calculations refer to:
   * S. Spicher and S. Grimme, J. Chem. Theory Comput., 2021, 17, 1701-1714
     DOI: 10.1021/acs.jctc.0c01306
   
   with help from (in alphabetical order)
   P. Atkinson, C. Bannwarth, F. Bohle, G. Brandenburg, E. Caldeweyher
   M. Checinski, S. Dohm, S. Ehlert, S. Ehrlich, I. Gerasimov, C. Hölzer
   A. Katbashev, J. Koopman, C. Lavigne, S. Lehtola, F. März, M. Müller,
   F. Musil, H. Neugebauer, J. Pisarek, C. Plett, P. Pracht, F. Pultar,
   J. Seibert, P. Shushkov, S. Spicher, M. Stahn, M. Steiner, T. Strunk,
   J. Stückrath, T. Rose, and J. Unsleber
   
 * started run on 2024/04/06 at 11:12:52.051     

           -------------------------------------------------
          |                Calculation Setup                |
           -------------------------------------------------

          program call               : xtb xtbopt.xyz --opt crude --input .xc2 --gfn2
          hostname                   : n-62-30-23
          coordinate file            : xtbopt.xyz
          omp threads                :                     1

   ID    Z sym.   atoms
    1    7 N      1, 17
    2    6 C      2-6, 8, 9, 11-16, 18-23, 25, 26, 28-33
    3    8 O      7, 10, 24, 27
    4    1 H      34-72

molecular fragmentation (1/2 indicates fragments):
111111111111111111111111111111111111121111111111111111111111111111111111
# atoms in fragment 1/2:    71     1
 fragment masses (1/2) :      454.60        1.01
CMA distance (Bohr)    :  16.515
constraining FC (au)   :  0.0500
########################################################################
[WARNING] Please study the warnings concerning your input carefully
-1- readin_getIntValue: could not parse ''
########################################################################

           -------------------------------------------------
          |                 G F N 2 - x T B                 |
           -------------------------------------------------

        Reference                      10.1021/acs.jctc.8b01176
      * Hamiltonian:
        H0-scaling (s, p, d)           1.850000    2.230000    2.230000
        zeta-weighting                 0.500000
      * Dispersion:
        s8                             2.700000
        a1                             0.520000
        a2                             5.000000
        s9                             5.000000
      * Repulsion:
        kExp                           1.500000    1.000000
        rExp                           1.000000
      * Coulomb:
        alpha                          2.000000
        third order                    shell-resolved
        anisotropic                    true
        a3                             3.000000
        a5                             4.000000
        cn-shift                       1.200000
        cn-exp                         4.000000
        max-rad                        5.000000

q/qsh data taken from xtbrestart
CAMM data taken from xtbrestart

          ...................................................
          :                      SETUP                      :
          :.................................................:
          :  # basis functions                 171          :
          :  # atomic orbitals                 171          :
          :  # shells                          105          :
          :  # electrons                       180          :
          :  max. iterations                   250          :
          :  Hamiltonian                  GFN2-xTB          :
          :  restarted?                       true          :
          :  GBSA solvation                  false          :
          :  PC potential                    false          :
          :  electronic temp.         5000.0000000     K    :
          :  accuracy                    1.0000000          :
          :  -> integral cutoff          0.2500000E+02      :
          :  -> integral neglect         0.1000000E-07      :
          :  -> SCF convergence          0.1000000E-05 Eh   :
          :  -> wf. convergence          0.1000000E-03 e    :
          :  Broyden damping             0.4000000          :
          ...................................................

 iter      E             dE          RMSdq      gap      omega  full diag
   1   -100.6423705 -0.100642E+03  0.599E-05    0.45       0.0  T
   2   -100.6423705  0.216157E-08  0.154E-04    0.45      76.7  T
   3   -100.6423705 -0.242198E-08  0.227E-05    0.45     518.5  T

   *** convergence criteria satisfied after 3 iterations ***

         #    Occupation            Energy/Eh            Energy/eV
      -------------------------------------------------------------
         1        2.0000           -0.8491262             -23.1059
       ...           ...                  ...                  ...
        84        1.9958           -0.5148928             -14.0109
        85        1.9934           -0.5077327             -13.8161
        86        1.9787           -0.4890464             -13.3076
        87        1.9784           -0.4888373             -13.3019
        88        1.9467           -0.4742724             -12.9056
        89        1.8436           -0.4563780             -12.4187
        90        1.1688           -0.4227108             -11.5025 (HOMO)
        91        0.6661           -0.4063164             -11.0564 (LUMO)
        92        0.4143           -0.3960617             -10.7774
        93        0.0177           -0.3425581              -9.3215
        94        0.0072           -0.3283353              -8.9345
        95        0.0051           -0.3227779              -8.7832
       ...           ...                  ...                  ...
       171                          0.5758902              15.6708
      -------------------------------------------------------------
                  HL-Gap            0.0163944 Eh            0.4461 eV
             Fermi-level           -0.4173136 Eh          -11.3557 eV

 SCC (total)                   0 d,  0 h,  0 min,  0.118 sec
 SCC setup                      ...        0 min,  0.001 sec (  0.836%)
 Dispersion                     ...        0 min,  0.002 sec (  1.477%)
 classical contributions        ...        0 min,  0.000 sec (  0.362%)
 integral evaluation            ...        0 min,  0.018 sec ( 15.247%)
 iterations                     ...        0 min,  0.028 sec ( 23.279%)
 molecular gradient             ...        0 min,  0.069 sec ( 58.247%)
 printout                       ...        0 min,  0.001 sec (  0.538%)

         :::::::::::::::::::::::::::::::::::::::::::::::::::::
         ::                     SUMMARY                     ::
         :::::::::::::::::::::::::::::::::::::::::::::::::::::
         :: total energy             -99.268131634545 Eh    ::
         :: gradient norm              0.002596990115 Eh/a0 ::
         :: HOMO-LUMO gap              0.446114615146 eV    ::
         ::.................................................::
         :: SCC energy              -100.642370540140 Eh    ::
         :: -> isotropic ES            0.106756204516 Eh    ::
         :: -> anisotropic ES          0.003936525371 Eh    ::
         :: -> anisotropic XC          0.045554094059 Eh    ::
         :: -> dispersion             -0.074978610172 Eh    ::
         :: repulsion energy           1.373041666759 Eh    ::
         :: add. restraining           0.000000000000 Eh    ::
         :: total charge               0.999999999993 e     ::
         :::::::::::::::::::::::::::::::::::::::::::::::::::::

      ----------------------------------------------------------- 
     |                   =====================                   |
     |                        A N C O P T                        |
     |                   =====================                   |
     |               Approximate Normal Coordinate               |
     |                Rational Function Optimizer                |
      ----------------------------------------------------------- 

          ...................................................
          :                      SETUP                      :
          :.................................................:
          :   optimization level             crude          :
          :   max. optcycles                   200          :
          :   ANC micro-cycles                  20          :
          :   degrees of freedom               210          :
          :.................................................:
          :   RF solver                   davidson          :
          :   write xtbopt.log                true          :
          :   linear?                        false          :
          :   energy convergence         0.5000000E-03 Eh   :
          :   grad. convergence          0.1000000E-01 Eh/α :
          :   maxmium RF displ.          1.0000000          :
          :   Hlow (freq-cutoff)         0.1000000E-01      :
          :   Hmax (freq-cutoff)         5.0000000          :
          :   S6 in model hess.         20.0000000          :
          ...................................................

generating ANC from model Hessian ...
Using Lindh-Hessian (1995)
 Shifting diagonal of input Hessian by    1.0151199564875776E-002
 Lowest  eigenvalues of input Hessian
    0.010000    0.010085    0.000000    0.000000    0.000000    0.000000
    0.000000    0.000000    0.010192    0.010205    0.010309    0.010402
    0.010477    0.010760    0.010859    0.011103    0.011121    0.011138
 Highest eigenvalues
    1.984870    2.048323    2.094906    2.107280    2.184820    2.210680


........................................................................
.............................. CYCLE    1 ..............................
........................................................................

 iter      E             dE          RMSdq      gap      omega  full diag
   1   -100.6423705 -0.100642E+03  0.201E-05    0.45       0.0  T
   2   -100.6423705  0.262702E-09  0.505E-05    0.45     233.5  T
   3   -100.6423705 -0.290811E-09  0.866E-06    0.45    1361.1  T
     SCC iter.                  ...        0 min,  0.026 sec
     gradient                   ...        0 min,  0.069 sec
 * total energy  :   -99.2681316 Eh     change       -0.3925038E-10 Eh
   gradient norm :     0.0025975 Eh/α   predicted     0.0000000E+00 (-100.00%)
   displ. norm   :     0.1012104 α      lambda       -0.1237358E-03
   maximum displ.:     0.0867043 α      in ANC's #12, #1, #2, ...

   *** GEOMETRY OPTIMIZATION CONVERGED AFTER 1 ITERATIONS ***

------------------------------------------------------------------------
 total energy gain   :        -0.0000000 Eh       -0.0000 kcal/mol
 total RMSD          :         0.0000000 a0        0.0000 Å
 total power (kW/mol):        -0.0000001 (step)   -0.0000 (real)
------------------------------------------------------------------------

 ANCopt (total)                0 d,  0 h,  0 min,  0.179 sec
 optimizer setup                ...        0 min,  0.000 sec (  0.139%)
 model hessian                  ...        0 min,  0.052 sec ( 29.131%)
 ANC generation                 ...        0 min,  0.006 sec (  3.533%)
 coordinate transformation      ...        0 min,  0.000 sec (  0.027%)
 single point calculation       ...        0 min,  0.117 sec ( 65.364%)
 optimization log               ...        0 min,  0.002 sec (  1.339%)
 hessian update                 ...        0 min,  0.000 sec (  0.001%)
 rational function              ...        0 min,  0.000 sec (  0.112%)

================
 final structure:
================
72
 xtb: 6.6.1 (8d0f1dd)
N           -1.89230502197638        2.84468296217637        2.21599256433903
C           -1.82874245092145        2.16384227967699        1.17078710291980
C           -2.97382585514380        1.95734707852107        0.21616284984359
C           -3.45746506534785        0.51846269011288        0.30297310871676
C           -4.41472718099868        0.05665783208092       -0.60290872580006
C           -4.90506870319795       -1.23784906105506       -0.54594334561689
O           -5.83670225096528       -1.75710590087092       -1.36632394039592
C           -6.46803032208487       -0.92075663734081       -2.31059069564441
C           -4.39530129699250       -2.12609493207121        0.44050870478252
O           -4.92131765092008       -3.37265835112368        0.41761007112614
C           -4.52497443674995       -4.37789079033110        1.15121881962563
C           -3.44585890669532       -1.66091995510408        1.34759813266492
C           -2.99055963152855       -0.35594331021730        1.27857741398533
C           -2.41239187335104        2.23828986254896       -1.20257851348633
C           -1.47897170593430        1.14414902004934       -1.75255871521827
C           -0.14444991885104        1.12772272516729       -1.11198641506319
N            0.51187888150076        0.04005245600474       -0.72041450085622
C            1.88909762813336        0.12799630108814       -0.29523098000103
C            2.86355982485620       -0.34073674929967       -1.39293900157801
C            4.28112941314230       -0.13837539666122       -0.93461713412010
C            4.92333955297885        1.07084588535108       -1.14659051112806
C            6.22106250836873        1.27362176980379       -0.70342318174702
C            6.90298511243435        0.26867310438750       -0.03251134012730
O            8.16127671000054        0.35071308635551        0.43696422171994
C            8.89708407135432        1.53480968545327        0.23150203728822
C            6.24987536993694       -0.97446189799597        0.19567646113862
O            6.98462601229722       -1.89345084469339        0.85259229685148
C            6.43817392823430       -3.16661064040654        1.10064058444251
C            4.95152807682329       -1.15308995452002       -0.25564057555976
C           -0.08691196693193       -1.27219794247982       -0.76264095346856
C           -4.18365538779600        2.89926549562018        0.49934681692451
C           -4.84333818264349        2.57831543947185        1.83839355144665
C           -3.81496139972331        4.37936352790709        0.44859524628775
H           -4.79608352814354        0.72648700922396       -1.35465431043689
H           -6.96207771728263       -0.07431772120891       -1.82564559761806
H           -7.21530972892846       -1.54395385112141       -2.79728191749839
H           -5.75933466078632       -0.55556360306506       -3.06005487991620
H           -4.95158602546202       -6.26884901353558        3.42256846176926
H           -5.08593398222637       -5.28352415772482        1.02148115480343
H           -3.72528873609033       -4.31481982627798        1.86887184072427
H           -3.07749115486742       -2.30408854959736        2.13024946679197
H           -2.28314698815856       -0.01523993703805        2.01807509089606
H           -3.24791009419141        2.34718767737871       -1.89328981129693
H           -1.87451070613117        3.18679212985709       -1.18569632441548
H           -1.97019072332948        0.17486245428723       -1.68723111559586
H           -1.32766899339681        1.36921366458348       -2.81656938727183
H           -0.90540133677954        1.66896620495957        0.81171045355131
H            0.40650331743652        2.05641229771658       -1.09015134365797
H            2.02824552167699       -0.48571983149742        0.59906162560267
H            2.12145072594778        1.16332403202597       -0.03799508632178
H            2.67920670173691        0.24129564702946       -2.29752988567101
H            2.68658007052379       -1.39327387724601       -1.61675862067094
H            4.41836387016189        1.86574631822198       -1.67425061864443
H            6.69687342364856        2.22212268998803       -0.89083983509239
H            8.42614010589870        2.39020674929617        0.72536132975737
H            9.02037992219416        1.74965602787898       -0.83416392236576
H            9.87267911728651        1.35300663054491        0.67817504744155
H            7.21890713742088       -3.72415308144279        1.61436604572424
H            5.55492279434039       -3.10590246007055        1.74465328342507
H            6.17936129583379       -3.68087502005532        0.16990886356511
H            4.45122396300695       -2.09527069376090       -0.09469688800751
H           -0.23368550515796       -1.60747345572914       -1.79184919705262
H           -1.05348504171436       -1.26684317685448       -0.25305055301936
H            0.56543369579309       -1.98025944040158       -0.25794516679169
H           -4.91789455363166        2.70934549560111       -0.29168952492289
H           -4.15057884584484        2.77237139619148        2.65049879467381
H           -5.15965524710916        1.53897293756355        1.88428486643202
H           -5.71876842020408        3.20837433445364        1.97152915388950
H           -3.06816922026164        4.60974024367396        1.20195764477251
H           -3.44219955503148        4.67283154361070       -0.52918364402698
H           -4.70084831544678        4.97315189815474        0.65780601458244
H           -1.04859486703608        2.93753099928324        2.77299188020132

 Bond Distances (Angstroems)
 ---------------------------
N1-C2=1.2490         N1-H72=1.0152        C2-N1=1.2490         C2-C3=1.5050         C2-H47=1.1074        C3-C2=1.5050         
C3-C4=1.5205         C3-C14=1.5514        C3-C31=1.5592        C4-C3=1.5205         C4-C5=1.3965         C4-C13=1.3908        
C5-C4=1.3965         C5-C6=1.3854         C5-H34=1.0767        C6-C5=1.3854         C6-O7=1.3456         C6-C9=1.4219         
O7-C6=1.3456         O7-C8=1.4106         C8-O7=1.4106         C8-H35=1.0935        C8-H36=1.0880        C8-H37=1.0942        
C9-C6=1.4219         C9-O10=1.3532        C9-C12=1.3931        O10-C9=1.3532        O10-C11=1.3060       C11-O10=1.3060       
C11-H39=1.0732       C11-H40=1.0763       C12-C9=1.3931        C12-C13=1.3838       C12-H41=1.0779       C13-C4=1.3908        
C13-C12=1.3838       C13-H42=1.0786       C14-C3=1.5514        C14-C15=1.5398       C14-H43=1.0895       C14-H44=1.0905       
C15-C14=1.5398       C15-C16=1.4804       C15-H45=1.0886       C15-H46=1.0980       C16-C15=1.4804       C16-N17=1.3293       
C16-H48=1.0800       N17-C16=1.3293       N17-C18=1.4440       N17-C30=1.4430       C18-N17=1.4440       C18-C19=1.5409       
C18-H49=1.0935       C18-H50=1.0918       C19-C18=1.5409       C19-C20=1.5035       C19-H51=1.0913       C19-H52=1.0905       
C20-C19=1.5035       C20-C21=1.3855       C20-C29=1.3929       C21-C20=1.3855       C21-C22=1.3862       C21-H53=1.0795       
C22-C21=1.3862       C22-C23=1.3875       C22-H54=1.0776       C23-C22=1.3875       C23-O24=1.3455       C23-C26=1.4227       
O24-C23=1.3455       O24-C25=1.4092       C25-O24=1.4092       C25-H55=1.0943       C25-H56=1.0941       C25-H57=1.0883       
C26-C23=1.4227       C26-O27=1.3476       C26-C29=1.3861       O27-C26=1.3476       O27-C28=1.4075       C28-O27=1.4075       
C28-H58=1.0883       C28-H59=1.0948       C28-H60=1.0944       C29-C20=1.3929       C29-C26=1.3861       C29-H61=1.0788       
C30-N17=1.4430       C30-H62=1.0923       C30-H63=1.0927       C30-H64=1.0870       C31-C3=1.5592        C31-C32=1.5268       
C31-C33=1.5262       C31-H65=1.0959       C32-C31=1.5268       C32-H66=1.0849       C32-H67=1.0874       C32-H68=1.0868       
C33-C31=1.5262       C33-H69=1.0855       C33-H70=1.0868       C33-H71=1.0868       H34-C5=1.0767        H35-C8=1.0935        
H36-C8=1.0880        H37-C8=1.0942        H39-C11=1.0732       H40-C11=1.0763       H41-C12=1.0779       H42-C13=1.0786       
H43-C14=1.0895       H44-C14=1.0905       H45-C15=1.0886       H46-C15=1.0980       H47-C2=1.1074        H48-C16=1.0800       
H49-C18=1.0935       H50-C18=1.0918       H51-C19=1.0913       H52-C19=1.0905       H53-C21=1.0795       H54-C22=1.0776       
H55-C25=1.0943       H56-C25=1.0941       H57-C25=1.0883       H58-C28=1.0883       H59-C28=1.0948       H60-C28=1.0944       
H61-C29=1.0788       H62-C30=1.0923       H63-C30=1.0927       H64-C30=1.0870       H65-C31=1.0959       H66-C32=1.0849       
H67-C32=1.0874       H68-C32=1.0868       H69-C33=1.0855       H70-C33=1.0868       H71-C33=1.0868       H72-N1=1.0152        
 C  H  Rav=1.0880 sigma=0.0072  Rmin=1.0732  Rmax=1.1074    37
 C  C  Rav=1.4539 sigma=0.0677  Rmin=1.3838  Rmax=1.5592    22
 N  H  Rav=1.0152 sigma=0.0000  Rmin=1.0152  Rmax=1.0152     1
 N  C  Rav=1.3664 sigma=0.0822  Rmin=1.2490  Rmax=1.4440     4
 O  C  Rav=1.3656 sigma=0.0362  Rmin=1.3060  Rmax=1.4106     8

 selected bond angles (degree)
 --------------------
H72-N1-C2=117.82               C3-C2-N1=124.53                H47-C2-N1=123.87               H47-C2-C3=111.55               
C4-C3-C2=109.61                C14-C3-C2=106.25               C14-C3-C4=109.80               C31-C3-C2=113.10               
C31-C3-C4=108.33               C31-C3-C14=109.72              C5-C4-C3=119.60                C13-C4-C3=121.89               
C13-C4-C5=118.50               C6-C5-C4=121.66                H34-C5-C4=119.34               H34-C5-C6=118.99               
O7-C6-C5=125.49                C9-C6-C5=119.03                C9-C6-O7=115.47                C8-O7-C6=119.29                
H35-C8-O7=111.36               H36-C8-O7=105.50               H36-C8-H35=109.36              H37-C8-O7=111.50               
H37-C8-H35=109.76              H37-C8-H36=109.25              O10-C9-C6=115.11               C12-C9-C6=119.17               
C12-C9-O10=125.70              C11-O10-C9=125.56              

 selected dihedral angles (degree)
 ---------------------------------
C3-C2-N1-H72=181.71           H47-C2-N1-H72=359.17          C4-C3-C2-N1=250.30            C4-C3-C2-H47= 72.57           
C14-C3-C2-N1=131.72           C14-C3-C2-H47=313.99          C31-C3-C2-N1= 11.29           C31-C3-C2-H47=193.56          
C5-C4-C3-C2=187.22            C5-C4-C3-C14=303.58           C5-C4-C3-C31= 63.39           C13-C4-C3-C2=  8.35           
C13-C4-C3-C14=124.71          C13-C4-C3-C31=244.52          C6-C5-C4-C3=181.31            C6-C5-C4-C13=  0.22           
H34-C5-C4-C3=  0.20           H34-C5-C4-C13=179.11          O7-C6-C5-C4=179.14            O7-C6-C5-H34=  0.24           
C9-C6-C5-C4=358.46            C9-C6-C5-H34=179.56           C8-O7-C6-C5=354.73            C8-O7-C6-C9=175.39            
H35-C8-O7-C6=302.34           H36-C8-O7-C6=183.80           H37-C8-O7-C6= 65.31           O10-C9-C6-C5=180.52           
O10-C9-C6-O7=359.91           C12-C9-C6-C5=  1.85           C12-C9-C6-O7=181.24           C11-O10-C9-C6=173.91          
C11-O10-C9-C12=352.48         

 CMA Distance (Angstroems)
 ---------------------------
R(CMA):  8.7393
           -------------------------------------------------
          |                Final Singlepoint                |
           -------------------------------------------------

          ...................................................
          :                      SETUP                      :
          :.................................................:
          :  # basis functions                 171          :
          :  # atomic orbitals                 171          :
          :  # shells                          105          :
          :  # electrons                       180          :
          :  max. iterations                   250          :
          :  Hamiltonian                  GFN2-xTB          :
          :  restarted?                      false          :
          :  GBSA solvation                  false          :
          :  PC potential                    false          :
          :  electronic temp.         5000.0000000     K    :
          :  accuracy                    1.0000000          :
          :  -> integral cutoff          0.2500000E+02      :
          :  -> integral neglect         0.1000000E-07      :
          :  -> SCF convergence          0.1000000E-05 Eh   :
          :  -> wf. convergence          0.1000000E-03 e    :
          :  Broyden damping             0.4000000          :
          ...................................................

 iter      E             dE          RMSdq      gap      omega  full diag
   1   -100.6423705 -0.100642E+03  0.118E-05    0.45       0.0  T
   2   -100.6423705  0.834319E-10  0.302E-05    0.45     390.4  T
   3   -100.6423705 -0.932516E-10  0.437E-06    0.45    2697.4  T

   *** convergence criteria satisfied after 3 iterations ***

         #    Occupation            Energy/Eh            Energy/eV
      -------------------------------------------------------------
         1        2.0000           -0.8491261             -23.1059
       ...           ...                  ...                  ...
        84        1.9958           -0.5148928             -14.0109
        85        1.9934           -0.5077326             -13.8161
        86        1.9787           -0.4890466             -13.3076
        87        1.9784           -0.4888373             -13.3019
        88        1.9467           -0.4742725             -12.9056
        89        1.8436           -0.4563782             -12.4187
        90        1.1688           -0.4227105             -11.5025 (HOMO)
        91        0.6661           -0.4063162             -11.0564 (LUMO)
        92        0.4143           -0.3960619             -10.7774
        93        0.0177           -0.3425582              -9.3215
        94        0.0072           -0.3283353              -8.9345
        95        0.0051           -0.3227778              -8.7832
       ...           ...                  ...                  ...
       171                          0.5758900              15.6708
      -------------------------------------------------------------
                  HL-Gap            0.0163942 Eh            0.4461 eV
             Fermi-level           -0.4173135 Eh          -11.3557 eV

 SCC (total)                   0 d,  0 h,  0 min,  0.117 sec
 SCC setup                      ...        0 min,  0.001 sec (  0.762%)
 Dispersion                     ...        0 min,  0.001 sec (  1.080%)
 classical contributions        ...        0 min,  0.000 sec (  0.366%)
 integral evaluation            ...        0 min,  0.018 sec ( 15.262%)
 iterations                     ...        0 min,  0.026 sec ( 22.555%)
 molecular gradient             ...        0 min,  0.070 sec ( 59.416%)
 printout                       ...        0 min,  0.001 sec (  0.546%)

         :::::::::::::::::::::::::::::::::::::::::::::::::::::
         ::                     SUMMARY                     ::
         :::::::::::::::::::::::::::::::::::::::::::::::::::::
         :: total energy             -99.268131634587 Eh    ::
         :: gradient norm              0.002597220682 Eh/a0 ::
         :: HOMO-LUMO gap              0.446110064608 eV    ::
         ::.................................................::
         :: SCC energy              -100.642370540181 Eh    ::
         :: -> isotropic ES            0.106755603082 Eh    ::
         :: -> anisotropic ES          0.003936667890 Eh    ::
         :: -> anisotropic XC          0.045554066242 Eh    ::
         :: -> dispersion             -0.074978607575 Eh    ::
         :: repulsion energy           1.373041666759 Eh    ::
         :: add. restraining           0.000000000000 Eh    ::
         :: total charge               0.999999999999 e     ::
         :::::::::::::::::::::::::::::::::::::::::::::::::::::

           -------------------------------------------------
          |                Property Printout                |
           -------------------------------------------------

    * Orbital Energies and Occupations

         #    Occupation            Energy/Eh            Energy/eV
      -------------------------------------------------------------
         1        2.0000           -0.8491261             -23.1059
       ...           ...                  ...                  ...
        78        1.9986           -0.5322793             -14.4841
        79        1.9985           -0.5311102             -14.4522
        80        1.9983           -0.5292201             -14.4008
        81        1.9976           -0.5240129             -14.2591
        82        1.9971           -0.5205847             -14.1658
        83        1.9961           -0.5162056             -14.0467
        84        1.9958           -0.5148928             -14.0109
        85        1.9934           -0.5077326             -13.8161
        86        1.9787           -0.4890466             -13.3076
        87        1.9784           -0.4888373             -13.3019
        88        1.9467           -0.4742725             -12.9056
        89        1.8436           -0.4563782             -12.4187
        90        1.1688           -0.4227105             -11.5025 (HOMO)
        91        0.6661           -0.4063162             -11.0564 (LUMO)
        92        0.4143           -0.3960619             -10.7774
        93        0.0177           -0.3425582              -9.3215
        94        0.0072           -0.3283353              -8.9345
        95        0.0051           -0.3227778              -8.7832
        96        0.0027           -0.3129840              -8.5167
        97        0.0024           -0.3106998              -8.4546
        98        0.0000           -0.2043177              -5.5598
        99        0.0000           -0.1882091              -5.1214
       100                         -0.1384011              -3.7661
       101                         -0.0758427              -2.0638
       ...                                ...                  ...
       171                          0.5758900              15.6708
      -------------------------------------------------------------
                  HL-Gap            0.0163942 Eh            0.4461 eV
             Fermi-level           -0.4173135 Eh          -11.3557 eV

     #   Z          covCN         q      C6AA      α(0)
     1   7 N        1.774    -0.269    27.798     7.807
     2   6 C        2.826     0.099    25.787     8.321
     3   6 C        3.907     0.006    20.416     6.423
     4   6 C        2.974     0.010    27.797     8.648
     5   6 C        2.920    -0.079    29.981     8.979
     6   6 C        2.860     0.136    25.021     8.199
     7   8 O        1.706    -0.231    17.830     5.701
     8   6 C        3.645     0.025    20.489     6.506
     9   6 C        2.869     0.101    25.756     8.319
    10   8 O        1.710    -0.100    15.842     5.374
    11   6 C        2.733     0.034    27.223     8.542
    12   6 C        2.911    -0.063    29.569     8.917
    13   6 C        2.920    -0.052    29.292     8.875
    14   6 C        3.812    -0.066    21.749     6.638
    15   6 C        3.802    -0.068    21.810     6.649
    16   6 C        2.843     0.004    27.923     8.660
    17   7 N        2.729     0.009    21.104     6.823
    18   6 C        3.756    -0.016    20.920     6.522
    19   6 C        3.808    -0.070    21.843     6.653
    20   6 C        2.969    -0.000    28.037     8.685
    21   6 C        2.922    -0.049    29.215     8.864
    22   6 C        2.914    -0.067    29.681     8.934
    23   6 C        2.865     0.134    25.078     8.209
    24   8 O        1.706    -0.221    17.675     5.676
    25   6 C        3.645     0.025    20.491     6.506
    26   6 C        2.863     0.133    25.086     8.210
    27   8 O        1.706    -0.224    17.720     5.683
    28   6 C        3.645     0.027    20.456     6.501
    29   6 C        2.919    -0.080    29.987     8.980
    30   6 C        3.699    -0.070    22.001     6.708
    31   6 C        3.853    -0.007    20.674     6.467
    32   6 C        3.756    -0.120    22.845     6.815
    33   6 C        3.755    -0.119    22.829     6.813
    34   1 H        0.926     0.058     2.224     2.332
    35   1 H        0.924     0.057     2.237     2.339
    36   1 H        0.925     0.084     1.938     2.177
    37   1 H        0.924     0.050     2.316     2.380
    38   1 H        0.000    -0.137    17.612     7.674
    39   1 H        0.926     0.106     1.730     2.057
    40   1 H        0.926     0.072     2.062     2.246
    41   1 H        0.926     0.058     2.218     2.329
    42   1 H        0.926     0.046     2.371     2.408
    43   1 H        0.925     0.060     2.204     2.322
    44   1 H        0.924     0.055     2.253     2.348
    45   1 H        0.925     0.063     2.169     2.303
    46   1 H        0.923     0.079     1.986     2.204
    47   1 H        0.922     0.006     2.956     2.689
    48   1 H        0.926     0.069     2.096     2.264
    49   1 H        0.924     0.067     2.120     2.277
    50   1 H        0.924     0.068     2.113     2.273
    51   1 H        0.924     0.055     2.255     2.348
    52   1 H        0.924     0.055     2.255     2.348
    53   1 H        0.926     0.045     2.385     2.415
    54   1 H        0.926     0.059     2.216     2.328
    55   1 H        0.924     0.054     2.266     2.354
    56   1 H        0.924     0.056     2.247     2.344
    57   1 H        0.925     0.083     1.952     2.185
    58   1 H        0.925     0.082     1.957     2.187
    59   1 H        0.924     0.049     2.335     2.390
    60   1 H        0.924     0.053     2.288     2.366
    61   1 H        0.926     0.047     2.357     2.401
    62   1 H        0.924     0.075     2.027     2.227
    63   1 H        0.924     0.076     2.023     2.224
    64   1 H        0.925     0.080     1.978     2.200
    65   1 H        0.924     0.036     2.500     2.473
    66   1 H        0.925     0.071     2.078     2.254
    67   1 H        0.925     0.033     2.538     2.491
    68   1 H        0.925     0.052     2.295     2.369
    69   1 H        0.925     0.060     2.193     2.316
    70   1 H        0.925     0.035     2.520     2.482
    71   1 H        0.925     0.055     2.256     2.349
    72   1 H        0.860     0.157     1.352     1.821

 Mol. C6AA /au·bohr⁶  :      48702.788072
 Mol. C8AA /au·bohr⁸  :    1104899.451969
 Mol. α(0) /au        :        341.098381


Wiberg/Mayer (AO) data.
largest (>0.10) Wiberg bond orders for each atom

 ---------------------------------------------------------------------------
     #   Z sym  total        # sym  WBO       # sym  WBO       # sym  WBO
 ---------------------------------------------------------------------------
     1   7 N    3.040 --     2 C    1.957    72 H    0.942
     2   6 C    3.927 --     1 N    1.957     3 C    0.994    47 H    0.900
     3   6 C    3.978 --     2 C    0.994     4 C    0.973    14 C    0.958
                            31 C    0.941
     4   6 C    3.912 --    13 C    1.391     5 C    1.373     3 C    0.973
     5   6 C    3.961 --     6 C    1.395     4 C    1.373    34 H    0.957
     6   6 C    3.893 --     5 C    1.395     9 C    1.223     7 O    1.110
     7   8 O    2.271 --     6 C    1.110     8 C    0.973
     8   6 C    3.929 --    36 H    0.976    35 H    0.975    37 H    0.974
                             7 O    0.973
     9   6 C    3.891 --    12 C    1.354     6 C    1.223    10 O    1.058
    10   8 O    2.429 --    11 C    1.273     9 C    1.058
    11   6 C    3.340 --    10 O    1.273    40 H    0.965    39 H    0.962
    12   6 C    3.912 --    13 C    1.437     9 C    1.354    41 H    0.961
    13   6 C    3.973 --    12 C    1.437     4 C    1.391    42 H    0.962
    14   6 C    3.972 --    15 C    0.982    44 H    0.972    43 H    0.969
                             3 C    0.958
    15   6 C    3.988 --    16 C    1.059    14 C    0.982    45 H    0.962
                            46 H    0.928
    16   6 C    3.580 --    17 N    1.393    15 C    1.059    48 H    0.957
    17   7 N    3.470 --    16 C    1.393    30 C    0.999    18 C    0.988
    18   6 C    3.955 --    17 N    0.988    50 H    0.968    19 C    0.967
                            49 H    0.964
    19   6 C    3.976 --    20 C    1.007    52 H    0.972    51 H    0.972
                            18 C    0.967
    20   6 C    3.944 --    21 C    1.409    29 C    1.380    19 C    1.007
    21   6 C    3.950 --    22 C    1.417    20 C    1.409    53 H    0.968
    22   6 C    3.959 --    21 C    1.417    23 C    1.383    54 H    0.963
    23   6 C    3.895 --    22 C    1.383    26 C    1.219    24 O    1.111
    24   8 O    2.256 --    23 C    1.111    25 C    0.976
    25   6 C    3.928 --    57 H    0.977    24 O    0.976    56 H    0.973
                            55 H    0.973
    26   6 C    3.899 --    29 C    1.395    23 C    1.219    27 O    1.104
    27   8 O    2.255 --    26 C    1.104    28 C    0.978
    28   6 C    3.932 --    27 O    0.978    58 H    0.977    59 H    0.973
                            60 H    0.973
    29   6 C    3.959 --    26 C    1.395    20 C    1.380    61 H    0.963
    30   6 C    3.959 --    17 N    0.999    64 H    0.977    62 H    0.967
                            63 H    0.962
    31   6 C    3.973 --    33 C    1.009    32 C    1.009    65 H    0.960
                             3 C    0.941
    32   6 C    3.980 --    31 C    1.009    67 H    0.982    68 H    0.982
                            66 H    0.974
    33   6 C    3.984 --    31 C    1.009    70 H    0.983    71 H    0.980
                            69 H    0.977
    34   1 H    0.996 --     5 C    0.957
    35   1 H    0.994 --     8 C    0.975
    36   1 H    0.992 --     8 C    0.976
    37   1 H    0.995 --     8 C    0.974
    38   1 H    0.018
    39   1 H    0.988 --    11 C    0.962
    40   1 H    0.995 --    11 C    0.965
    41   1 H    0.995 --    12 C    0.961
    42   1 H    0.997 --    13 C    0.962
    43   1 H    0.995 --    14 C    0.969
    44   1 H    0.996 --    14 C    0.972
    45   1 H    0.995 --    15 C    0.962
    46   1 H    0.970 --    15 C    0.928
    47   1 H    0.989 --     2 C    0.900
    48   1 H    0.995 --    16 C    0.957
    49   1 H    0.990 --    18 C    0.964
    50   1 H    0.994 --    18 C    0.968
    51   1 H    0.996 --    19 C    0.972
    52   1 H    0.996 --    19 C    0.972
    53   1 H    0.997 --    21 C    0.968
    54   1 H    0.995 --    22 C    0.963
    55   1 H    0.992 --    25 C    0.973
    56   1 H    0.992 --    25 C    0.973
    57   1 H    0.992 --    25 C    0.977
    58   1 H    0.993 --    28 C    0.977
    59   1 H    0.993 --    28 C    0.973
    60   1 H    0.993 --    28 C    0.973
    61   1 H    0.997 --    29 C    0.963
    62   1 H    0.985 --    30 C    0.967
    63   1 H    0.988 --    30 C    0.962
    64   1 H    0.993 --    30 C    0.977
    65   1 H    0.994 --    31 C    0.960
    66   1 H    0.991 --    32 C    0.974
    67   1 H    0.997 --    32 C    0.982
    68   1 H    0.994 --    32 C    0.982
    69   1 H    0.994 --    33 C    0.977
    70   1 H    0.997 --    33 C    0.983
    71   1 H    0.994 --    33 C    0.980
    72   1 H    0.971 --     1 N    0.942
 ---------------------------------------------------------------------------

Topologies differ in total number of bonds
Writing topology from bond orders to xtbtopo.mol

molecular dipole:
                 x           y           z       tot (Debye)
 q only:        0.693       0.754      -1.686
   full:        0.949       0.648      -1.860       5.558
molecular quadrupole (traceless):
                xx          xy          yy          xz          yz          zz
 q only:       60.519      -7.744     -24.246      19.887       4.806     -36.273
  q+dip:       54.898      -2.377     -22.768      23.074       0.590     -32.130
   full:       54.631      -3.002     -23.384      20.039       1.185     -31.246

           -------------------------------------------------
          |                Geometry Summary                 |
           -------------------------------------------------

      molecular mass/u    :      455.6105846
   center of mass at/Å    :        0.0073714       0.0250254      -0.0173542
  moments of inertia/u·Å² :        0.2469076E+04   0.1101082E+05   0.1231800E+05
rotational constants/cm⁻¹ :        0.6827506E-02   0.1531007E-02   0.1368536E-02

 * 65 selected distances

     #   Z          #   Z                                           value/Å
     1   7 N        2   6 C                                       1.2490152
     4   6 C        5   6 C                                       1.3965088
     5   6 C        6   6 C                                       1.3854343
     6   6 C        7   8 O                                       1.3455829
     7   8 O        8   6 C                                       1.4105656
     6   6 C        9   6 C                                       1.4219464
     9   6 C       10   8 O                                       1.3531956
    10   8 O       11   6 C                                       1.3060484
     9   6 C       12   6 C                                       1.3930686
     4   6 C       13   6 C                                       1.3908237
    12   6 C       13   6 C                                       1.3838445
    14   6 C       15   6 C                                       1.5397714
    15   6 C       16   6 C                                       1.4803890
    16   6 C       17   7 N                                       1.3293318
    17   7 N       18   6 C                                       1.4440384
    18   6 C       19   6 C                                       1.5408603 (max)
    20   6 C       21   6 C                                       1.3854902
    21   6 C       22   6 C                                       1.3862181
    22   6 C       23   6 C                                       1.3874665
    23   6 C       24   8 O                                       1.3455244
    24   8 O       25   6 C                                       1.4091530
    23   6 C       26   6 C                                       1.4226760
    26   6 C       27   8 O                                       1.3475674
    27   8 O       28   6 C                                       1.4075063
    20   6 C       29   6 C                                       1.3928710
    26   6 C       29   6 C                                       1.3861101
    17   7 N       30   6 C                                       1.4430298
    31   6 C       32   6 C                                       1.5268389
    31   6 C       33   6 C                                       1.5261722
     5   6 C       34   1 H                                       1.0766733
     8   6 C       35   1 H                                       1.0934869
     8   6 C       36   1 H                                       1.0879659
     8   6 C       37   1 H                                       1.0942177
    11   6 C       39   1 H                                       1.0731633 (min)
    11   6 C       40   1 H                                       1.0763370
    12   6 C       41   1 H                                       1.0779165
    13   6 C       42   1 H                                       1.0785956
    14   6 C       43   1 H                                       1.0895099
    14   6 C       44   1 H                                       1.0905310
    15   6 C       45   1 H                                       1.0886140
    15   6 C       46   1 H                                       1.0980280
    16   6 C       48   1 H                                       1.0800420
    18   6 C       49   1 H                                       1.0935123
    18   6 C       50   1 H                                       1.0918159
    19   6 C       51   1 H                                       1.0913444
    19   6 C       52   1 H                                       1.0905282
    21   6 C       53   1 H                                       1.0794872
    22   6 C       54   1 H                                       1.0775784
    25   6 C       55   1 H                                       1.0942530
    25   6 C       56   1 H                                       1.0940772
    25   6 C       57   1 H                                       1.0882808
    28   6 C       58   1 H                                       1.0882610
    28   6 C       59   1 H                                       1.0947925
    28   6 C       60   1 H                                       1.0944010
    29   6 C       61   1 H                                       1.0788475
    30   6 C       62   1 H                                       1.0923470
    30   6 C       63   1 H                                       1.0926915
    30   6 C       64   1 H                                       1.0870253
    31   6 C       65   1 H                                       1.0958629
    32   6 C       66   1 H                                       1.0849370
    32   6 C       67   1 H                                       1.0873801
    32   6 C       68   1 H                                       1.0867740
    33   6 C       69   1 H                                       1.0855078
    33   6 C       70   1 H                                       1.0867965
    33   6 C       71   1 H                                       1.0868071

 * 4 distinct bonds (by element types)

   Z      Z             #   av. dist./Å        max./Å        min./Å
   1 H    6 C          36     1.0874553     1.0980280     1.0731633
   6 C    6 C          17     1.4321465     1.5408603     1.3838445
   6 C    7 N           4     1.3663538     1.4440384     1.2490152
   6 C    8 O           8     1.3656430     1.4105656     1.3060484


optimized geometry written to: xtbopt.xyz


           -------------------------------------------------
          | TOTAL ENERGY              -99.268131634587 Eh   |
          | GRADIENT NORM               0.002597220682 Eh/α |
          | HOMO-LUMO GAP               0.446110064608 eV   |
           -------------------------------------------------

------------------------------------------------------------------------
 * finished run on 2024/04/06 at 11:12:52.519     
------------------------------------------------------------------------
 total:
 * wall-time:     0 d,  0 h,  0 min,  0.467 sec
 *  cpu-time:     0 d,  0 h,  0 min,  0.438 sec
 * ratio c/w:     0.936 speedup
 SCF:
 * wall-time:     0 d,  0 h,  0 min,  0.119 sec
 *  cpu-time:     0 d,  0 h,  0 min,  0.119 sec
 * ratio c/w:     1.000 speedup
 ANC optimizer:
 * wall-time:     0 d,  0 h,  0 min,  0.304 sec
 *  cpu-time:     0 d,  0 h,  0 min,  0.295 sec
 * ratio c/w:     0.971 speedup

