25
 energy: 0.000000000000 xtb: 6.6.1 (8d0f1dd)
C            3.23720163006194        1.16630919979326        0.08434469647475
N            2.29877817382611        0.07527477071623        0.03981603040599
C            2.58028210190900       -1.21425402444508        0.03006176031096
N            1.43813958087363       -1.93419271955128        0.00098261760884
C            0.39035688448383       -1.05887472636071       -0.00790371836672
C            0.93510056364412        0.21347819449412        0.01709077491437
C            0.09450143893243        1.40504303904423       -0.00410947031874
O            0.49712751527797        2.54126714362870       -0.00342325688240
N           -1.25076640035757        1.06271879480407       -0.03085478223738
C           -2.21907211982101        2.15522099834493       -0.05001256985998
C           -1.81739487048744       -0.20012725993278       -0.04692818574614
O           -2.99983886758376       -0.37846417018721       -0.07008878229737
N           -0.92618586207120       -1.30210215599479       -0.03682761578324
C           -1.46982264913417       -2.64643102187190       -0.06029820460571
H            3.71247264356769        1.21471455160235        1.06488849150277
H            4.00791497605742        1.03430808813993       -0.67357694370751
H            2.69910007168542        2.09770118228144       -0.09130154882931
H            3.56654120610678       -1.63682992603973        0.04233140067262
H           -1.67107961066214        3.09322851271934       -0.02552706933167
H           -2.82428953597071        2.09428624779827       -0.95318082946668
H           -2.87644029173232        2.07745725625962        0.81450067533302
H           -1.17061996399332       -3.19584890659852        0.83242232437030
H           -1.14560257411436       -3.17511610292205       -0.95688275822323
H           -2.55549792440841       -2.55659984320617       -0.07459039797972
H            1.38130855184625       -2.94313852034425       -0.01389874181052
25
 energy: -5.398290855645 xtb: 6.6.1 (8d0f1dd)
C            3.24395072926003        1.17751822235561        0.08675561034351
N            2.30808776967846        0.09557799821364        0.03771513733978
C            2.59958360080012       -1.23256690471836        0.03005243355939
N            1.42747581480786       -1.94018179187146        0.00080942774522
C            0.39640569419255       -1.05608328472126       -0.00827356079214
C            0.93024953105040        0.22263236678890        0.01524164906018
C            0.10170249857131        1.39607991685571       -0.00526716644352
O            0.49832272792640        2.56194693815025       -0.00465446006343
N           -1.26031169550130        1.05067585401445       -0.03111062674926
C           -2.22052290981557        2.14681353473063       -0.04985173017288
C           -1.82358790211460       -0.20062158438952       -0.04730655173569
O           -3.02022715417759       -0.38301075713154       -0.07040653237588
N           -0.93415673221754       -1.30084838736005       -0.03705067881429
C           -1.47198756379119       -2.64286484105515       -0.06020681629648
H            3.72216698077582        1.22339057590027        1.06882606779962
H            4.01201595504363        1.04271203367297       -0.67624701278811
H            2.69720190244646        2.10217201349881       -0.08878522605578
H            3.57777996271755       -1.65890798564834        0.04269137270329
H           -1.65893337179144        3.07806577865535       -0.02536132605533
H           -2.82591800344161        2.09336794583235       -0.95425373413044
H           -2.87809525393821        2.07674127344942        0.81601914934550
H           -1.16861271033604       -3.19411143103704        0.83189877197867
H           -1.14358382516250       -3.17357034522190       -0.95600877432933
H           -2.55728487798820       -2.55200199409631       -0.07457474115245
H            1.36049350094138       -2.94389654269539       -0.01361678577288
25
 energy: -6.504283751694 xtb: 6.6.1 (8d0f1dd)
C            3.25560293520866        1.18884163252060        0.09084283601875
N            2.32020670613087        0.10907329080888        0.03357439570544
C            2.61270516734835       -1.25145928783042        0.02987237102991
N            1.41094853718958       -1.93855653809328        0.00094630280851
C            0.40007372640642       -1.04859548760890       -0.00962790323154
C            0.92896368508060        0.23351418578695        0.01115598938561
C            0.10777744862636        1.38325131410663       -0.00924064141978
O            0.48163410315815        2.56899181473486       -0.00970207905791
N           -1.27329173847628        1.03473874413647       -0.03240589019691
C           -2.22167865675939        2.13442355446661       -0.04952824772529
C           -1.83079020863265       -0.20402746094618       -0.04813325497936
O           -3.03330879720909       -0.39370897615817       -0.07039807241528
N           -0.94196679661616       -1.29580649122299       -0.03765033844628
C           -1.47311908366268       -2.63601438734137       -0.05987052121242
H            3.74509150364018        1.24116322011419        1.07033618137048
H            4.02200248860465        1.06884964420998       -0.67911564608797
H            2.69929348344858        2.10990416783983       -0.07723958117546
H            3.58197733290234       -1.69299330781927        0.04375288468609
H           -1.63118209755147        3.04861445216178       -0.02509832977929
H           -2.82845539654656        2.09244171006093       -0.95457209554477
H           -2.87931220745404        2.07604653684621        0.81818369245590
H           -1.16619497626970       -3.18860403293856        0.83158118517066
H           -1.14111698866989       -3.16894487220668       -0.95443814538382
H           -2.55851054148271       -2.54263069597151       -0.07438310084261
H            1.32486503952206       -2.93948412748461       -0.01180809498536
25
 energy: -5.049848564980 xtb: 6.6.1 (8d0f1dd)
C            3.27218383600176        1.20190105636762        0.09775723363267
N            2.33711616038697        0.11558382077997        0.02750120897892
C            2.61797620860494       -1.27263897107230        0.02851063350608
N            1.39041933712161       -1.93330319159224        0.00162918802369
C            0.40096769756153       -1.03692524653560       -0.01290950945279
C            0.93400951892944        0.24516333596617        0.00346949582365
C            0.10818422112623        1.37275786848500       -0.02010841866578
O            0.44626743579375        2.57362185184564       -0.02478248988190
N           -1.28905032036554        1.01492542825011       -0.03699113358193
C           -2.22107958321788        2.11925908146481       -0.04918972621567
C           -1.84159020222565       -0.21410653781635       -0.05026231168322
O           -3.04552806400894       -0.41592632560552       -0.06972157445793
N           -0.94682551129109       -1.28973911089275       -0.03931974551719
C           -1.47128881017216       -2.62824527869632       -0.05874052716710
H            3.78631441506882        1.26105741774638        1.06766013232696
H            4.03452586283858        1.12378012654348       -0.68563021878702
H            2.70365100440134        2.12225571463121       -0.04361892307456
H            3.57386037105505       -1.74529953999772        0.04617059606771
H           -1.58472780807033        3.00466754730979       -0.02557638511727
H           -2.83185689672264        2.09367203059219       -0.95291437050009
H           -2.87618657505129        2.07693584884193        0.82225713975927
H           -1.16263861221111       -3.17848693128853        0.83386881118286
H           -1.13750580809120       -3.16203790403901       -0.95245590356513
H           -2.55677467169508       -2.52803221149121       -0.07341881629321
H            1.27179146216907       -2.93181127762470       -0.00615048919373
25
 energy: 12.404777083157 xtb: 6.6.1 (8d0f1dd)
C            3.30907262442242        1.23996296496299        0.12138465711087
N            2.38067874834973        0.13659276471307        0.00712350479224
C            2.62970071537654       -1.32709141734356        0.02394862410366
N            1.33299546086854       -1.91176753830562        0.00504321730981
C            0.40218688557014       -0.99926762467330       -0.02455804378628
C            0.94726367693137        0.28295469775132       -0.02314604719767
C            0.11104028114940        1.34852903638328       -0.06010021329503
O            0.33645450470095        2.59019085616331       -0.08090809460932
N           -1.33235346903722        0.95734040499367       -0.05478780333627
C           -2.21068551916600        2.07479384807129       -0.04829921923918
C           -1.87175330177043       -0.24414610113241       -0.05815208869717
O           -3.07778122518999       -0.48069418720753       -0.06640307781165
N           -0.95865030027263       -1.27108554655768       -0.04598451906260
C           -1.46234524211272       -2.60529497506329       -0.05459216839378
H            3.90216633159539        1.28368660677202        1.06055432730556
H            4.03997454114324        1.27505447621049       -0.71710189110458
H            2.71003384361575        2.16659552886987        0.08110116800669
H            3.54775305820120       -1.88578237544757        0.05526331498640
H           -1.43793043827599        2.87256606322357       -0.02848595643643
H           -2.83166422141612        2.08947062911329       -0.94743478530118
H           -2.84955839252126        2.06977034878382        0.83871030071148
H           -1.14871583071920       -3.14426477810560        0.84341825963398
H           -1.12392475427862       -3.14159896667805       -0.94534706012196
H           -2.54846079725970       -2.48500518829189       -0.06968321853291
H            1.11671748803132       -2.90248092503344        0.01547070911262
25
 energy: 34.273078696037 xtb: 6.6.1 (8d0f1dd)
C            3.34649520786564        1.26513867594265        0.14121046046055
N            2.41695820625626        0.14202189863059       -0.00623925294890
C            2.63520777430885       -1.37498422653970        0.01756121040299
N            1.29297294600620       -1.90853979416576        0.00709088101189
C            0.40267570556995       -0.97736167643140       -0.03503130801888
C            0.96276458919858        0.30064493215318       -0.04446667608652
C            0.10929437291925        1.33298313156498       -0.09817176592936
O            0.28052316963956        2.59294519727932       -0.13285071200801
N           -1.36415114948712        0.92500805230075       -0.07384909787510
C           -2.21487584545144        2.05242686904198       -0.04717757126893
C           -1.89579244280041       -0.26534972996216       -0.06615391339590
O           -3.10289427849288       -0.52958433721326       -0.06392338319707
N           -0.96457460278983       -1.26158198645247       -0.05257112921014
C           -1.45359504135109       -2.59436285342983       -0.04984883175689
H            4.00999131600535        1.31182867407439        1.04753515368380
H            4.05925934171799        1.42446440272603       -0.73303196617942
H            2.71839745184635        2.18809128540179        0.19043226889649
H            3.51977016090898       -2.00432610713744        0.06115547941840
H           -1.36892785454909        2.79577217030290       -0.03137929660242
H           -2.85036329557048        2.10328266129050       -0.93781419149692
H           -2.84132689655488        2.07712896146886        0.85114995440292
H           -1.13784118964195       -3.12357341028189        0.85371411610872
H           -1.11364980886384       -3.13390431419893       -0.93837989893445
H           -2.53949076915047       -2.45891848877963       -0.06487691516600
H            1.00538760039658       -2.89022138541332        0.03295028183641
25
 energy: 54.898671404970 xtb: 6.6.1 (8d0f1dd)
C            3.38654335612703        1.28591507453392        0.16039297635916
N            2.45192610145798        0.13481117042847       -0.01836280633148
C            2.63276493260227       -1.42385667063713        0.01029230309235
N            1.26169165547787       -1.91631683155503        0.01054329446910
C            0.40122887355298       -0.96118359942148       -0.04670948573245
C            0.98484367046514        0.30671738807194       -0.06629110976767
C            0.10247391177300        1.32803126269993       -0.14158994550144
O            0.25132891068122        2.58373831303207       -0.18989487634592
N           -1.39290306388215        0.90750169882782       -0.09711256231109
C           -2.22648883433156        2.04437331912278       -0.04542375501942
C           -1.92071458637874       -0.28635923322263       -0.07505431094615
O           -3.12503584260558       -0.57978424986532       -0.06137493709244
N           -0.96350812953680       -1.25797852413469       -0.06062069493642
C           -1.44064918478502       -2.59137654745984       -0.04452367912123
H            4.12751408485737        1.34177336539461        1.02363598467680
H            4.08040333427352        1.59675522725198       -0.74244599545403
H            2.73057988635754        2.19861520015250        0.31148771631059
H            3.47965600782478       -2.12517135421518        0.06765254797011
H           -1.34151608109462        2.74183124563251       -0.03470764152336
H           -2.87748734559219        2.13037685333348       -0.92432260350019
H           -2.83817740591544        2.09381268759735        0.86313158595056
H           -1.12698441322589       -3.10829345163206        0.86673439490211
H           -1.10325507473850       -3.13291264575488       -0.93214786189090
H           -2.52585256953776       -2.43853295086071       -0.05927568566671
H            0.90383247410948       -2.88345814514825        0.05302104355740
25
 energy: 56.670322736090 xtb: 6.6.1 (8d0f1dd)
C            3.39806356101510        1.28366307147650        0.15973896677892
N            2.44509757337020        0.07167103908756       -0.02100729376824
C            2.57485424050292       -1.41745570984312        0.00721774574327
N            1.30911155101210       -1.95342995030883        0.02073658226180
C            0.37853635571926       -0.96206539563817       -0.05698888764551
C            1.03602070252393        0.25985961277144       -0.07753109837360
C            0.04964164297118        1.41298087742864       -0.17453648394131
O            0.31135462780397        2.52691512038448       -0.22546710713114
N           -1.38325543077756        0.95899751874970       -0.11911206240184
C           -2.23287593972290        2.09864353008913       -0.04182953740265
C           -1.95035087624933       -0.31399335197590       -0.07767360378772
O           -3.12317896128801       -0.62132186803974       -0.05901469191381
N           -0.91505199975755       -1.28796829453028       -0.06959397089981
C           -1.41448260705928       -2.62542777216224       -0.04174265139346
H            4.18464755478063        1.33418793907915        0.95825922054459
H            4.05010736289785        1.72758568768362       -0.71802061991806
H            2.76336820896708        2.16496418401105        0.40757566573250
H            3.38982982832146       -2.15108422545975        0.07524612811598
H           -1.43495013616775        2.75354357510933       -0.04079913310186
H           -2.87467953011799        2.17392631976449       -0.90788612265946
H           -2.81759905797658        2.12420697367429        0.86648166372783
H           -1.12574808469188       -3.11316975423623        0.88512164465587
H           -1.10057216590281       -3.14638894373100       -0.93908085816373
H           -2.49912745423731       -2.43912661921250       -0.05589065130045
H            0.89345370199916       -2.87068496199947        0.07283105238919
25
 energy: 63.436540730461 xtb: 6.6.1 (8d0f1dd)
C            3.41821987588721        1.30372690508917        0.18389088244953
N            2.47528770951135        0.08421714427811       -0.03500275801265
C            2.58324079298366       -1.44669978462616       -0.00030423832661
N            1.26987077522499       -1.93933386572401        0.02252229797009
C            0.38523971284836       -0.94398740848309       -0.06745277199056
C            1.04007803098050        0.27917721680147       -0.10248462529586
C            0.06384618087546        1.37309154497107       -0.21302289593708
O            0.26264231009903        2.55728135762355       -0.30830748673045
N           -1.40038771267965        0.91941440593322       -0.14180138199209
C           -2.23386348465685        2.08076728554543       -0.04028746503477
C           -1.95302730015905       -0.32522818138644       -0.09211323578480
O           -3.12944189659656       -0.64809982463879       -0.05738525040160
N           -0.92805330097504       -1.27599242363753       -0.07870687133630
C           -1.40218421101833       -2.62060680555005       -0.03656376702679
H            4.28436236354885        1.29935158049582        0.94449174067291
H            4.01994201391001        1.84268868716611       -0.74504778506582
H            2.75266538730455        2.18099540631930        0.54713452673393
H            3.36481961428022       -2.23236244602496        0.08460743333756
H           -1.38167899524419        2.73306645440162       -0.04318862817920
H           -2.90165133960438        2.19672650023889       -0.89521404770387
H           -2.80450735225436        2.12960984747369        0.88572073825022
H           -1.10976873188209       -3.10261558977825        0.89610690466237
H           -1.08522992529981       -3.15639365784163       -0.92815501944257
H           -2.48511666814763       -2.44216068859775       -0.05075686720869
H            0.80691081899957       -2.85760505787662        0.09835446754037
25
 energy: 74.515661901066 xtb: 6.6.1 (8d0f1dd)
C            3.41869084921838        1.31953963487009        0.22061821340555
N            2.48444084456247        0.09015415635652       -0.05264756414354
C            2.56769498275703       -1.44790383041908       -0.00641411505574
N            1.24274097229304       -1.91365423493875        0.02441445037617
C            0.38255854472027       -0.92140271070518       -0.08577267161163
C            1.04209627650126        0.29768026192984       -0.14706442416994
C            0.07389828739172        1.34949688380888       -0.27763441081064
O            0.22151006905523        2.56721672884544       -0.43725619283090
N           -1.40129901187674        0.89123488514130       -0.17483175759453
C           -2.22008950988206        2.07172050580897       -0.03042829691487
C           -1.95054414230131       -0.33295503380193       -0.11331658597033
O           -3.12380951447755       -0.66527903626376       -0.05398174038459
N           -0.93427246670238       -1.26672708292075       -0.09661329225339
C           -1.37929642417582       -2.62405424765980       -0.03046831079895
H            4.36789000350209        1.21524864112025        0.91211365802760
H            3.93012301250276        1.93759816201176       -0.74746536465980
H            2.76483731854072        2.17869728195770        0.71984308546773
H            3.31208571861117       -2.27402814040155        0.09949813980377
H           -1.34122208927087        2.72252848058995       -0.04148457458477
H           -2.91861206550340        2.22373782692638       -0.86401891110156
H           -2.75871834940451        2.12242035185377        0.92059572413714
H           -1.08169025302709       -3.08968700992271        0.91175266888495
H           -1.05933512315813       -3.17736972800812       -0.91291225030026
H           -2.46174352590955       -2.46680343231631       -0.04336721567888
H            0.73428026396897       -2.81838071169070        0.13387563490871
25
 energy: 66.914537145792 xtb: 6.6.1 (8d0f1dd)
C            3.39147125525288        1.31709996156372        0.26467157807807
N            2.46981447265289        0.09038045305893       -0.06745269300693
C            2.53620745779869       -1.39597856578015       -0.00302178763288
N            1.23251512803624       -1.87240361131398        0.02513279082902
C            0.37943056229553       -0.90781129168701       -0.10838608795222
C            1.02661339068659        0.31268753695114       -0.21153391896189
C            0.09025686960511        1.30660003303163       -0.36163743889879
O            0.21366375181048        2.58311068475418       -0.60942781269943
N           -1.36718621544356        0.87223098778838       -0.21010580984968
C           -2.20052674254248        2.06737014954060       -0.00604061072399
C           -1.91914085992548       -0.32089616504348       -0.14092750937867
O           -3.09149841262190       -0.64298291631620       -0.04884703323655
N           -0.94588656453299       -1.25947751362611       -0.12498984226623
C           -1.35391937874039       -2.63619927889908       -0.02705346582633
H            4.37886661930730        1.09530580097178        0.85534264047339
H            3.78546521803055        1.94924185181012       -0.68633170476334
H            2.79805292307881        2.11467181937468        0.86618778581374
H            3.24593673781672       -2.22680581117030        0.11574939988346
H           -1.33604886493258        2.78723617615326       -0.02557544239495
H           -2.93836916416809        2.26073032247248       -0.80898997188558
H           -2.70285780394862        2.09792143315016        0.97343720991210
H           -1.04606091204482       -3.08713853511731        0.92424709894797
H           -1.02777810935418       -3.21929863169024       -0.89511595538818
H           -2.43560809186468       -2.53147726916119       -0.03547740855447
H            0.72880140168352       -2.76508901864372        0.17317988562961
25
 energy: 71.664969854356 xtb: 6.6.1 (8d0f1dd)
C            3.39010981826262        1.32090381920255        0.30260701783541
N            2.47374143960057        0.07572583589295       -0.08558229658142
C            2.50742672671707       -1.37087642090246        0.00614844356350
N            1.22879206455627       -1.85599510376749        0.03727108959441
C            0.37355291289711       -0.89093855029416       -0.13780364604003
C            1.03349438857731        0.32243945816136       -0.27910420650963
C            0.07902503308016        1.30161649741821       -0.48590184531897
O            0.21556939871422        2.57406534697414       -0.75369851600511
N           -1.35680889407810        0.88061857910860       -0.26109778592501
C           -2.19317915798366        2.07390366018063        0.01615709672927
C           -1.91755967729249       -0.31828310171764       -0.16514301122524
O           -3.08242591394185       -0.64828327698482       -0.04063233165214
N           -0.94228659292561       -1.25915457829375       -0.15864380676743
C           -1.32379275527294       -2.64662334861665       -0.02211661205725
H            4.43865350510423        1.00701765930407        0.76760155908640
H            3.65253910282072        2.04658040252531       -0.62996621476427
H            2.83364680716971        2.03891521522602        1.06847908029255
H            3.17128522577991       -2.23759447342943        0.13206560636594
H           -1.33886187584784        2.81651085229285       -0.01358803271474
H           -2.95892934192668        2.29869690961119       -0.75055308297832
H           -2.65017472699917        2.07448611549566        1.02002297984092
H           -1.00848542266321       -3.07204952041516        0.94140325548629
H           -0.99510071399536       -3.24945352760659       -0.87695743401010
H           -2.40740899666679       -2.57083087265467       -0.02453330629981
H            0.68939231424923       -2.72236897453841        0.22059989620204
25
 energy: 50.104357052702 xtb: 6.6.1 (8d0f1dd)
C            3.37789577662082        1.31404872452764        0.31869289168769
N            2.46438771627460        0.05973212178743       -0.10230604046847
C            2.48834797243933       -1.30496531696059        0.03912693571860
N            1.26265833444198       -1.85268167598965        0.05508008745794
C            0.36723056810187       -0.88852824016356       -0.16456883365534
C            1.03297486100428        0.32638916702558       -0.32965706005514
C            0.03470454719058        1.32871590948356       -0.61067233629047
O            0.25006679837073        2.53922196932679       -0.82748885194660
N           -1.33616171376092        0.93876466594915       -0.29624861186605
C           -2.17799078565379        2.09351693079696        0.03944010359749
C           -1.91485268397415       -0.29762525112660       -0.17227710230421
O           -3.07012861632941       -0.61699043558958       -0.03107018124325
N           -0.92884596879066       -1.27275201077752       -0.19489366546637
C           -1.30446747749367       -2.65709520502313       -0.02362780100768
H            4.37815696624615        0.95008479211491        0.64598529216573
H            3.49416845353539        2.02440955469706       -0.49622029988417
H            2.90434444971128        1.88820125890785        1.16128201089199
H            3.12880577424496       -2.16511405235339        0.13221208174037
H           -1.38059197527409        2.88211233840703        0.00677024317155
H           -2.94983410095593        2.31149885813152       -0.68428544863851
H           -2.59809507788607        2.02826951791726        1.04808256313206
H           -0.97949719802329       -3.06248219537584        0.94414372481364
H           -0.97084981114495       -3.27150736140250       -0.86328955397101
H           -2.39404181631354       -2.61624819077944       -0.01593705752521
H            0.73382967535388       -2.68994727135866        0.24876080609268
25
 energy: 50.143337729225 xtb: 6.6.1 (8d0f1dd)
C            3.35925421807662        1.28675004220876        0.36210591148232
N            2.44983342867989        0.06385880534465       -0.14040995193121
C            2.48615007660988       -1.29273183786482        0.08054250487962
N            1.24820365457172       -1.84023444685684        0.07154525866766
C            0.35806052641239       -0.87858953290714       -0.20295515697753
C            1.01518326283450        0.34056669715850       -0.39184353021417
C            0.02864253040526        1.34408420043051       -0.72194018332588
O            0.24282898471931        2.51933414208238       -0.99326774950166
N           -1.33543261933899        0.96097614545021       -0.34010874750916
C           -2.14587167268353        2.09975838613437        0.06514373272932
C           -1.91395204926986       -0.28260544201851       -0.20247699649251
O           -3.07008942644975       -0.59407701511164       -0.02285206561189
N           -0.93455421291464       -1.27122361168312       -0.24239926733088
C           -1.28573970188327       -2.65611834408975       -0.02515644367630
H            4.40115984752341        0.87000137558481        0.55931878976236
H            3.33940414291953        2.11382665051530       -0.44929314535324
H            2.94454824648967        1.77871609702104        1.34254819887707
H            3.12548512951923       -2.14201679607824        0.15493233447596
H           -1.38665114205564        2.89599328035097        0.04064578355405
H           -2.95870594361068        2.33532842920025       -0.61382402238006
H           -2.52076412745586        1.97514209033934        1.09010440461624
H           -0.93861745208968       -3.03065668738093        0.95161337773844
H           -0.93397814259123       -3.29039893651225       -0.84362529400885
H           -2.37848921928262       -2.65195395841301       -0.01029489411208
H            0.71630632879959       -2.66470113073246        0.30898104778963
25
 energy: 37.518538220060 xtb: 6.6.1 (8d0f1dd)
C            3.31430514226756        1.23920950461765        0.39774991480227
N            2.41593847021257        0.09324864998032       -0.18552001823394
C            2.49530198634380       -1.27260234790897        0.14783872570919
N            1.22978949662348       -1.82194893326135        0.07666710228572
C            0.35191437737368       -0.87930437128831       -0.24341873795577
C            0.97679141425117        0.35051758357106       -0.44089378919028
C            0.03148344769919        1.35943038087682       -0.79254254004840
O            0.22992827000129        2.51018178439161       -1.18286269197049
N           -1.33305507184268        0.98124388282870       -0.37271746362548
C           -2.10465622868166        2.10622628175969        0.10230787921605
C           -1.90159601756280       -0.26101878054040       -0.23579322775326
O           -3.06649121209149       -0.54594773401017       -0.01700908761539
N           -0.94748115293818       -1.27007690870242       -0.29743372213571
C           -1.27670006777181       -2.65219215012754       -0.03466506386049
H            4.36420220315882        0.82372963163228        0.47495833222787
H            3.21189021328961        2.11937665876782       -0.35105987486785
H            2.98872165372395        1.64923019957874        1.43459649193799
H            3.17473608313335       -2.08576115439378        0.17216777985442
H           -1.39730754808338        2.92256527935767        0.09111059584586
H           -2.97552232068545        2.35981007971472       -0.52862108928970
H           -2.44390483268645        1.91967926753027        1.13565581368712
H           -0.90272263010405       -2.99947518793787        0.94675344345102
H           -0.89858839515738       -3.30738095898893       -0.82912098663896
H           -2.36794471711147       -2.69273163173115       -0.01201671062547
H            0.74318210457347       -2.65698042354406        0.37090282094094
25