25
 energy: 0.000000000000 xtb: 6.6.1 (8d0f1dd)
C            3.23720163006194        1.16630919979326        0.08434469647475
N            2.29877817382611        0.07527477071623        0.03981603040599
C            2.58028210190900       -1.21425402444508        0.03006176031096
N            1.43813958087363       -1.93419271955128        0.00098261760884
C            0.39035688448383       -1.05887472636071       -0.00790371836672
C            0.93510056364412        0.21347819449412        0.01709077491437
C            0.09450143893243        1.40504303904423       -0.00410947031874
O            0.49712751527797        2.54126714362870       -0.00342325688240
N           -1.25076640035757        1.06271879480407       -0.03085478223738
C           -2.21907211982101        2.15522099834493       -0.05001256985998
C           -1.81739487048744       -0.20012725993278       -0.04692818574614
O           -2.99983886758376       -0.37846417018721       -0.07008878229737
N           -0.92618586207120       -1.30210215599479       -0.03682761578324
C           -1.46982264913417       -2.64643102187190       -0.06029820460571
H            3.71247264356769        1.21471455160235        1.06488849150277
H            4.00791497605742        1.03430808813993       -0.67357694370751
H            2.69910007168542        2.09770118228144       -0.09130154882931
H            3.56654120610678       -1.63682992603973        0.04233140067262
H           -1.67107961066214        3.09322851271934       -0.02552706933167
H           -2.82428953597071        2.09428624779827       -0.95318082946668
H           -2.87644029173232        2.07745725625962        0.81450067533302
H           -1.17061996399332       -3.19584890659852        0.83242232437030
H           -1.14560257411436       -3.17511610292205       -0.95688275822323
H           -2.55549792440841       -2.55659984320617       -0.07459039797972
H            1.38130855184625       -2.94313852034425       -0.01389874181052
25
 energy: -5.383390917742 xtb: 6.6.1 (8d0f1dd)
C            3.24481325046435        1.18009418857043        0.08676306486387
N            2.30982717022056        0.09707827718293        0.03785785239217
C            2.60254549579325       -1.23070103607717        0.03021570771865
N            1.43105966840158       -1.93966312961309        0.00100832979000
C            0.39844814685707       -1.05720060472314       -0.00815662234438
C            0.93177377715846        0.22230861117438        0.01537740525783
C            0.10302875511626        1.39549704021237       -0.00519075748050
O            0.49905094132184        2.56159723511565       -0.00459777497983
N           -1.25859680566771        1.04929812660659       -0.03107191445009
C           -2.21952327401156        2.14462464252634       -0.04991260211611
C           -1.82140040402417       -0.20208893926867       -0.04723180739948
O           -3.01795530798020       -0.38467426594500       -0.07037699837377
N           -0.93283163736339       -1.30270630288242       -0.03699107135840
C           -1.47850302258165       -2.64281298219038       -0.06039461015379
H            3.72367346407961        1.22645032887730        1.06852598688545
H            4.01279358551109        1.04645139605663       -0.67655993151674
H            2.69739472646886        2.10445604398040       -0.08827793141514
H            3.58135486906326       -1.65571269668523        0.04291454070573
H           -1.65867680477562        3.07627231190039       -0.02545768114522
H           -2.82473529722064        2.09040166726671       -0.95436824455935
H           -2.87696478535587        2.07382954870647        0.81597536479651
H           -1.18059295555213       -3.19676389177207        0.83168965183150
H           -1.15587098163593       -3.17583963009471       -0.95668459878433
H           -2.56345464176415       -2.54781090665220       -0.07467115680043
H            1.36555673541305       -2.94335643010050       -0.01335030521686
25
 energy: -6.481069271865 xtb: 6.6.1 (8d0f1dd)
C            3.25378637168039        1.19356085583718        0.08954058583392
N            2.32115417169179        0.11194946860843        0.03445597547726
C            2.61963803568590       -1.24194376979157        0.03072577082071
N            1.42583322893848       -1.93793996530714        0.00176205937303
C            0.40632888264109       -1.05555707086646       -0.00868609232363
C            0.93159122287151        0.22932746437948        0.01266853122272
C            0.11204901621926        1.38135986202422       -0.00757374797605
O            0.48817881558325        2.56424490861487       -0.00782437375721
N           -1.26578469411441        1.03380734237551       -0.03174717406173
C           -2.21798197548155        2.13130620149354       -0.04983909012236
C           -1.82032078336109       -0.20720273394931       -0.04756824173299
O           -3.02158277586977       -0.39576740830354       -0.07037910904864
N           -0.93609595225333       -1.30344486270865       -0.03716542545029
C           -1.49242632300433       -2.63702739814865       -0.06060758821645
H            3.74228372584420        1.24508698536955        1.06882907204130
H            4.02067210440925        1.07296984571340       -0.67940438046387
H            2.69825634899490        2.11466671297143       -0.07897813895671
H            3.59261937217856       -1.67212634282137        0.04422378896576
H           -1.63865265481562        3.05228236449606       -0.02551444634155
H           -2.82395079551551        2.08372204581973       -0.95477189133763
H           -2.87555631256277        2.06751528414300        0.81711289766205
H           -1.20379693422321       -3.19857762062653        0.83084809865433
H           -1.17959429863038       -3.17726731668277       -0.95713418722539
H           -2.57664206893780       -2.52647931835554       -0.07459491431330
H            1.35220893996741       -2.93943693211280       -0.01134408257600
25
 energy: -6.199098950606 xtb: 6.6.1 (8d0f1dd)
C            3.25986218511302        1.20607882486975        0.09182801527736
N            2.33196699219256        0.11804437034872        0.03111054001639
C            2.63138334564894       -1.24667859341817        0.03129134298085
N            1.42963805420986       -1.93580331958789        0.00335802671830
C            0.41402610371404       -1.05789440906773       -0.00925237813486
C            0.93654374597433        0.23077628138892        0.00989159515530
C            0.11867547927425        1.37237076910129       -0.01120297555170
O            0.47496984255034        2.56182672161684       -0.01317559144399
N           -1.26814056771880        1.02150265917882       -0.03313885119196
C           -2.21450687934374        2.11913641749866       -0.05003111273871
C           -1.81599221568194       -0.21567625662805       -0.04799427534687
O           -3.01760863994757       -0.40975771530689       -0.07014990373526
N           -0.93301134964046       -1.30774837324414       -0.03729211316042
C           -1.51032203847411       -2.63225381427998       -0.06086754691275
H            3.76046242797958        1.26137262660327        1.06612986495103
H            4.02493295191415        1.10834491047213       -0.68382212178075
H            2.69665249520678        2.12616300154711       -0.06316542058580
H            3.60170418343744       -1.68191608127641        0.04601654447635
H           -1.62026745420368        3.03054942465050       -0.02618083390371
H           -2.82150585455311        2.07507030746109       -0.95449954424742
H           -2.87115883119923        2.05916991599398        0.81796561470166
H           -1.23886725743017       -3.20237232576274        0.83068208195921
H           -1.21543987951742       -3.18051196890641       -0.95880198176958
H           -2.59316528708539       -2.49358325130362       -0.07414472636863
H            1.35138311551651       -2.93718151977702       -0.00752035321677
25
 energy: -1.746956223010 xtb: 6.6.1 (8d0f1dd)
C            3.27438351543753        1.25002251096209        0.09984113598883
N            2.36909899248036        0.13328731967640        0.01957807425360
C            2.67082638076405       -1.25614309292709        0.03310346173562
N            1.45442690503421       -1.93070665127732        0.01008422399589
C            0.44162227436526       -1.07113381822738       -0.01124274265046
C            0.95799661505645        0.22954518535556       -0.00025217186535
C            0.14164111122607        1.34594787590938       -0.02603194452404
O            0.43559573986344        2.55098392458107       -0.03513304114594
N           -1.26879766231151        0.98186231456010       -0.03936719842197
C           -2.19900573111327        2.07914774624345       -0.05129886941883
C           -1.79727676339343       -0.24680614616028       -0.04979405680499
O           -2.99899537979102       -0.45545751661450       -0.06890729182100
N           -0.91649709202480       -1.32825913699538       -0.03768285775906
C           -1.57732655347297       -2.61863827446269       -0.06167916352505
H            3.82016510941716        1.30847654107891        1.05431833952960
H            4.02743898271165        1.24052887615492       -0.70459252459089
H            2.67954793190555        2.16520280968855        0.00314976580811
H            3.63453768724796       -1.70605932295046        0.05308597720028
H           -1.56197605773455        2.96217916810999       -0.03011577849019
H           -2.81061843414109        2.04444696046209       -0.95293313789787
H           -2.85093502478177        2.02967777426259        0.82090521817302
H           -1.37301001689727       -3.21985379708344        0.83029837231300
H           -1.35283596131288       -3.19586961069480       -0.96515252082889
H           -2.65359172189455       -2.37071822790894       -0.07189677661904
H            1.36579982129559       -2.93263480957078        0.00874940351290
25
 energy: 9.755536743070 xtb: 6.6.1 (8d0f1dd)
C            3.28407365831631        1.30149919502659        0.11030631807670
N            2.40859094953911        0.14810911814761        0.00453655254589
C            2.71103022943048       -1.26547871670610        0.03508114706838
N            1.48282244909013       -1.92491295311627        0.01931603482642
C            0.46837857990526       -1.08846012353809       -0.01406224835371
C            0.98070374314531        0.22554455928985       -0.01400173866087
C            0.16672348224158        1.31759980617897       -0.04670139763182
O            0.38781864310245        2.53647595741337       -0.06545097193950
N           -1.27029315647051        0.93777464792506       -0.04847298590554
C           -2.17451226144547        2.04223839158599       -0.05322429495614
C           -1.77923563840269       -0.28286124197820       -0.05233039986253
O           -2.98166626793823       -0.50068967741556       -0.06677936099326
N           -0.90022461807170       -1.35758238389201       -0.03825595099702
C           -1.64897226988276       -2.61305537428023       -0.06236061717335
H            3.89029678050984        1.35338315308798        1.03686552092783
H            4.01445762057300        1.40506441672714       -0.73391637327769
H            2.64986024676983        2.21019440457013        0.09576489231652
H            3.66694248402291       -1.73400359596726        0.06220500696414
H           -1.48023015834661        2.88709140259112       -0.03688339199832
H           -2.79335450882330        2.02550240521888       -0.95037353723804
H           -2.81921537849210        2.01318201145835        0.82550948159381
H           -1.51816314203198       -3.24518286353413        0.82874307308298
H           -1.50182633954606       -3.21862745289340       -0.97061313737237
H           -2.71481403771470       -2.25575861581921       -0.06912325258506
H            1.38302357845603       -2.92801786790853        0.03125552768979
25
 energy: 14.247873836921 xtb: 6.6.1 (8d0f1dd)
C            3.28210386486792        1.32424697755841        0.11595790864824
N            2.42286541902132        0.15209292625334       -0.00116480933211
C            2.72669392429935       -1.26571818175882        0.03593868734077
N            1.49915763892640       -1.92472255120123        0.02442488691161
C            0.47606129029926       -1.09941800376153       -0.01637440271189
C            0.99080859783718        0.21887346695214       -0.02140280740713
C            0.18150881850322        1.30899740721164       -0.05951007409143
O            0.38522683761181        2.52607656993244       -0.08361086208180
N           -1.26435461485837        0.92474836279113       -0.05455322367529
C           -2.16234036463924        2.02982331447840       -0.05352038613668
C           -1.77192191475658       -0.29255540665476       -0.05385662126047
O           -2.97667393645729       -0.49843995369477       -0.06450052250268
N           -0.89761349033347       -1.37365578287727       -0.03941680020621
C           -1.68025109967707       -2.61667193367956       -0.06306860965871
H            3.91788181017979        1.36892920535986        1.02548669477392
H            3.99403964233163        1.47637338887459       -0.74416951463675
H            2.63290776555518        2.22653695555584        0.14203795491893
H            3.68134308085205       -1.73874694508076        0.06674849495917
H           -1.45645299831683        2.86337747466483       -0.04038689091690
H           -2.78500669151680        2.01665495933301       -0.94734014729529
H           -2.80037944673887        2.00399474886184        0.82952859601540
H           -1.58009582070789       -3.25613200108516        0.82692239707800
H           -1.56631510313410       -3.22773743093047       -0.97299062908218
H           -2.73787838753023       -2.22928587241458       -0.06776202436176
H            1.40089984631771       -2.92861309251654        0.04361660085850
25
 energy: 17.604514541049 xtb: 6.6.1 (8d0f1dd)
C            3.27803945770966        1.34146924368632        0.12115795288910
N            2.43239184461015        0.15585478471237       -0.00393891211542
C            2.74003697670182       -1.26377845784464        0.03709731416145
N            1.51352026663861       -1.92594143676187        0.02882631036887
C            0.48277671781014       -1.10933681858261       -0.01857887335328
C            0.99824960570157        0.21203665181718       -0.02749713652876
C            0.19517695890700        1.30236706197808       -0.07207652685127
O            0.39306817023481        2.51908398064545       -0.10232803575105
N           -1.25496885506705        0.91573681277149       -0.06085879256078
C           -2.15245064766731        2.01925903283736       -0.05301711216988
C           -1.76380373958303       -0.29868860026475       -0.05513191100531
O           -2.97100498393122       -0.49349692623631       -0.06127119822279
N           -0.89599641734386       -1.38590943160036       -0.04102545947502
C           -1.70704734122560       -2.61805172619324       -0.06435056906356
H            3.93570310129430        1.37941398962052        1.01670666057040
H            3.97211810835736        1.52682917290144       -0.75095784345138
H            2.61691364763659        2.23621696326837        0.17843518795956
H            3.69512496460100       -1.73621599185756        0.07114293017305
H           -1.44583068239765        2.85025337144772       -0.04291813883917
H           -2.78006672056306        2.00533556829574       -0.94300857960265
H           -2.78368881508817        1.99068727476947        0.83453304766213
H           -1.62963295674209       -3.26375604919723        0.82451072868061
H           -1.61881934298583       -3.23322824984480       -0.97587728830192
H           -2.75882869650564       -2.20675649576838       -0.06668299490576
H            1.42123404683357       -2.93035512242774        0.05414313588008
25
 energy: 20.555903672988 xtb: 6.6.1 (8d0f1dd)
C            3.27225908999310        1.35660646268837        0.12666914520930
N            2.43965849385945        0.15919416799630       -0.00551393981695
C            2.75199574520312       -1.26114398729843        0.03920848932482
N            1.52695705575440       -1.92745537023421        0.03342982836981
C            0.48877688210050       -1.11943686955401       -0.02100150826277
C            1.00427116402135        0.20483759339548       -0.03384878583174
C            0.20765816587582        1.29646512180225       -0.08693902251562
O            0.40229498377141        2.51298453848436       -0.12457464200426
N           -1.24462549979054        0.90839609500904       -0.06849189127712
C           -2.14226365613013        2.01019743035285       -0.05161410823828
C           -1.75546220918396       -0.30341793096523       -0.05638992401823
O           -2.96518533465054       -0.48606617438755       -0.05647066314932
N           -0.89525128344061       -1.39746574757951       -0.04321642059328
C           -1.73212819543453       -2.61949106528862       -0.06636260163692
H            3.94955974970971        1.38827772836384        1.00879259030541
H            3.94827654020269        1.57081304583405       -0.75621987182851
H            2.60055562286989        2.24337796615758        0.21243741815249
H            3.70851770499234       -1.73087923693550        0.07679276562837
H           -1.43593792292972        2.84068559578833       -0.04503459227186
H           -2.77678640129915        1.99473350982516       -0.93658816158587
H           -2.76546047505530        1.97674248701698        0.84148216123794
H           -1.67366208584022       -3.27031173430386        0.82084821021287
H           -1.66632426760576       -3.23695343896132       -0.97928429519347
H           -2.77841378887072       -2.18907434995323       -0.06596458957757
H            1.44293458981348       -2.93258723508105        0.06488830550800
25
 energy: 23.441720770272 xtb: 6.6.1 (8d0f1dd)
C            3.26515003637777        1.37074163984417        0.13270279858944
N            2.44564436865995        0.16235207856518       -0.00622528148988
C            2.76343632178373       -1.25805610711291        0.04267828849480
N            1.54019771334213       -1.92917458258559        0.03868974964922
C            0.49465586131539       -1.12981661838399       -0.02383557045006
C            1.00950570821950        0.19736341625860       -0.04099519339476
C            0.21944890604254        1.29053705785595       -0.10529291896832
O            0.41225147504054        2.50687501466374       -0.15215299831763
N           -1.23362630897842        0.90175557488868       -0.07801260106310
C           -2.13160607016309        2.00178199530338       -0.04899201259986
C           -1.74674178979597       -0.30769260137001       -0.05758462802134
O           -2.95892093469731       -0.47803727317407       -0.04941725059726
N           -0.89481990266371       -1.40871212900227       -0.04619681118324
C           -1.75673292349812       -2.62065117759179       -0.06943781122492
H            3.96048395014303        1.39699515396699        1.00163869425127
H            3.92308339189798        1.61115627080505       -0.75968799836770
H            2.58392704967001        2.24903424322842        0.24489059659668
H            3.72210395907644       -1.72349545764055        0.08446928932658
H           -1.42618092504449        2.83266833515707       -0.04658374326695
H           -2.77537937816780        1.98496210167180       -0.92731109419933
H           -2.74470576032040        1.96184894625998        0.85108498994527
H           -1.71536806794668       -3.27648231957550        0.81569980093646
H           -1.71208867072020       -3.23930464682942       -0.98393072895209
H           -2.79766119291039       -2.17252250652898       -0.06577471785031
H            1.46615785127357       -2.93509780650186        0.07661104830428
25
 energy: 26.102630450975 xtb: 6.6.1 (8d0f1dd)
C            3.25689174039565        1.38366460015314        0.13927921141389
N            2.45031919796888        0.16518566292551       -0.00610666948616
C            2.77397570359300       -1.25453612472358        0.04792796923956
N            1.55300080670597       -1.93097580770895        0.04496198718876
C            0.50013793812893       -1.14024171723937       -0.02721438034275
C            1.01395431770950        0.18972869151089       -0.04924933816127
C            0.23026455383082        1.28469217700253       -0.12817894740045
O            0.42254484133802        2.50058138419848       -0.18671579369127
N           -1.22239230102642        0.89587742605410       -0.08990971417077
C           -2.12062272231726        1.99434439317883       -0.04473017249951
C           -1.73809096291251       -0.31146342958524       -0.05857389323873
O           -2.95257843547714       -0.46928330810084       -0.03921286859656
N           -0.89481637462662       -1.41957039569402       -0.05018214602064
C           -1.78020754191321       -2.62184644460161       -0.07397455307644
H            3.96806320274132        1.40562076822299        0.99564332993471
H            3.89730396183857        1.64723678216010       -0.76084044249218
H            2.56748598732762        2.25318097596698        0.27507815335591
H            3.73536763801939       -1.71436007530886        0.09490482307550
H           -1.41652197121964        2.82614845040508       -0.04727083738807
H           -2.77644636433349        1.97712248181023       -0.91434557030545
H           -2.72090189724966        1.94656857538544        0.86412570122761
H           -1.75387330076683       -3.28243475613065        0.80861274365374
H           -1.75507248340172       -3.24018031413063       -0.99025711858771
H           -2.81584447854928       -2.15833721311352       -0.06651991601372
H            1.49027361213210       -2.93769418046499        0.08978233852926
25
 energy: 28.772619197502 xtb: 6.6.1 (8d0f1dd)
C            3.24774665646172        1.39595696446261        0.14662126509311
N            2.45421651526555        0.16787357885874       -0.00536274868659
C            2.78398820136540       -1.25067333223487        0.05540697350115
N            1.56561811288190       -1.93272454710176        0.05283896020765
C            0.50551107232784       -1.15074747321756       -0.03130428515001
C            1.01793892635173        0.18198940504797       -0.05915793404786
C            0.24035504398848        1.27850124495837       -0.15713448629944
O            0.43259955979048        2.49372747734925       -0.23079251800013
N           -1.21118215568265        0.89014409308679       -0.10489120153763
C           -2.10907177804878        1.98748787375431       -0.03843468847922
C           -1.72947817606706       -0.31524283253951       -0.05917003733554
O           -2.94602718501301       -0.46072617908038       -0.02468348980907
N           -0.89496713714709       -1.43031324118814       -0.05540434855518
C           -1.80314110762718       -2.62302890135200       -0.08046461050234
H            3.97310188690664        1.41449187287974        0.99099148525846
H            3.87116584481481        1.68107009241918       -0.75996466558491
H            2.55081401249071        2.25642905040895        0.30417012872622
H            3.74844642694167       -1.70395650183627        0.10908874699225
H           -1.40612187903616        2.82015506910674       -0.04689988996026
H           -2.78036630685394        1.97159924726349       -0.89673699285058
H           -2.69300444257493        1.93067847129991        0.88141866916813
H           -1.79082209674441       -3.28870896376166        0.79905347907047
H           -1.79676501372357       -3.23982568846804       -0.99891687585681
H           -2.83342670435846       -2.14496639706573       -0.06863909700081
H            1.51508639122627       -2.94016178087807        0.10540205778618
25
 energy: 31.170727898307 xtb: 6.6.1 (8d0f1dd)
C            3.23767767212909        1.40715328858338        0.15475325788477
N            2.45693185312751        0.17030441787554       -0.00392855840775
C            2.79282506524261       -1.24631774039845        0.06554556650067
N            1.57755045983221       -1.93430488336744        0.06276254088854
C            0.51036831516314       -1.16099287185130       -0.03624314577743
C            1.02120503849831        0.17431405121736       -0.07108617423687
C            0.24932963990502        1.27213879212523       -0.19343809236336
O            0.44246447795593        2.48618943442248       -0.28648652634518
N           -1.20032300485064        0.88487449915845       -0.12347720619694
C           -2.09704517768468        1.98168568631042       -0.02961041095554
C           -1.72130636584215       -0.31873919493199       -0.05900458996844
O           -2.93954400322859       -0.45206680268898       -0.00438500334974
N           -0.89546348468914       -1.44065847756477       -0.06208811855242
C           -1.82455391899147       -2.62444266594126       -0.08947646406187
H            3.97486125173450        1.42308146803697        0.98817559901937
H            3.84513593117638        1.71113489281619       -0.75652756944270
H            2.53435200742880        2.25852511845366        0.33127693128717
H            3.76060685403661       -1.69222462810676        0.12789825412965
H           -1.39533125222398        2.81526275198654       -0.04504046967331
H           -2.78767443350829        1.96934696804219       -0.87347636086545
H           -2.66050878854437        1.91440587504824        0.90363854474745
H           -1.82455035562744       -3.29529112113989        0.78636654747790
H           -1.83513024754799       -3.23798453666500       -1.01044480564469
H           -2.84949935360770       -2.13406274104026       -0.07277796976246
H            1.53983648805227       -2.94230297820850        0.12410811981589
25
 energy: 33.548236403268 xtb: 6.6.1 (8d0f1dd)
C            3.22671056342730        1.41784256281328        0.16389468982724
N            2.45882011903834        0.17267088474101       -0.00207283863940
C            2.80071385386111       -1.24151407478858        0.07872600678029
N            1.58890392358705       -1.93554803445510        0.07539126946194
C            0.51492870852113       -1.17101101126149       -0.04219349781734
C            1.02392970893061        0.16675785722657       -0.08565725943710
C            0.25736524614105        1.26505971442739       -0.23863718247385
O            0.45143377632192        2.47736074489548       -0.35644936859523
N           -1.19014355163093        0.87945445415333       -0.14625587159350
C           -2.08401384246295        1.97659552910234       -0.01793785699535
C           -1.71347538476042       -0.32241698448226       -0.05763898858776
O           -2.93279967874072       -0.44422050706623        0.02323507138633
N           -0.89602412402429       -1.45087250506047       -0.07040279528675
C           -1.84491742868626       -2.62603474456905       -0.10157500049068
H            3.97434517923984        1.43130296872703        0.98717677943350
H            3.81888189478822        1.73985733277412       -0.75120090014728
H            2.51729736109325        2.26008252113516        0.35823695401320
H            3.77181243662207       -1.67959024788349        0.15237143060374
H           -1.38293221016120        2.81057853803342       -0.04147760090349
H           -2.79819189842364        1.97073762864053       -0.84368755631743
H           -2.62230651337111        1.89754234389901        0.93118949394301
H           -1.85652846282418       -3.30268706182880        0.76993482752045
H           -1.87133517519045       -3.23491720301384       -1.02554576229552
H           -2.86443359572867       -2.12413205585468       -0.07949240837699
H            1.56417376236885       -2.94387004813260        0.14710226113520
25
 energy: 35.421652198312 xtb: 6.6.1 (8d0f1dd)
C            3.21449241229062        1.42725908855623        0.17383865829245
N            2.45900345823908        0.17481756194793        0.00023020562915
C            2.80656412031869       -1.23594223837315        0.09510677070051
N            1.59885204830920       -1.93631803892615        0.09097234951067
C            0.51854107108583       -1.18031593291374       -0.04922767151097
C            1.02556804511849        0.15951774257709       -0.10308774721473
C            0.26376792138785        1.25746473390273       -0.29316126916227
O            0.45975638491469        2.46688616168645       -0.44153675312662
N           -1.18102958779716        0.87447686455544       -0.17311000048512
C           -2.06994341486086        1.97293532543200       -0.00311876096361
C           -1.70641472697665       -0.32568630745700       -0.05438770948226
O           -2.92589154302815       -0.43661996590949        0.05957574164639
N           -0.89693399479303       -1.46042966650271       -0.08038421510186
C           -1.86270129621938       -2.62801590343032       -0.11724094323439
H            3.97022073434448        1.43825523247767        0.98827702957590
H            3.79260169432035        1.76457531233197       -0.74334418864434
H            2.50023682072139        2.26054466433926        0.38348358629167
H            3.78092675467976       -1.66566474798242        0.18299640567064
H           -1.36960075794763        2.80723476420936       -0.03571302782299
H           -2.81148921596933        1.97660742600916       -0.80686886124897
H           -2.57847319247481        1.88049115030961        0.96380535427286
H           -1.88398404421616       -3.31059652630230        0.74920802036496
H           -1.90204604804989       -3.23022566811004       -1.04458104013802
H           -2.87686981299756       -2.11758709450118       -0.08942907982596
H            1.58706083753606       -2.94463533575435        0.17473104215414
25