72
 energy: -99.702379615998 xtb: 6.6.1 (8d0f1dd)
N           -1.64462644608856        2.95059929255380        2.30071297299557
C           -1.61197084354920        2.20024661244941        1.29001391416294
C           -2.75139535862044        2.06288802608826        0.31078300714347
C           -3.28297704831184        0.62990093527889        0.34945361253209
C           -4.18417385372217        0.16979873071592       -0.61446716290761
C           -4.74929197987649       -1.10116465153348       -0.55634373426913
O           -5.62683874525772       -1.56631460993806       -1.49780778670861
C           -6.11439802140654       -0.69742347865708       -2.49326722090261
C           -4.44992482786394       -1.98248955746603        0.53673367233299
O           -5.16188966921263       -3.16959695515791        0.63993158624479
C           -4.99386968342129       -4.18998690702577        1.63301146954477
C           -3.49386759408230       -1.53082211179837        1.43141095333051
C           -2.93677148756222       -0.25649675611370        1.35268628057068
C           -2.15405849300537        2.38554144971101       -1.08671434973882
C           -1.23630542661139        1.29500034902716       -1.67792450800671
C            0.06668121499973        1.20798894336814       -0.97567729676310
N            0.65878947488881        0.02313563093927       -0.58229945654525
C            2.03850811313366        0.00628710022148       -0.20148967954823
C            2.97985911096370       -0.48149944754190       -1.32878212530997
C            4.40551748396428       -0.40460177408516       -0.88226412411737
C            5.14589591019058        0.74847150397097       -1.06990343190336
C            6.45881264003630        0.83236354392163       -0.62746412436295
C            7.05105412966750       -0.23899853978406        0.01784336098010
O            8.33209998410467       -0.27376132360524        0.48733685877211
C            9.14860466587224        0.85008590589739        0.28906318171404
C            6.29984129227401       -1.41733932831370        0.22794785482021
O            6.96412130696238       -2.42014632928195        0.87078197626438
C            6.29868247616567       -3.63583612121384        1.09137078721422
C            4.99324941493538       -1.48159897518512       -0.21747210250735
C           -0.01430895622556       -1.24133391983644       -0.72522060463074
C           -3.93792719424372        3.02953054400900        0.60031075026253
C           -4.59543491134218        2.72366478520764        1.94479308505323
C           -3.54203322085264        4.50575170087045        0.55545232921575
H           -4.46223581946914        0.84648967159447       -1.41140305760594
H           -6.61724611165273        0.17698756489310       -2.06529377606971
H           -6.84134703579858       -1.28407820306297       -3.05506108414200
H           -5.32806492024225       -0.36044366905264       -3.18021672345705
H           -4.05127563072303       -4.08610385092430        2.14863699836223
H           -5.78435385350431       -4.42991374024337        2.44605553229168
H           -4.96514419250629       -5.12646371783669        1.07392769197491
H           -3.18065087931579       -2.16583085798113        2.24514720884003
H           -2.24969591378401        0.05469258072818        2.12345393492730
H           -2.97406277029019        2.56654588006353       -1.78568263654419
H           -1.57645547398389        3.30914368172390       -1.01040800324963
H           -1.75368266090463        0.33703662516327       -1.66411327263088
H           -1.07589833270929        1.56501794211575       -2.73552795372595
H           -0.73171126776172        1.62333811106866        0.97455578812985
H            0.70673865221602        2.07335691222569       -0.94862956932060
H            2.16909800310964       -0.64754387483045        0.66976083033155
H            2.33644002091984        1.01760216645189        0.08769754438341
H            2.81969869485346        0.15518594416770       -2.20072517662457
H            2.71555587256316       -1.50643885521980       -1.59269647220581
H            4.70657520963853        1.59448018875196       -1.57769374355750
H            7.01369863610867        1.74132466933669       -0.80035770417851
H            8.74948580074977        1.73577938030090        0.79528088521413
H            9.28456927447953        1.07174895791493       -0.77539552717372
H           10.11208105277719        0.59018870347360        0.72598677318057
H            7.02390120288339       -4.27692311336940        1.59092821420268
H            5.42425831480152       -3.51019073477837        1.73990017406740
H            5.98881454390986       -4.10556800898536        0.15139916695307
H            4.40912536488339       -2.37655477021107       -0.06710897106317
H           -0.15280023513752       -1.52861684430770       -1.77658292234870
H           -0.99503742881947       -1.20288482683866       -0.24294280912429
H            0.57501331140335       -2.01541197884767       -0.23671577348766
H           -4.68367545325810        2.85480510491221       -0.18643025936383
H           -3.89197806352897        2.91130062386603        2.74774104494592
H           -4.91725058703165        1.68617804508264        1.99204352068599
H           -5.46586551528053        3.36112979582456        2.08552970789013
H           -2.76854751728304        4.70457338740244        1.28977576009498
H           -3.18662587578013        4.79908446823672       -0.42878321120038
H           -4.41033827777401        5.11774902745787        0.79399826248654
H           -0.79235946435064        2.97670588564239        2.85497902331271
