25
 energy: -42.108630643168 gnorm: 0.002137630635 xtb: 6.6.1 (8d0f1dd)
C            3.17745528319489        0.84742014067465        0.05961858730846
N            2.26993202874316       -0.12094151984049        0.03544306618037
C            2.48465635627908       -1.45595808017363        0.01752562668577
N            1.29322276176946       -2.11570439930834       -0.00346555758172
C            0.29674105874763       -1.19122927446849       -0.00075058715167
C            0.88847155944970        0.06021415549036        0.02540271961016
C            0.10919290853932        1.27632359673464        0.03975336845628
O            0.55107989500578        2.40075095675444        0.05550153461888
N           -1.25950357264596        0.99718056147126        0.03484830674043
C           -2.17330767443977        2.12938813725660        0.07277891063512
C           -1.87454668799810       -0.24106281834174        0.00605824804419
O           -3.06690108205825       -0.36699577561435        0.00076401506861
N           -1.03327035308992       -1.37559217640615       -0.01640922299838
C           -1.63168790116176       -2.69573808107757       -0.04464645379839
H            2.83685722521735        1.86778091088442        0.07135465590890
H            4.21967839104747        0.59185670193021        0.05386858056008
H            4.03691948471069        4.09422657233706       -0.46615435488341
H            3.44421073362339       -1.92829736774549        0.02629223892598
H           -1.58095588303341        3.04061785310287        0.10729046231537
H           -2.80878722300994        2.12432309669068       -0.81302335703236
H           -2.81288169694247        2.05820533645992        0.95180809210625
H           -1.32671572601560       -3.27169059731589        0.82962384946653
H           -1.35337112088411       -3.22231699608169       -0.95836894759003
H           -2.71330942126543       -2.56549922101096       -0.02579052316096
H            1.18725217031680       -3.11902317080223       -0.02815164053452
