72
 energy: 0.000000000000 xtb: 6.6.1 (8d0f1dd)
N           -1.47310921155849        2.74401293103706        2.22063921685122
C           -1.55658879776851        2.16490285539332        1.13274273951491
C           -2.74549199786261        2.05621232186130        0.23826248438941
C           -3.31377553111525        0.64333411542669        0.32332512650568
C           -4.30230156009016        0.24487110156316       -0.58026161703006
C           -4.85238763031941       -1.02286490450319       -0.53363588718165
O           -5.81419972815119       -1.48606034185536       -1.36157882725342
C           -6.39655633239252       -0.60827000183299       -2.29568474302620
C           -4.39972501531283       -1.94646102182611        0.44396929121966
O           -4.98748311285188       -3.16145997157803        0.41085992006324
C           -4.66362127904578       -4.10093827755394        1.40909127743729
C           -3.42072513477031       -1.54561384810496        1.33436546260297
C           -2.88302799614223       -0.26315800396994        1.27400150770375
C           -2.19303798107274        2.30467000305896       -1.18742977106749
C           -1.26651538239283        1.17243369445008       -1.65249429687285
C            0.01082524939134        1.09745454476277       -0.89354803499847
N            0.61779393476578       -0.02034948052406       -0.57705522512502
C            2.00145210352228       -0.02376006389122       -0.15611399603240
C            2.92554934655222       -0.53865282675074       -1.27700088804721
C            4.35756843073516       -0.43050757231754       -0.83075544324989
C            5.07346135469827        0.73206409086248       -1.03980965825901
C            6.38627986649936        0.84224441421807       -0.60344822702769
C            7.00047264773336       -0.20824756335880        0.05722314418200
O            8.26703657141718       -0.21011313101264        0.52410943644933
C            9.06912227848686        0.92943601033931        0.31863058007678
C            6.27039964270142       -1.40439753960823        0.28033466008274
O            6.94829939911432       -2.38012925705718        0.92751999079483
C            6.31537317745639       -3.61583200086742        1.15217711710877
C            4.96302794628964       -1.49347471867959       -0.16064430359178
C           -0.05511211367372       -1.29906247805359       -0.62085686319744
C           -3.86758037025447        3.07992600430699        0.58498060215443
C           -4.49286159663096        2.77383493050346        1.94313289484366
C           -3.39165179876499        4.52917666589254        0.54797523472093
H           -4.66030026466202        0.94509067363451       -1.31640568823548
H           -6.85037928558380        0.25803162192116       -1.80468845313260
H           -7.17287442604349       -1.18600110843259       -2.79318157561361
H           -5.66836817451085       -0.26952966318766       -3.04040255244073
H           -4.88416720672258       -3.71589460520039        2.40913542187496
H           -5.29223570620378       -4.96637458756866        1.20969236903657
H           -3.61139813139015       -4.39919835331056        1.35529357841967
H           -3.07077796610445       -2.21868765711333        2.10002662693138
H           -2.14562754426994        0.02067850696302        2.01001344383370
H           -3.02188875377605        2.38238012313952       -1.88813545054866
H           -1.65198530896729        3.25146700677685       -1.20556284570283
H           -1.81103374245520        0.23006524641044       -1.62116301628650
H           -0.99335688527853        1.37490212198123       -2.69443256973690
H           -0.67628064361333        1.65183887049447        0.61785727145403
H            0.63525841192517        1.98466369793744       -0.92314021190751
H            2.11132552493482       -0.65949692842762        0.72532613231274
H            2.30680473056284        0.98978251704176        0.11078972794250
H            2.76694198818247        0.06750735147374       -2.17075252200790
H            2.67954581369920       -1.57455627803457       -1.51167743520200
H            4.62169998552446        1.56295612048703       -1.56123579000624
H            6.92357674630170        1.75715815945204       -0.79119596719031
H            8.65159112996149        1.81001823324363        0.81701555159939
H            9.20136171144928        1.14042857828877       -0.74698991949293
H           10.03428838009630        0.69003240176163        0.76064937965836
H            7.05567174969094       -4.23621171795340        1.65347565939075
H            5.43848001056755       -3.50813558175093        1.79970565785717
H            6.02060041905269       -4.09420497120334        0.21253282636366
H            4.40102758497114       -2.40127266373392       -0.00490198249042
H           -0.22071299714579       -1.61775583601871       -1.65116008982042
H           -1.01972258008625       -1.24102717432227       -0.10935206830928
H            0.55899954147532       -2.04486085926761       -0.12333730421426
H           -4.63991875734388        2.95501092798550       -0.18098088071825
H           -3.76095216473977        2.90314704960906        2.73380821053058
H           -4.87457614030224        1.75695641518947        1.97884603101694
H           -5.31925552549014        3.45579210326349        2.12325564252114
H           -2.60025590131176        4.69225046143352        1.27368918226171
H           -3.03987406413880        4.81897652321898       -0.43870975059559
H           -4.22191740670577        5.18069648090034        0.80616693961239
H           -0.59832433787845        2.77744694953323        2.72958984441332
72
 energy: -5.855396560442 xtb: 6.6.1 (8d0f1dd)
N           -1.49000109607091        2.81817260218206        2.23411067066239
C           -1.55655211908112        2.15567453712747        1.16731928487354
C           -2.74872227311485        2.06251021068906        0.25695140047373
C           -3.31715726738077        0.64973474814133        0.34736591352038
C           -4.30477234223967        0.25027796517935       -0.55615090892265
C           -4.84325901542097       -1.02070780584509       -0.52483494943428
O           -5.80858466500880       -1.48432362229134       -1.36649453608788
C           -6.38847560516851       -0.59634972960924       -2.28694475390802
C           -4.38770645516147       -1.94906926235235        0.43749881996022
O           -4.97535852163245       -3.17695893305827        0.38878984294418
C           -4.64246977108408       -4.11819101439588        1.37580686059848
C           -3.41656149061474       -1.55365851192845        1.33663138300804
C           -2.88911564627636       -0.26647139501127        1.29251875544642
C           -2.19813906973189        2.29548041414656       -1.20447125183681
C           -1.27233269967873        1.16760011391217       -1.67385450428695
C           -0.00199795842132        1.12852638544201       -0.90616071314178
N            0.62736507190452       -0.04963279619858       -0.56215103488315
C            1.99655281897614       -0.03780636690378       -0.15992105335186
C            2.93146780597365       -0.54525413161245       -1.27986344907580
C            4.35535998458223       -0.43638930203929       -0.83923494532694
C            5.07022454061515        0.72939812563393       -1.04108858938864
C            6.38055153269420        0.84240800622527       -0.59991879813708
C            6.99166733954699       -0.20838161084976        0.06048418058681
O            8.27033512093029       -0.20999976056656        0.53273873294584
C            9.06274677992254        0.93010948504897        0.32406643118945
C            6.26516091932963       -1.40044570236633        0.28282538073245
O            6.94876156837624       -2.38239669566928        0.93516690610643
C            6.31266562716227       -3.61408215057123        1.15642135855416
C            4.96091945146129       -1.49517654549748       -0.16227116796466
C           -0.05702540159829       -1.30789584893704       -0.62630271537092
C           -3.87558109553311        3.07274601066897        0.59584131457530
C           -4.48605214982650        2.81237681115778        1.96972752356957
C           -3.39620467208231        4.51795858263073        0.52162951196157
H           -4.66161843252763        0.95437735354024       -1.28922453162081
H           -6.84827821082190        0.26291462840611       -1.78760327534059
H           -7.16162844363606       -1.17005079185811       -2.79542302093163
H           -5.66045486818209       -0.24275684461014       -3.02509278129224
H           -4.86524153842995       -3.74606821442079        2.38100470275882
H           -5.26464281737095       -4.98696662340228        1.16730896143584
H           -3.58737520769223       -4.40777543440960        1.32228987351385
H           -3.06099846603857       -2.23617827033718        2.09237524768309
H           -2.14785199113278        0.00799082739681        2.02782829547260
H           -3.01542620188807        2.38116704921481       -1.92304926349821
H           -1.63766451996000        3.23287665597036       -1.24044965962561
H           -1.82351683233037        0.23232797173761       -1.59221793482695
H           -1.03680086457700        1.33701732372691       -2.73393003195019
H           -0.69939532539752        1.62270018150876        0.69514760903110
H            0.64326957605955        1.98887186582912       -0.96205952487947
H            2.11357097011619       -0.67075706351349        0.72737662940801
H            2.29441674091571        0.98031864618786        0.10748999420357
H            2.76129528442193        0.06397087561514       -2.16940238165358
H            2.67627433710671       -1.57967266862082       -1.51295118138910
H            4.61510834367495        1.56022326872972       -1.55986116938814
H            6.91740157423891        1.75884508545943       -0.78588123417434
H            8.64357448979582        1.81222838865527        0.82003592583752
H            9.19587732962125        1.14231925045564       -0.74248618307505
H           10.02930682521964        0.69498536952484        0.76684122766496
H            7.05216899242530       -4.23592731473653        1.65874436503418
H            5.43387338664741       -3.50724485144169        1.80192673562348
H            6.01742493807496       -4.09335825697191        0.21652241334384
H            4.39654403568063       -2.40139631859106       -0.00418343211864
H           -0.22723606479463       -1.62629895112444       -1.66073394157718
H           -1.02429080594240       -1.24536077491419       -0.11874934268384
H            0.55099261906331       -2.05880466313521       -0.12680863910113
H           -4.66672020005404        2.93847934388652       -0.15036695907238
H           -3.73783615770990        2.95818997551048        2.74112313189760
H           -4.87003560637393        1.79929286217856        2.03910604393572
H           -5.30942010544160        3.50297257743506        2.13861327917276
H           -2.59598785217758        4.68422770723252        1.23657263705458
H           -3.04430965031674        4.77060271486029       -0.47386779641816
H           -4.22362695640402        5.17961801959242        0.76390660191786
H           -0.59141345449284        2.81136418941780        2.71540309680840
72
 energy: -4.900353914126 xtb: 6.6.1 (8d0f1dd)
N           -1.48513568680627        2.86671170575470        2.22930562686636
C           -1.56335218582156        2.15914375381942        1.19062966111838
C           -2.75185047643551        2.06515193740283        0.27232551790113
C           -3.31814161183520        0.65084681221187        0.36939321705959
C           -4.30651797542595        0.25427648165819       -0.53528779114482
C           -4.83801035236696       -1.01936422959496       -0.51866496981101
O           -5.79813360318579       -1.47945766977864       -1.36824745411585
C           -6.38091131979416       -0.58391893918319       -2.27906030910005
C           -4.37720382151375       -1.95589500765178        0.43236927819528
O           -4.95895817083213       -3.18628637869023        0.36752010572253
C           -4.62184089574814       -4.13632573012224        1.34384386774889
C           -3.41058918228948       -1.56398917485008        1.33799740865368
C           -2.89000683872497       -0.27264487077559        1.30871302919066
C           -2.19537359728500        2.29501346352269       -1.22365579187084
C           -1.28229529891397        1.15531576536477       -1.68089419112188
C           -0.00769048493955        1.12794311756248       -0.92119600775436
N            0.62050579823237       -0.05348952556289       -0.56301056415630
C            1.99050859123560       -0.04396212699377       -0.16131342426652
C            2.92744941351409       -0.55041978827853       -1.28064839534243
C            4.35111277555893       -0.43947888027840       -0.84080513213518
C            5.06476212203293        0.72752485930605       -1.04056794630230
C            6.37462209364422        0.84229062453078       -0.59732526417949
C            6.98651732470322       -0.20790289928281        0.06361921288770
O            8.26515016178326       -0.20858929768101        0.53785360190803
C            9.05666936853654        0.93208821254172        0.32862443827036
C            6.26039898777001       -1.40019146755207        0.28562665060737
O            6.94456537797573       -2.38153191631972        0.93954297166737
C            6.30907325314753       -3.61349454541219        1.16019857818136
C            4.95664748768655       -1.49658507814078       -0.16162068227078
C           -0.06293023016946       -1.31296540611052       -0.63239896221318
C           -3.88267614285559        3.06834085369740        0.60847996155309
C           -4.47690512917416        2.85013245799573        1.99501133412040
C           -3.39918221062593        4.50658748775774        0.49409323615932
H           -4.66639524787194        0.96401727243218       -1.26080877708210
H           -6.84761748389530        0.26647383377719       -1.77134121118049
H           -7.14874779304092       -1.15516184789306       -2.79800552538507
H           -5.65194597312306       -0.21704128693637       -3.00949351714931
H           -4.84862232586089       -3.77724445002702        2.35249734276768
H           -5.23785592257891       -5.00644269760471        1.12343294920869
H           -3.56453412052792       -4.41717559641363        1.28972459630931
H           -3.05238313112738       -2.25285058919821        2.08653051934999
H           -2.15018066893703       -0.00601021343063        2.04848929020754
H           -3.00389013760808        2.38239040454313       -1.95505987157016
H           -1.61915636368441        3.22165407170196       -1.27873964062497
H           -1.84241223904618        0.23035818161927       -1.55972640903847
H           -1.06616984528561        1.29234712547467       -2.75202546133459
H           -0.71504272712083        1.59421656716345        0.75313918906151
H            0.63948705641268        1.98732639403303       -0.98328684055630
H            2.10661303669259       -0.67704021611063        0.72712654145963
H            2.28704322924705        0.97527978715228        0.10505282506404
H            2.75594996317389        0.06028644149972       -2.16895190412387
H            2.67244593581742       -1.58456921523488       -1.51346189047674
H            4.60909292210690        1.55865584753668       -1.55848966628943
H            6.91071742676004        1.75959182354929       -0.78220378712782
H            8.63586227790789        1.81395051213750        0.82346978091488
H            9.19071689827567        1.14421242185728       -0.73802532978473
H           10.02318428717831        0.69879864664563        0.77255258144441
H            7.04853577837286       -4.23510460336513        1.66302081876437
H            5.42963940538070       -3.50672192175696        1.80481508404898
H            6.01428260297575       -4.09305097964603        0.22022059400708
H            4.39201234436219       -2.40235881852952       -0.00287571042027
H           -0.23333092648087       -1.62905288442790       -1.66754672726069
H           -1.03065623780864       -1.24933254960835       -0.12632780719320
H            0.54269188381578       -2.06665323845861       -0.13293414656743
H           -4.68851429340514        2.91884349603476       -0.11871872464568
H           -3.71738138225932        3.01521519312447        2.75044622588505
H           -4.86481153707274        1.84287257829835        2.10020057991489
H           -5.29650052208516        3.54919890462293        2.14981599543647
H           -2.59327420150423        4.68039962792537        1.20082690181582
H           -3.04864439183311        4.72355219935361       -0.50885788123684
H           -4.22357610608064        5.17663244414357        0.72028033326007
H           -0.58303968230112        2.85081914359935        2.70542893476808
72
 energy: -2.718982577995 xtb: 6.6.1 (8d0f1dd)
N           -1.48157155997219        2.91244118971226        2.22290926083847
C           -1.57068080085261        2.16161882756096        1.21425964452378
C           -2.75621333590780        2.06507903629511        0.28964029284300
C           -3.31907480608092        0.65021201042983        0.39225628082889
C           -4.30832321576788        0.25758804474971       -0.51388745929079
C           -4.83302267661176       -1.01838957372887       -0.51221257126390
O           -5.78750872887223       -1.47435464611508       -1.37030635236402
C           -6.37292281156762       -0.57094944743726       -2.27120677991097
C           -4.36710954265141       -1.96327500324730        0.42740029548330
O           -4.94247855027106       -3.19618892961583        0.34618434136333
C           -4.60108811076334       -4.15480626510460        1.31195697296225
C           -3.40532487283531       -1.57531696057330        1.33996400526359
C           -2.89130161041893       -0.28033126363817        1.32583790444422
C           -2.19288996339662        2.29372960157363       -1.24606621793687
C           -1.29344328945347        1.14113331922457       -1.68731093637746
C           -0.01314430981829        1.12613568005392       -0.93867606597817
N            0.61300994025779       -0.05789891387156       -0.56359213801743
C            1.98360666875001       -0.04988335274162       -0.16289773339904
C            2.92334719055494       -0.55568348052999       -1.28112932023518
C            4.34654109436196       -0.44266349362774       -0.84123380651163
C            5.05924530341201        0.72542740831148       -1.03911207733551
C            6.36878849577191        0.84197037509464       -0.59431757270753
C            6.98179656278258       -0.20767969777866        0.06670885121466
O            8.26053740420895       -0.20714107373964        0.54248521582466
C            9.05057146100929        0.93449120281379        0.33254903116093
C            6.25612765708118       -1.40021004354871        0.28839605553379
O            6.94087734907658       -2.38125302401746        0.94341288504124
C            6.30557760949525       -3.61331946020363        1.16306734600321
C            4.95264970564996       -1.49818778291584       -0.16038322197667
C           -0.06989917808828       -1.31781739701208       -0.63756681998657
C           -3.88815249793576        3.06451938686395        0.62185605789784
C           -4.46703665455371        2.88704258770861        2.01952123137938
C           -3.40234789947777        4.49658142162763        0.46530158314945
H           -4.67058450161105        0.97339576104095       -1.23186421389801
H           -6.84609729920550        0.27042825187155       -1.75479528849233
H           -7.13575345859543       -1.13943088268384       -2.80025427986800
H           -5.64340035079004       -0.19085150985571       -2.99413560006871
H           -4.83171415076487       -3.80845376821217        2.32380614961527
H           -5.21095392194317       -5.02629768072005        1.08040807984040
H           -3.54172107269402       -4.42733609424068        1.25744677862081
H           -3.04338717623861       -2.27101216976467        2.08006337837189
H           -2.15364119066132       -0.02078379509829        2.07030015318143
H           -2.99344033921149        2.38612238882933       -1.98811448433994
H           -1.60126549016022        3.21059109787800       -1.31541638605167
H           -1.86134755414145        0.22761923809821       -1.52754859977474
H           -1.09592720561107        1.24592514491821       -2.76721314673626
H           -0.73110000735907        1.56582340985322        0.81255251544196
H            0.63474461208974        1.98533596080995       -1.00485312724983
H            2.10014517523606       -0.68345677858982        0.72639507223517
H            2.27849233903743        0.97065822741845        0.10269061765924
H            2.75123267509589        0.05604005352969       -2.16869381305283
H            2.66902088202795       -1.58961742014941       -1.51379270738087
H            4.60307041018493        1.55672451209328       -1.55635644557872
H            6.90413891654145        1.76009156617173       -0.77828132397303
H            8.62787198482097        1.81581746267116        0.82657150922138
H            9.18508256536331        1.14685927058261       -0.73417778600351
H           10.01735077004786        0.70352245353180        0.77719554266765
H            7.04470133075065       -4.23518243318850        1.66617713304468
H            5.42556657357206       -3.50653680748165        1.80686503555717
H            6.01102958308967       -4.09275781847339        0.22288193620244
H            4.38807082018964       -2.40369056570514       -0.00118329393537
H           -0.23878558195102       -1.63280518929566       -1.67317229666169
H           -1.03853228848015       -1.25286846156230       -0.13386309108182
H            0.53303050905806       -2.07302496050928       -0.13639390649290
H           -4.70661810027069        2.89910268303128       -0.08751679548731
H           -3.69848327515522        3.06999123983115        2.76066253458523
H           -4.85989681436471        1.88672455438719        2.15995477884795
H           -5.28232735959989        3.59448241137221        2.15985092088361
H           -2.59091811618199        4.68064635006397        1.16307753211803
H           -3.05394616290835        4.67815060309269       -0.54446483373372
H           -4.22331879432145        5.17536119792000        0.67529314231909
H           -0.57397933546449        2.89327555362479        2.68858265857684
72
 energy: 0.674000219223 xtb: 6.6.1 (8d0f1dd)
N           -1.47606274429954        2.95829275359246        2.21490769653484
C           -1.57424542824006        2.16854571771968        1.23542906404946
C           -2.76016294619446        2.06391771386812        0.30946579857614
C           -3.31926193768040        0.64943135343902        0.41529426965795
C           -4.30952462531744        0.26086173295867       -0.49264061787712
C           -4.82755675556512       -1.01729443091200       -0.50604858556860
O           -5.77669683718240       -1.46879403119492       -1.37253642691039
C           -6.36494818797008       -0.55749632605499       -2.26316843229123
C           -4.35663590502458       -1.97050360123249        0.42211980934518
O           -4.92574846903729       -3.20573095444288        0.32483854484400
C           -4.58008173298555       -4.17292362092774        1.27995100588385
C           -3.39959245747724       -1.58665869140474        1.34152664171559
C           -2.89202536360952       -0.28835837654047        1.34279297904387
C           -2.18874834417479        2.29263809203479       -1.27196435131955
C           -1.30462034359216        1.12575998979294       -1.69388329445646
C           -0.01615699223195        1.12177098434282       -0.96136252616479
N            0.60581142544320       -0.06342716468941       -0.56478157369127
C            1.97662639881557       -0.05605980079051       -0.16445673765746
C            2.91896802427527       -0.56066520253936       -1.28154133418843
C            4.34162793942996       -0.44536981628733       -0.84126264357759
C            5.05365059763617        0.72365041780216       -1.03758983995720
C            6.36286515322552        0.84187618864672       -0.59130227056279
C            6.97679416763056       -0.20723512611717        0.06997250985196
O            8.25562840872449       -0.20559809809000        0.54738071120695
C            9.04447947845065        0.93670865091928        0.33668028447928
C            6.25147276796634       -1.39989578756903        0.29146586205769
O            6.93688070071010       -2.38065319674409        0.94753701514059
C            6.30207309577788       -3.61295380056197        1.16615618409917
C            4.94828881136611       -1.49936660273364       -0.15884152454693
C           -0.07669857091343       -1.32347062141152       -0.64344629076260
C           -3.89332788246515        3.06219194329224        0.63683744147469
C           -4.45692570526816        2.92453761491996        2.04465556945951
C           -3.40548979198113        4.48653117006953        0.43674620900470
H           -4.67386346305351        0.98241626123115       -1.20357844885124
H           -6.84426371297877        0.27472498701095       -1.73783620431583
H           -7.12307218779397       -1.12287669980807       -2.80207982948813
H           -5.63517261051116       -0.16426240782647       -2.97867962354136
H           -4.81432333476050       -3.83953984733359        2.29501593262039
H           -5.18392370086916       -5.04557870853065        1.03732197470669
H           -3.51877666348865       -4.43742360624541        1.22495590457367
H           -3.03411428901012       -2.28901117229674        2.07330546850278
H           -2.15633150638955       -0.03586942472565        2.09150842161037
H           -2.98349558378347        2.39310803458068       -2.02318623704963
H           -1.58243700417434        3.19957523461696       -1.35325150275682
H           -1.88041152109176        0.22563857348683       -1.49358395486019
H           -1.12603512837781        1.19693310302398       -2.78161538756640
H           -0.74712065194572        1.53757241328532        0.87341496528548
H            0.63031064683574        1.98242367799334       -1.02834730137800
H            2.09356230358579       -0.68997823556242        0.72581608687660
H            2.26964742172326        0.96601000621306        0.10020345267459
H            2.74646811780093        0.05191018758568       -2.16855132479813
H            2.66554043451891       -1.59447325589410       -1.51410011298241
H            4.59717420549775        1.55499025247617       -1.55454093260300
H            6.89759372368575        1.76074371842106       -0.77439805085611
H            8.62019955360888        1.81770649654682        0.82980224204465
H            9.17958948955716        1.14914351603250       -0.73012972618783
H           10.01141856533117        0.70775738221309        0.78209923374446
H            7.04107312311587       -4.23485882349808        1.66949268784718
H            5.42149709379608       -3.50646672167860        1.80920885986278
H            6.00793037002632       -4.09235831042668        0.22575325511612
H            4.38371855277046       -2.40459995046245        0.00080393715240
H           -0.24437074134047       -1.63675687411471       -1.67962146889295
H           -1.04609545842288       -1.25687610064166       -0.14188873995745
H            0.52369191743587       -2.08008681177470       -0.14089342407874
H           -4.72489023127150        2.88048747122352       -0.05390263976913
H           -3.67958247054380        3.12464327674998        2.77125048967882
H           -4.85458660111319        1.93190360903708        2.21985997769865
H           -5.26793790201431        3.63986971429381        2.17072509035212
H           -2.58824558796248        4.68080156939139        1.12495360426909
H           -3.05993078263898        4.63187643218461       -0.57923188404910
H           -4.22270178040088        5.17411195011158        0.63037051522090
H           -0.56309626947337        2.93425759293120        2.66976318811442
72
 energy: 5.459881627053 xtb: 6.6.1 (8d0f1dd)
N           -1.47093118497164        3.00345348838670        2.20645080443732
C           -1.57756593950325        2.18047564738901        1.25424870718686
C           -2.76573045817044        2.05992629261096        0.33227877246284
C           -3.31815130799024        0.64692197256663        0.43817979335218
C           -4.30990359537986        0.26364348094054       -0.47166189854132
C           -4.82148775780378       -1.01637699661016       -0.50033508227935
O           -5.76561847894809       -1.46283198490118       -1.37529611928462
C           -6.35701859559170       -0.54388944737257       -2.25516191411038
C           -4.34572020577050       -1.97778907638639        0.41661575702150
O           -4.90888906504214       -3.21503060577431        0.30356580351522
C           -4.55925795487440       -4.19083034239065        1.24801931456105
C           -3.39337405695427       -1.59856837993969        1.34310020788985
C           -2.89175206685640       -0.29762484384164        1.35972507284777
C           -2.18256799714436        2.29304947182788       -1.30245407115811
C           -1.31471134552127        1.11031206085883       -1.69798883130365
C           -0.02083575075902        1.11923591726336       -0.97992658906870
N            0.59818211132559       -0.06842032551955       -0.56884770305002
C            1.96862327694965       -0.06081431662625       -0.16635354026990
C            2.91430217041265       -0.56499763575111       -1.28200015095463
C            4.33605339045891       -0.44747902830294       -0.83957782831390