25
 energy: -43.830771223430 gnorm: 0.136064847207 xtb: 6.6.1 (8d0f1dd)
C            3.24658056830074        1.17246832443344        0.08561470188384
N            2.30600922751748        0.09252665185179        0.04140944979811
C            2.59809649171980       -1.22568445105062        0.03390245745396
N            1.42606298346248       -1.93747919599418        0.01601036633683
C            0.37925303466010       -1.05366552876004        0.00653517532039
C            0.91949171504986        0.22197992654916        0.02395349537823
C            0.09801209900172        1.37181405747789        0.00203437057298
O            0.52072877196784        2.54345282455442       -0.00682168734761
N           -1.31203811617650        1.03930059371400       -0.03304847428302
C           -2.21167496003228        2.16386084288781       -0.02506681450786
C           -1.91621830382790       -0.19250275022103       -0.15830434368711
O           -3.06493947301257       -0.38336319174373       -0.16177254518459
N           -0.96287713960578       -1.29262572176585       -0.04820117077620
C           -1.45858793660666       -2.65304544025811       -0.04913225149021
H            3.72601225660647        1.21765328204116        1.06558153951045
H            4.01894744447572        1.03580669375240       -0.67759800926754
H            2.70919218214105        2.10189928620519       -0.08889741804525
H            3.58185814706729       -1.64576580816679        0.04188276313145
H           -1.65013528548612        3.09712424530782       -0.07000576811512
H           -2.86692096854072        2.06734603292316       -0.87692643326001
H           -2.82673152429452        2.12056139645356        0.87024429304000
H           -1.14416023014676       -3.19905205964880        0.84146320020867
H           -1.13433762448030       -3.18269006686711       -0.94770424407025
H           -2.54436639179285       -2.57695457860177       -0.05627433069792
H            1.38064150646195       -2.94146079350494        0.00347029924192
25
 energy: -43.837020491231 gnorm: 0.037787009658 xtb: 6.6.1 (8d0f1dd)
C            3.24821361940394        1.17586937067911        0.08767055239650
N            2.30679725232867        0.10036755726998        0.03958327496607
C            2.59761371726811       -1.23675978497248        0.03496581099290
N            1.41699263829722       -1.93860504715416        0.01109696637734
C            0.38663760108086       -1.05568110692496        0.00383316677146
C            0.91903174496811        0.22665678459549        0.02271179498325
C            0.10231080131010        1.37549351816930       -0.00164505420608
O            0.49201324832109        2.55301646571693       -0.01147490087101
N           -1.29585942613311        1.03988902454366       -0.02646821169132
C           -2.21921054152307        2.15721981031012       -0.03230492411530
C           -1.87715902023832       -0.19460839897952       -0.10334390423653
O           -3.05983447704903       -0.39509005453494       -0.17256402159967
N           -0.95136507692775       -1.29752432145384       -0.04488967821982
C           -1.46262927488598       -2.64930446751344       -0.05721328462936
H            3.73187598864453        1.22219468982322        1.06773026564752
H            4.01661602201293        1.04077548620524       -0.67787185277448
H            2.70588713213696        2.10316387285916       -0.08644956897295
H            3.57541355106485       -1.66156990177027        0.04615212078718
H           -1.64168156321053        3.07850188668251       -0.07473679749384
H           -2.88255954302081        2.08003753651120       -0.89091570962332
H           -2.82700630673007        2.13460969396948        0.87382208322312
H           -1.14067838700010       -3.19216399756216        0.83382924778951
H           -1.13664535970629       -3.18415277162734       -0.95266563374896
H           -2.54970503948442       -2.57860016759143       -0.05773838284613
H            1.36282917350162       -2.94223110568203        0.00123526223806
25
 energy: -43.837108620967 gnorm: 0.019796836929 xtb: 6.6.1 (8d0f1dd)
C            3.24629364115783        1.17498861717659        0.08412413256939
N            2.30290342658292        0.10518065359416        0.03544885697246
C            2.59944629287943       -1.23768084188701        0.03507454983769
N            1.41414862848971       -1.93674901795203        0.01647471584874
C            0.38489765577674       -1.05903169822417       -0.00266567558340
C            0.91450067318179        0.22398947127828        0.01689022660040
C            0.10716884548889        1.37299801748817       -0.00561808349962
O            0.49771299756981        2.54639300496344        0.00542360317640
N           -1.28880368366543        1.04171792406452       -0.04772949113789
C           -2.21980074232906        2.15586468963040       -0.02199281961820
C           -1.86026739160109       -0.18965538877384       -0.13915012559733
O           -3.05673431941325       -0.38636761048421       -0.19800471831200
N           -0.95648405440288       -1.29512346799450       -0.05729003741107
C           -1.46760707622386       -2.64560163168878       -0.04606596722181
H            3.72593443415412        1.21931440891207        1.06655885179299
H            4.01758921707954        1.03416352936631       -0.67710593732960
H            2.70811373449447        2.10387654939405       -0.09376703110257
H            3.57959830267312       -1.65129812943465        0.03951876845248
H           -1.65490207788734        3.08791583274417       -0.04777498407937
H           -2.87691399974085        2.08049571950307       -0.88462749495525
H           -2.82950267880418        2.10477977678566        0.88107776818667
H           -1.15094775824750       -3.18296891744801        0.85324338410573
H           -1.13264716047902       -3.18946731282728       -0.93285371949696
H           -2.55322267572425       -2.57561059593072       -0.05661834009037
H            1.36742424341990       -2.94061901068684        0.00977818903666
25
 energy: -43.837722907106 gnorm: 0.013264664311 xtb: 6.6.1 (8d0f1dd)
C            3.24477113614725        1.17386177871934        0.08729187249704
N            2.29959182690640        0.10643083077607        0.03885891994134
C            2.59935102894642       -1.23756197144356        0.03743310230103
N            1.41265775353080       -1.93565978933449        0.01576571293851
C            0.38143582337219       -1.06100680724432        0.00340142299301
C            0.90999404534417        0.22169615428676        0.02357295724197
C            0.10437523154301        1.37059042259045       -0.00281350431041
O            0.49924945392737        2.54144570423913       -0.00556342443423
N           -1.29394938458774        1.04135468743104       -0.04069728126829
C           -2.21702716446175        2.16152531151518       -0.02859724772480
C           -1.86410738404941       -0.19096233110441       -0.12141199038245
O           -3.06220531310650       -0.38554404124850       -0.15641834421326
N           -0.96341347918842       -1.29486204664736       -0.04922749921863
C           -1.46506884205541       -2.64839495255419       -0.05259253708885
H            3.72741729046933        1.21629368549088        1.06829144295415
H            4.01508186189723        1.03554205498767       -0.67576373150875
H            2.70818340981198        2.10419858008622       -0.08615844121931
H            3.58105043157097       -1.64577721163358        0.03905828469909
H           -1.64800426111124        3.09131180294214       -0.07745849843217
H           -2.87285734338523        2.06699048238369       -0.88755465476829
H           -2.82675006725892        2.12796309043449        0.87348862029438
H           -1.14042190887032       -3.20168608600011        0.83499419912939
H           -1.13428853330339       -3.17547676118401       -0.95133163288606
H           -2.54970331798655       -2.58080221218668       -0.05662842699160
H            1.37253618032728       -2.93996580373302        0.00240930060133
25
 energy: -43.837913667646 gnorm: 0.007383533880 xtb: 6.6.1 (8d0f1dd)
C            3.24878844682110        1.17369119666959        0.08578776621300
N            2.30366191310815        0.10426817453984        0.03854843583892
C            2.59941581043996       -1.24011178724219        0.03936286965783
N            1.41309579445570       -1.93626109975186        0.01334590870752
C            0.38399439286482       -1.05852938302774        0.00275312274185
C            0.91339092487258        0.22416581675594        0.02371404400647
C            0.10098728227540        1.37325468500293       -0.00018923370830
O            0.49254031602593        2.54735442158503       -0.00926361044549
N           -1.29975609541052        1.03916091490891       -0.03554792995517
C           -2.22028466967966        2.16001230868344       -0.02740158161423
C           -1.86891501312813       -0.19577443432477       -0.12046252718632
O           -3.06164226599133       -0.39349283266947       -0.17071488159139
N           -0.96066605808615       -1.29416997180928       -0.05182178294281
C           -1.46297481642780       -2.64780165195323       -0.05516133554622
H            3.73314324188033        1.22225580873960        1.06575409899623
H            4.01854020624498        1.03928750593246       -0.67892284268234
H            2.70945248658890        2.10242640388244       -0.08859831057108
H            3.57846810098840       -1.65599828607429        0.04806449868788
H           -1.64082306662089        3.08200345634439       -0.06821866310730
H           -2.87957522494160        2.08006918314676       -0.88600434408187
H           -2.82867859409162        2.12885996238716        0.87509613716569
H           -1.14196280042944       -3.18883166597447        0.83935920319722
H           -1.13429797144043       -3.18684023774902       -0.94825494223873
H           -2.54797287416598       -2.57650168388399       -0.05913783694440
H            1.36996900827682       -2.94099223254930        0.00026235854721
25
 energy: -43.837978522704 gnorm: 0.004315007545 xtb: 6.6.1 (8d0f1dd)
C            3.24657212903920        1.17420478050536        0.08753964503786
N            2.30380060384282        0.10418323563142        0.03627817438579
C            2.59970181891738       -1.24044138883667        0.03390418303087
N            1.41315463519279       -1.93656416280454        0.01401978071062
C            0.38497528976643       -1.05875410633260        0.00295389801309
C            0.91450966493499        0.22401127870220        0.02148020113284
C            0.10523381150481        1.37449838822434       -0.00133380332227
O            0.49861805523500        2.54769448906745       -0.00493702973959
N           -1.29551285277229        1.04113209201166       -0.03690647352192
C           -2.22012126378016        2.15866294029763       -0.02897094892335
C           -1.86461535009155       -0.19388246501140       -0.12020093097265
O           -3.05858729767724       -0.38847795932734       -0.17435118058744
N           -0.96012572177914       -1.29344422572747       -0.04927961086244
C           -1.46490280057377       -2.64678555474786       -0.05198945773562
H            3.72716274252220        1.21938808643985        1.06950089851535
H            4.01741627273137        1.03930576049907       -0.67562155231368
H            2.70652690892224        2.10306720887546       -0.08675991800379
H            3.57911574175961       -1.65485478717461        0.03716696615548
H           -1.64889158742041        3.08543143961776       -0.06914387440868
H           -2.87813963279764        2.07412690721557       -0.88839097923305
H           -2.82798198297230        2.12218793918979        0.87392958456386
H           -1.14325930966378       -3.19185510455184        0.83998861284909
H           -1.13634522866107       -3.18247507118027       -0.94661181592795
H           -2.55048745530681       -2.57743750939140       -0.05488578660098
H            1.37008128355688       -2.94141763962269        0.00497003890269
25
 energy: -43.837988114788 gnorm: 0.003725361654 xtb: 6.6.1 (8d0f1dd)
C            3.24596709878073        1.17417216313268        0.08535099543960
N            2.30187105927767        0.10556109259385        0.03776182859881
C            2.59873887840241       -1.23908958368614        0.03927634054348
N            1.41228598401837       -1.93579775404188        0.01537923888837
C            0.38362674948398       -1.05932756953534        0.00219058595886
C            0.91249269447573        0.22357665258206        0.02122124727253
C            0.10424128134522        1.37326511953664       -0.00392975754697
O            0.49699610115876        2.54591936997531       -0.00483721452552
N           -1.29590991147262        1.04058620419572       -0.03880235338276
C           -2.21852038928653        2.15985621811556       -0.02646353231762
C           -1.86480926407149       -0.19433856017753       -0.12240868175100
O           -3.06032461359924       -0.38743906852108       -0.17047509531947
N           -0.96192316516197       -1.29393492576691       -0.05138732094945
C           -1.46463355466433       -2.64810954268737       -0.05344518357910
H            3.72885873727503        1.21987973480680        1.06609978016896
H            4.01547194917958        1.03457984887619       -0.67829091394990
H            2.70849248975134        2.10412073994972       -0.09090125750390
H            3.57911768425078       -1.65048262568742        0.04612717856407
H           -1.64649398417974        3.08670606694283       -0.06749422797311
H           -2.87639505748874        2.07547239998935       -0.88576267588030
H           -2.82618134428211        2.12394729813051        0.87688349808760
H           -1.14337932081974       -3.19446023021439        0.83840231283065
H           -1.13239749030278       -3.18168884564018       -0.94781931197678
H           -2.55023338574149       -2.58085491982895       -0.05952511844099
H            1.37093924810071       -2.94061471147118        0.00519825988810
25
 energy: -43.838005103694 gnorm: 0.002338736981 xtb: 6.6.1 (8d0f1dd)
C            3.24727037199031        1.17387608266992        0.08733399864423
N            2.30262757448332        0.10522647245710        0.03812657169979
C            2.59922911574647       -1.23953028456854        0.03691651687608
N            1.41270433681701       -1.93595646039723        0.01262629864567
C            0.38402304017287       -1.05936356365993        0.00189785763298
C            0.91275808771906        0.22346368307087        0.02260406888722
C            0.10310387871825        1.37269755220839       -0.00176629620067
O            0.49518570661143        2.54561529953336       -0.00554336853556
N           -1.29739786657025        1.03982377235676       -0.03811047007650
C           -2.21928127768701        2.15964267822336       -0.02809905759104
C           -1.86585082575907       -0.19557440581607       -0.12238295587252
O           -3.06089543415295       -0.38937658794783       -0.16975703836448
N           -0.96167198945695       -1.29381056535052       -0.05160091096719
C           -1.46445335975164       -2.64766448902522       -0.05198593811674
H            3.73101660441875        1.21872198605863        1.06770560353430
H            4.01713122182726        1.03821286845610       -0.67686420064790
H            2.70909767049164        2.10371464122113       -0.08605485647082
H            3.57950559260743       -1.65164748353723        0.04181681311101
H           -1.64503085256874        3.08518115426113       -0.06943666946180
H           -2.87657692374402        2.07576426822187       -0.88783224440494
H           -2.82876933076547        2.12601024921132        0.87404119325011
H           -1.14261117386143       -3.19143447007857        0.84111845366282
H           -1.13487155629987       -3.18392376460257       -0.94591749216532
H           -2.54970410950916       -2.57740911396167       -0.05628896549259
H            1.37135997295227       -2.94075494743573       -0.00019829043201
25
 energy: -43.838006487023 gnorm: 0.002292768546 xtb: 6.6.1 (8d0f1dd)
C            3.24715783819584        1.17387641711719        0.08609889131701
N            2.30361735985893        0.10419566722844        0.03729936273558
C            2.59943262339230       -1.24073194052710        0.03697625161351
N            1.41270660591069       -1.93651461980967        0.01573648543363
C            0.38466638799600       -1.05898690548619        0.00356745378500
C            0.91385270708083        0.22368984328405        0.02283454625402
C            0.10416334558543        1.37365936536693       -0.00109815038850
O            0.49703327345223        2.54666707694303       -0.00695267548991
N           -1.29687969191839        1.04060150789596       -0.03674727627189
C           -2.21998147627542        2.15918739217527       -0.02770763085334
C           -1.86544751026676       -0.19521461515552       -0.12092666487816
O           -3.05978702732339       -0.38894725520939       -0.17188533570411
N           -0.96089161850246       -1.29324256131932       -0.05056374536328
C           -1.46417892676233       -2.64707673141152       -0.05403667869096
H            3.72869803255217        1.22128771866918        1.06744329265603
H            4.01821097871098        1.03900082411425       -0.67708898505446
H            2.70717642667847        2.10235092646693       -0.08921865789296
H            3.57916680562236       -1.65458348974266        0.04118092690815
H           -1.64683491929392        3.08509374628769       -0.06895299113980
H           -2.87868218792194        2.07518421646645       -0.88650513308198
H           -2.82819972732572        2.12439007967020        0.87512490561565
H           -1.14246980871293       -3.19194081443206        0.83811048803852
H           -1.13551739583247       -3.18243574610014       -0.94891607364828
H           -2.54947811773057       -2.57663214376872       -0.05744656447454
H            1.37036449725961       -2.94137338715443        0.00602257971923
25
 energy: -43.838017816701 gnorm: 0.000931629405 xtb: 6.6.1 (8d0f1dd)
C            3.24652657949873        1.17404019103340        0.08660990423760
N            2.30280287911779        0.10489150694055        0.03724115213591
C            2.59895944006632       -1.23991308447917        0.03696683347236
N            1.41243501208790       -1.93605241815723        0.01375690734158
C            0.38419558595124       -1.05894036304143        0.00236790928365
C            0.91319837911579        0.22389694054597        0.02168904472122
C            0.10414837682126        1.37385339621641       -0.00229459438352
O            0.49693155298872        2.54679949695967       -0.00558039117467
N           -1.29655365455100        1.04072388897151       -0.03762082774818
C           -2.21919305065498        2.15957476435334       -0.02782521811975
C           -1.86527737796534       -0.19510745333640       -0.12128913012139
O           -3.06002494355687       -0.38815634965911       -0.17150113369697
N           -0.96145081848566       -1.29350551467663       -0.05077284082733
C           -1.46430414787525       -2.64779503465519       -0.05273175764858
H            3.72866864882927        1.21958131242857        1.06776089509095
H            4.01663490735679        1.03729400294997       -0.67705973646613
H            2.70790870388186        2.10352267244343       -0.08824146946364
H            3.57896519597261       -1.65277876963268        0.04272647074066
H           -1.64620153873899        3.08564567524774       -0.06870471512562
H           -2.87739545273991        2.07571713117004       -0.88703976068811
H           -2.82716981721775        2.12435948876406        0.87520620431596
H           -1.14278023780238       -3.19253038687475        0.83967992306211
H           -1.13387268461955       -3.18314881195070       -0.94683468165988
H           -2.54983314101786       -2.57957284482802       -0.05727964896721
H            1.37058007796679       -2.94089486516449        0.00311928283311
25
 energy: -43.806866769985 gnorm: 0.258430008910 xtb: 6.6.1 (8d0f1dd)
C            3.25677663148732        1.17632334717119        0.08732181755043
N            2.31158554724925        0.11051692808308        0.04213413610678
C            2.61597294930949       -1.23765749534269        0.03862012810666
N            1.41310387978114       -1.93691102028493        0.03091633883722
C            0.36468073480577       -1.05350765427221        0.01605102249091
C            0.90246469000931        0.22099174018322        0.03057456498433
C            0.09572815996749        1.33994527331428       -0.00439313940670
O            0.52107537278675        2.52837631366795       -0.03180543199833
N           -1.37431914209156        1.02251415924779       -0.04324679165478
C           -2.20388933414850        2.17379711153704       -0.00075259933891
C           -2.01771606050749       -0.17951199312642       -0.26680939049548
O           -3.12339799623775       -0.38928564483965       -0.25713943669979
N           -0.99972540626801       -1.27934276146830       -0.05501855101340
C           -1.44609799156174       -2.65846779226742       -0.03874711060121
H            3.73967441276988        1.21827425780122        1.06636962682489
H            4.03091191837600        1.03614544473329       -0.67870448624926
H            2.71946482032251        2.10498274308252       -0.08589821706415
H            3.59851912131818       -1.65007223876678        0.03839433604580
H           -1.63175537815648        3.10379826531432       -0.11555189389326
H           -2.91122404125142        2.04235447036067       -0.80076535414264
H           -2.77717252460762        2.16561946328014        0.92454030438403
H           -1.11740936084840       -3.20209830982345        0.84969564395255
H           -1.12281309771257       -3.19011891363048       -0.93877014700232
H           -2.53288645263467       -2.59857829259865       -0.03987269825867
H            1.39110097413409       -2.94036974829244        0.01903134635826
25
 energy: -43.828599925008 gnorm: 0.047061694704 xtb: 6.6.1 (8d0f1dd)
C            3.25235169396262        1.17421599843488        0.08848712729713
N            2.30412436202954        0.10712802945566        0.03989632310528
C            2.59885718730026       -1.24052306116929        0.04086648921708
N            1.40740188954979       -1.93827831938059        0.02356705290800
C            0.37333798413559       -1.06055870286666        0.01011159789458
C            0.90603028380277        0.22232484323621        0.02729655841896
C            0.09829953222661        1.35496295297441       -0.00957585757931
O            0.48394267553094        2.53632764487512       -0.03411152848494
N           -1.33654503705384        1.03349192717619       -0.03265776883059
C           -2.21805435318880        2.17219662504757       -0.01339643496452
C           -1.93953048945866       -0.18339468057666       -0.18165623233600
O           -3.11127411536943       -0.40618972564520       -0.27579251937892
N           -0.97203136296971       -1.29561456019428       -0.05331385947090
C           -1.45402614609093       -2.65825007875398       -0.05089844562866
H            3.74025011093786        1.21958677471636        1.06719651197565
H            4.02315112207776        1.03750888954045       -0.67716672229278
H            2.71696761961461        2.10553399438745       -0.08522859948878
H            3.57954804823554       -1.65695173719624        0.04388622734667
H           -1.63375735558165        3.08680016308273       -0.11961356289272
H           -2.93692286022443        2.06876799429776       -0.82129224888813
H           -2.77321469969943        2.18563922666424        0.92861761114135
H           -1.11602041207948       -3.19137699070679        0.84085923483744
H           -1.12599494301921       -3.19601879154213       -0.94458825057181
H           -2.54202574445231       -2.60673659420097       -0.04194797517016
H            1.37778743607492       -2.94287416859294        0.01662928965902
25
 energy: -43.828823723534 gnorm: 0.026300165775 xtb: 6.6.1 (8d0f1dd)
C            3.25231454182265        1.17406239970557        0.08528581340530
N            2.30070448535962        0.10759185092866        0.03720962042326
C            2.59576847679911       -1.23891032127529        0.04084075974597
N            1.40254877429915       -1.93249312578069        0.03015424898505
C            0.36716809538676       -1.05888063839261        0.00526848542967
C            0.90491052813154        0.22069391203286        0.02189194988958
C            0.09712396589219        1.35697835285222       -0.01671506290324
O            0.48484202540009        2.53009972760240       -0.02037533503669
N           -1.32284835686837        1.02867389581862       -0.06202759208957
C           -2.21886186353811        2.16023731335472       -0.00059856437699
C           -1.91420589605951       -0.18225111214722       -0.21922557794520
O           -3.10051311741532       -0.39672299467793       -0.30595598007339
N           -0.97937134113130       -1.28706980407660       -0.06504658020886
C           -1.46217051369957       -2.64644299431712       -0.03673855472515
H            3.73949491499180        1.21907972764491        1.06503045509530
H            4.02504187162479        1.03617190520847       -0.67776065579011
H            2.71922661794427        2.10697284703107       -0.08885399279583
H            3.58061581158191       -1.65221960727268        0.03406083940674
H           -1.63902084971948        3.08156441471947       -0.08992894777740
H           -2.92751258389421        2.05606203262549       -0.81392893810414
H           -2.77595391942947        2.14171562760986        0.93881249708429
H           -1.12666328079953       -3.17714938256168        0.86115673186074
H           -1.12509623938239       -3.18929346102496       -0.92347989332855
H           -2.54757615239893       -2.59333933954695       -0.03830599964642
H            1.37268643139328       -2.93741357299729        0.02540429129856
25
 energy: -43.829881765749 gnorm: 0.018167894267 xtb: 6.6.1 (8d0f1dd)
C            3.25039140611406        1.17401026702335        0.08854261959488
N            2.29737569639693        0.10750829821248        0.04047645554814
C            2.59600147694224       -1.23894424651327        0.04468937134325
N            1.40166596240863       -1.93144135123419        0.02780799239500
C            0.36195764551812       -1.06071413288612        0.00914441622017
C            0.90087375505681        0.21751462927444        0.02759918479237
C            0.08992900051454        1.35559837999116       -0.01422917607298
O            0.48500356331388        2.52401884025202       -0.02919260262766
N           -1.32683434270966        1.02814018786306       -0.05725717209542
C           -2.21636812739852        2.16897953230210       -0.00835804580528
C           -1.91637823387755       -0.18612121842512       -0.19102567214002
O           -3.10634290258743       -0.39377042339551       -0.25490685569005
N           -0.98922962347548       -1.28617711578969       -0.05906705283726
C           -1.45793075163125       -2.65085148372296       -0.04585440661569
H            3.73844198279964        1.21764315198016        1.06819736944026
H            4.02306388716113        1.03678034141971       -0.67492809721590
H            2.71726769520760        2.10711936831726       -0.08350771002872
H            3.58363848387064       -1.64969275829820        0.03710510130339
H           -1.62993942551432        3.08519209773338       -0.12334504994678
H           -2.92377398663218        2.04829498399322       -0.81686440708909
H           -2.77341487568040        2.17393397871535        0.92900231516982
H           -1.11274988938935       -3.19795365010120        0.84010920111147
H           -1.12316767148758       -3.17939014044224       -0.94289249953750
H           -2.54183657530501       -2.60503048107554       -0.04207142036947
H            1.37500827667546       -2.93692940213032        0.01700015897599
25
 energy: -43.830099060192 gnorm: 0.009999177212 xtb: 6.6.1 (8d0f1dd)
C            3.25419840788810        1.17405324738363        0.08621025863424
N            2.30208052555236        0.10745804607866        0.03889477683238
C            2.60048158112050       -1.24168704113362        0.04563696394824
N            1.40693026481977       -1.93533822762626        0.02512692411825
C            0.36824282802014       -1.06169974394398        0.00751274145699
C            0.90407999254289        0.21848917239534        0.02831446444443
C            0.08749211728510        1.35614427622377       -0.00748811958506
O            0.48335438499984        2.52904920694565       -0.02874176699051
N           -1.33559543652119        1.02986725551975       -0.04909648104171
C           -2.22214251081408        2.17465188528549       -0.00761846124661
C           -1.92174162850198       -0.19085645965677       -0.19295527077710
O           -3.10840983732631       -0.40081035997036       -0.27354446001999
N           -0.98539724919363       -1.28836317116321       -0.06489724235185
C           -1.45567443359265       -2.65477993964851       -0.04889201126382
H            3.74235837736233        1.21968844840376        1.06552285255525
H            4.02524227516552        1.03614094508397       -0.67890866457649
H            2.71949846533660        2.10559601407229       -0.08745902075363
H            3.58509830272043       -1.65569207793588        0.04544482547798
H           -1.63378454441730        3.08978288287711       -0.11152972710911
H           -2.93456649795467        2.07046341947518       -0.81653657299328