72
 energy: 0.000000000000 xtb: 6.6.1 (8d0f1dd)
N           -1.47310934822924        2.74401318561852        2.22063942287560
C           -1.55658894218425        2.16490305624665        1.13274284460745
C           -2.74549225258129        2.05621251263064        0.23826250649470
C           -3.31377583855761        0.64333417511334        0.32332515650284
C           -4.30230195924506        0.24487112428158       -0.58026167086503
C           -4.85238808050968       -1.02286499940159       -0.53363593669082
O           -5.81420026757557       -1.48606047972767       -1.36157895357670
C           -6.39655692584623       -0.60827005826649       -2.29568495601309
C           -4.39972542350640       -1.94646120241305        0.44396933240983
O           -4.98748357557592       -3.16146026488900        0.41085995818162
C           -4.66362171172287       -4.10093865802695        1.40909140816864
C           -3.42072545213514       -1.54561399150247        1.33436558640148
C           -2.88302826362110       -0.26315802838497        1.27400162590187
C           -2.19303818453636        2.30467021687947       -1.18742988123374
C           -1.26651549989641        1.17243380322503       -1.65249445018642
C            0.01082525039567        1.09745464658138       -0.89354811789923
N            0.61779399208289       -0.02034948241203       -0.57705527866251
C            2.00145228921113       -0.02376006609561       -0.15611401051620
C            2.92554961797610       -0.53865287672537       -1.27700100652360
C            4.35756883501756       -0.43050761225877       -0.83075552032494
C            5.07346182539911        0.73206415878124       -1.03980975472950
C            6.38628045899965        0.84224449235903       -0.60344828301384
C            7.00047329721665       -0.20824758267940        0.05722314949100
O            8.26703733840855       -0.21011315050632        0.52410948507466
C            9.06912311989339        0.92943609656965        0.31863060963839
C            6.27040022445068       -1.40439766990411        0.28033468609137
O            6.94830004375713       -2.38012947787858        0.92752007684741
C            6.31537376337817       -3.61583233633369        1.15217722400438
C            4.96302840674480       -1.49347485723979       -0.16064431849589
C           -0.05511211878686       -1.29906259857679       -0.62085692079872
C           -3.86758072907722        3.07992629005348        0.58498065642721
C           -4.49286201346546        2.77383518785172        1.94313307512182
C           -3.39165211343248        4.52917708609625        0.54797528556046
H           -4.66030069703099        0.94509076131725       -1.31640581036773
H           -6.85037992114187        0.25803164586058       -1.80468862056629
H           -7.17287509152171       -1.18600121846629       -2.79318183475679
H           -5.66836870040540       -0.26952968819383       -3.04040283452035
H           -4.88416765986127       -3.71589494995018        2.40913564538747
H           -5.29223619720187       -4.96637504833431        1.20969248126828
H           -3.61139846644506       -4.39919876145526        1.35529370415983
H           -3.07077825100221       -2.21868786295666        2.10002682176568
H           -2.14562774333496        0.02067850888151        2.01001363031684
H           -3.02188903413801        2.38238034416975       -1.88813562572432
H           -1.65198546223364        3.25146730843841       -1.20556295755141
H           -1.81103391047759        0.23006526775522       -1.62116316669324
H           -0.99335697743926        1.37490224954061       -2.69443281971844
H           -0.67628070635666        1.65183902374723        0.61785732877701
H            0.63525847086258        1.98466388206871       -0.92314029755375
H            2.11132572081740       -0.65949698961381        0.72532619960637
H            2.30680494458141        0.98978260887088        0.11078973822125
H            2.76694224489122        0.06750735773687       -2.17075272340394
H            2.67954606229959       -1.57455642411728       -1.51167757545099
H            4.62170041431221        1.56295626549351       -1.56123593485311
H            6.92357738865082        1.75715832247601       -0.79119604059515
H            8.65159193263071        1.81001840117181        0.81701562739969
H            9.20136256512460        1.14042868409438       -0.74698998879646
H           10.03428931104811        0.69003246578081        0.76064945022918
H            7.05567240429544       -4.23621211097668        1.65347581279537
H            5.43848051513375       -3.50813590722545        1.79970582482858
H            6.02060097762632       -4.09420535105165        0.21253284608183
H            4.40102799328555       -2.40127288651695       -0.00490198294521
H           -0.22071301762289       -1.61775598610935       -1.65116024301020
H           -1.01972267469312       -1.24102728946113       -0.10935207845464
H            0.55899959333766       -2.04486104898380       -0.12333731565713
H           -4.63991918782192        2.95501120214274       -0.18098089750912
H           -3.76095251366987        2.90314731895452        2.73380846416528
H           -4.87457659255110        1.75695657819473        1.97884621460846
H           -5.31925601899505        3.45579242388173        2.12325583951056
H           -2.60025614255587        4.69225089676674        1.27368930043085
H           -3.03987434616939        4.81897697030947       -0.43870979129779
H           -4.22191779840287        5.18069696155015        0.80616701440619
H           -0.59832439338922        2.77744720721660        2.72959009765665
72
 energy: -2.263805563569 xtb: 6.6.1 (8d0f1dd)
N           -1.48535229010386        2.79981047667947        2.24433598450909
C           -1.55295715070329        2.16418972167355        1.16892025643887
C           -2.73688544250326        2.05747067681632        0.26105721153575
C           -3.30084046121297        0.64368183929603        0.34198799802642
C           -4.27226421151140        0.23464941218141       -0.57658832750560
C           -4.83134740882809       -1.02824976955761       -0.55177250391072
O           -5.80355917129071       -1.45995344878271       -1.41906466034181
C           -6.46597653973408       -0.60249185564926       -2.38326853027913
C           -4.38529566468132       -1.94529752673940        0.45127726347944
O           -4.96293987614357       -3.17406229139031        0.43300307678492
C           -4.64257405845734       -4.09782005714160        1.44865085251474
C           -3.42292348573110       -1.53546915315647        1.36313677089591
C           -2.88572847328912       -0.25327576259771        1.30712147100236
C           -2.18442100836789        2.30688584759141       -1.16587445745849
C           -1.25850055747949        1.18783250953294       -1.66356731359809
C            0.01507597849736        1.12045878145581       -0.89440279422678
N            0.63560730184805       -0.04089839483078       -0.57097287702092
C            2.01028984130644       -0.03912949888632       -0.16142938282161
C            2.93856175034806       -0.54725773204640       -1.28220027525933
C            4.36624404371877       -0.43955088305229       -0.84189331055679
C            5.08095056492418        0.72547977147561       -1.04643720852167
C            6.39161949910669        0.83755454286279       -0.60705087884297
C            7.00530079800976       -0.21273322493804        0.05374725884902
O            8.27896172919340       -0.21440525560751        0.52359622059971
C            9.07457107354070        0.92704667955085        0.31826677095318
C            6.27727316480507       -1.40735340940674        0.27644732811118
O            6.95944249376753       -2.38603960356787        0.92636399546750
C            6.32506455813050       -3.61981644478994        1.15051431155616
C            4.97238005992589       -1.49990250321875       -0.16689032058640
C           -0.04920280218526       -1.30497270316654       -0.62947756557681
C           -3.87137200873930        3.06737690950886        0.59562390971413
C           -4.49328438372198        2.76760877377749        1.95749387901867
C           -3.41008373085510        4.52184584982762        0.55140096623995
H           -4.61306955257193        0.92686826234180       -1.32545802521504
H           -6.97069397698460        0.27548833544325       -1.94786510864372
H           -7.24035961499283       -1.20153979884431       -2.86513542366094
H           -5.80236510760452       -0.24010063498139       -3.18551195020422
H           -4.88123668415489       -3.70880770829200        2.44376973668511
H           -5.25944454879897       -4.97287232116746        1.25003646415299
H           -3.58718702431085       -4.39024551314762        1.41862149949385
H           -3.08045208602155       -2.20096749018120        2.14325386688638
H           -2.15891311711945        0.03948384939909        2.05044417120882
H           -3.01533593230310        2.39946765699020       -1.86497827594970
H           -1.63691290787513        3.25085559090547       -1.17577254220390
H           -1.79975791081504        0.24293404137843       -1.62376216837716
H           -1.01266234171386        1.39601360339793       -2.71266606856969
H           -0.67580883263618        1.64541395427596        0.67910236437113
H            0.65105125294113        1.99318881423765       -0.93874834866047
H            2.12094845361120       -0.67168002918499        0.72313707093121
H            2.30856016172058        0.97757276198123        0.10634817752876
H            2.77181365400814        0.06063518983150       -2.17306891583230
H            2.68634280116193       -1.58200382284747       -1.51555099887761
H            4.62657978370947        1.55603816563788       -1.56583501633238
H            6.92892197661267        1.75327600646619       -0.79452905653543
H            8.65382970743994        1.80728623009637        0.81556906985622
H            9.20754634726603        1.13961192752888       -0.74751361202752
H           10.03992557109935        0.69006039522610        0.76176729534779
H            7.06525864415702       -4.23969194665836        1.65349315101900
H            5.44674424461238       -3.51204371384337        1.79626138878834
H            6.03036057823858       -4.09972512566374        0.21122808559893
H            4.40921984023909       -2.40698440550590       -0.00917942361093
H           -0.22498402749277       -1.61431558527621       -1.66410125134668
H           -1.01226525116385       -1.24263586867855       -0.11444002679814
H            0.56211362089478       -2.05714535605874       -0.13954544388845
H           -4.64447729343218        2.93306886838660       -0.16904425998610
H           -3.75817609546927        2.90845599203358        2.74351771880004
H           -4.86209632976815        1.74580250221976        2.00033543845052
H           -5.32772441243130        3.44210362334374        2.13454667358586
H           -2.61725161275782        4.69238547342888        1.27366953330486
H           -3.05991713255842        4.80663224086140       -0.43763287000777
H           -4.24641186789002        5.16860536134804        0.80659643170203
H           -0.60564831154806        2.81558997194106        2.74907206228665
72
 energy: 7.625267830613 xtb: 6.6.1 (8d0f1dd)
N           -1.50155513854897        2.86963792816193        2.26308588013270
C           -1.54329132050302        2.16765320712267        1.20998845289516
C           -2.72459562124631        2.05813271959522        0.28855853392573
C           -3.28085063554077        0.64199030812424        0.36269479644697
C           -4.23123891486292        0.21843826464729       -0.57247131890602
C           -4.80881373412214       -1.03567989303253       -0.57329389665502
O           -5.78748749943677       -1.41874689253567       -1.50194379055583
C           -6.55895708406890       -0.58543197213364       -2.50549180832731
C           -4.37062577336507       -1.94418908358245        0.45907363499709
O           -4.92926068231288       -3.19271091246664        0.46546428731945
C           -4.61349659522721       -4.09439999686163        1.50310531844175
C           -3.42842749847893       -1.52292458130813        1.39669412668836
C           -2.88969450096334       -0.24184441607294        1.34974239523370
C           -2.17156055232336        2.31466350104868       -1.13833041519138
C           -1.24962302860017        1.20288411589245       -1.66453334817880
C            0.02316837387216        1.14185331606454       -0.89726323223240
N            0.65244160691316       -0.05884442898094       -0.56833961718586
C            2.01754157397545       -0.05265675979917       -0.16881152157636
C            2.95284029404598       -0.55777678966022       -1.28799839386383
C            4.37604360197046       -0.45027564759909       -0.85184388378645
C            5.09051616859131        0.71598173826561       -1.05403207745988
C            6.39985591160204        0.83073099303399       -0.61239262555134
C            7.01177265179997       -0.21882446549209        0.04849872868161
O            8.29280176754504       -0.21955629846336        0.52159516438040
C            9.08107274800573        0.92377384865840        0.31757098080122
C            6.28702779195148       -1.41134115256927        0.27056259352676
O            6.97353188268156       -2.39336603065991        0.92375327214107
C            6.33791230619568       -3.62477350327707        1.14807947296045
C            4.98388817773116       -1.50795345879740       -0.17463631490811
C           -0.04434643166309       -1.30695001862230       -0.64344134117518
C           -3.87317406501543        3.05101926058343        0.61181551166684
C           -4.49287946211421        2.75792929562927        1.97723745152176
C           -3.43385633961898        4.51305510588907        0.55541170543862
H           -4.55336169492080        0.89901123218600       -1.34016626239245
H           -7.12609656221015        0.29844327787221       -2.13113040223082
H           -7.32669395911490       -1.22987350463067       -2.95354444804474
H           -5.97448811409568       -0.20340005888499       -3.37631005560152
H           -4.87810299962417       -3.69911368994906        2.49048418848565
H           -5.21494352010203       -4.98161912201656        1.30427117244617
H           -3.55407661972248       -4.37777881271705        1.50382176540661
H           -3.09759124802888       -2.17700315360565        2.19719227539897
H           -2.17903211617746        0.06347279424663        2.10557354894472
H           -3.00620831426891        2.42528102758255       -1.83309270277051
H           -1.61578599588217        3.25462292590425       -1.13616834884846
H           -1.78663206008312        0.25500612413481       -1.62467845784375
H           -1.03266202746618        1.42306017471928       -2.71983887296944
H           -0.67442091445977        1.63392310712843        0.76133828554681
H            0.67369030981899        1.99636245714398       -0.94872630318510
H            2.13336430990808       -0.68516336000353        0.71847290240405
H            2.31362632329730        0.96484578517250        0.10220091243821
H            2.77878002110480        0.05120436152165       -2.17676392856856
H            2.69505330144989       -1.59176252215681       -1.52143110767851
H            4.63310241888675        1.54569966663911       -1.57216205748301
H            6.93624959979148        1.74779565966686       -0.79902835106413
H            8.65713152777508        1.80377160014717        0.81369682882346
H            9.21638077900203        1.13857418683926       -0.74812396880255
H           10.04677676790072        0.69017261312620        0.76308980523890
H            7.07794866368655       -4.24382436620206        1.65331951535851
H            5.45810020606131       -3.51739857579244        1.79205916646772
H            6.04400189312746       -4.10755061147377        0.20952891507109
H            4.41976902183065       -2.41449120363416       -0.01534802171409
H           -0.23179329160324       -1.60836440952710       -1.68140608673080
H           -1.00444861537929       -1.24553114442373       -0.12215256326170
H            0.56479693863414       -2.06898042291523       -0.16393658929152
H           -4.64644626007528        2.90067496253850       -0.15116975719303
H           -3.75633193748810        2.91660297907514        2.75855596095819
H           -4.84595241321816        1.73044689875651        2.03022835551404
H           -5.33745021591035        3.42223729679148        2.14837557318721
H           -2.64055804715221        4.69501060403126        1.27392546080947
H           -3.08738055088121        4.79172639733858       -0.43683495864793
H           -4.27868577203794        5.15123237717179        0.80676365470455
H           -0.61441001436188        2.86247091947072        2.76349276793325
72
 energy: 26.248949980995 xtb: 6.6.1 (8d0f1dd)
N           -1.51517144043028        2.92580468555374        2.27939684154050
C           -1.53416100808760        2.18062099539731        1.24770409960616
C           -2.71243691848222        2.05812628438190        0.31531623199949
C           -3.26078622794116        0.63901863877332        0.38174932127752
C           -4.18932686140840        0.20173860874673       -0.57075574110803
C           -4.79259473813273       -1.04284011374857       -0.59500811896344
O           -5.77404798230081       -1.37508615683319       -1.58821412194116
C           -6.65562722681516       -0.56234197583886       -2.63592841411390
C           -4.36068898798875       -1.94340220319349        0.46516585567604
O           -4.89413517820170       -3.21055627368171        0.49929965789155
C           -4.58302493306233       -4.08928247806863        1.55994213697366
C           -3.43717100074410       -1.51045372765676        1.42642230363571
C           -2.89501916554120       -0.23125631814024        1.39121427649798
C           -2.15779454224828        2.32472349043335       -1.11002537153420
C           -1.24176373399521        1.21737489475048       -1.66054957753034
C            0.03339603796098        1.15485136682728       -0.90431870955356
N            0.66395322987128       -0.06894771223739       -0.56990077761484
C            2.02477746768484       -0.06413777566324       -0.17492653207719
C            2.96464725448930       -0.56836845180476       -1.29422569491244
C            4.38603259426955       -0.46073782891375       -0.85981779533608
C            5.10025154901463        0.70634542431647       -1.06150174971820
C            6.40884839130805        0.82390157642938       -0.61850403754841
C            7.01988013694157       -0.22515829535327        0.04297965651638
O            8.30480689066531       -0.22426217339460        0.51831549256331
C            9.08790838615589        0.92069046423159        0.31655477805141
C            6.29791913643016       -1.41687062534685        0.26460288808859
O            6.98693665985619       -2.40011379996976        0.92008707684089
C            6.35149547818238       -3.63010402684018        1.14561000010976
C            4.99550707529491       -1.51686321647051       -0.18185864287191
C           -0.04031141424214       -1.30760801414883       -0.65821536437182
C           -3.87506693798823        3.03480835641386        0.62981929100946
C           -4.49169332643553        2.74714297123150        1.99831844970557
C           -3.45848150485946        4.50370275766359        0.55921839130528
H           -4.49054030787276        0.87236708347213       -1.35631971402372
H           -7.27688491857827        0.31812551647508       -2.31373311777817
H           -7.41009395379965       -1.25964927704659       -3.04176468824777
H           -6.14445931996379       -0.17367521219691       -3.56240015329536
H           -4.87499478351661       -3.68791666335813        2.53847203130475
H           -5.16735095430909       -4.98942113270499        1.36179426065992
H           -3.52005265271711       -4.36253484815998        1.59269596178434
H           -3.12004984320970       -2.15223864759890        2.24740670652619
H           -2.20348318696963        0.08640841568364        2.16265986898241
H           -2.99499155959264        2.45217138153135       -1.79971424782325
H           -1.59386198934466        3.25975250994468       -1.09536900988213
H           -1.77520509911150        0.26769361842170       -1.62468716778545
H           -1.04770706926176        1.45044236288984       -2.71964595504389
H           -0.67179584557384        1.62310323745345        0.84493260130141
H            0.69534420227124        1.99743074972584       -0.95292654162238
H            2.14531295283458       -0.69840316783852        0.71319143789846
H            2.32185337679171        0.95248726646391        0.09854139880557
H            2.78687946720916        0.04103895062679       -2.18202364881880
H            2.70430585909159       -1.60209294179137       -1.52765300986025
H            4.64034000975460        1.53501414903131       -1.57928113085795
H            6.94370693420603        1.74205034883470       -0.80452907786765
H            8.66087057150306        1.80019261703774        0.81165070204605
H            9.22603325658753        1.13749587667345       -0.74881789234869
H           10.05376983052909        0.69045516600043        0.76430461630199
H            7.09144075178525       -4.24781874360784        1.65326615806739
H            5.47042751272679       -3.52295451140744        1.78807084040741
H            6.05886134396525       -4.11597156902009        0.20796081196359
H            4.43121804573907       -2.42318347297996       -0.02164009496213
H           -0.23780548687251       -1.60041596397053       -1.69836511737711
H           -0.99711016794878       -1.24908112836806       -0.13014467058369
H            0.56730152246322       -2.08014436374634       -0.19043857277164
H           -4.64693218938824        2.86502928367117       -0.13166035114912
H           -3.75603232003196        2.92574133610858        2.77621738939354
H           -4.82891143203770        1.71459689258155        2.06205396526306
H           -5.34651630136721        3.40043904381746        2.16227517631363
H           -2.66572654145770        4.69999524484490        1.27424573745705
H           -3.11718727447060        4.77663228597539       -0.43634763152782
H           -4.31225033590060        5.13173365510912        0.80641428446977
H           -0.62288046650356        2.91393707565095        2.77582827704813
72
 energy: 49.458882653692 xtb: 6.6.1 (8d0f1dd)
N           -1.52391182351456        2.96945385767180        2.29178636438122
C           -1.52842075149868        2.19728758802199        1.28223993228794
C           -2.70097578691931        2.05645741465736        0.33968524522569
C           -3.24160681111152        0.63435226643131        0.39915163162422
C           -4.14842378366749        0.18423373530681       -0.56999334036629
C           -4.78025707974276       -1.05024983281639       -0.61266602110762
O           -5.76021560617446       -1.33475889773372       -1.67114504968317
C           -6.75831947316588       -0.53330125911559       -2.77371734416791
C           -4.35335119350793       -1.94360795984038        0.47305733643073
O           -4.85760200346539       -3.22614967385870        0.53433236787446
C           -4.55256173960177       -4.08327921390881        1.61676312761157
C           -3.44671746238202       -1.49854843322522        1.45356931805740
C           -2.90107505394396       -0.22141924395746        1.43041795308883
C           -2.14329948873113        2.33567894099979       -1.08237208708202
C           -1.23466089010022        1.23069845925927       -1.65349069249926
C            0.04635630248123        1.15875048268984       -0.91512277750064
N            0.67077516278924       -0.07166487369462       -0.57431996851625
C            2.03250742575724       -0.07371576613541       -0.18012610890511
C            2.97394369439101       -0.57883045793370       -1.30045875588658
C            4.39594804800637       -0.47066583866098       -0.86622413079416
C            5.10958640140845        0.69696703296646       -1.06862933020116
C            6.41785254325736        0.81716345779065       -0.62497792333708
C            7.02926048637647       -0.23131304515641        0.03752747648328
O            8.31455652470220       -0.22840565504228        0.51404255341770
C            9.09492530412421        0.91806775992789        0.31530330266986
C            6.30921086438415       -1.42358556713045        0.25893868761843
O            6.99917656063314       -2.40583159299563        0.91559334117729
C            6.36524340217659       -3.63561539869502        1.14328334079804
C            5.00676385443461       -1.52600071885238       -0.18835427704699
C           -0.03688989894020       -1.30755798138082       -0.67302393427898
C           -3.87707340264471        3.01913570432851        0.64807528296731
C           -4.48987843270872        2.73605616698685        2.01934616493790
C           -3.48316925829378        4.49376110601406        0.56264661507401
H           -4.42605592633736        0.84740658754379       -1.37121651383269
H           -7.42011363015590        0.33558255187001       -2.49108708998995
H           -7.49020766844433       -1.28361385177579       -3.13175225902549
H           -6.30690498376266       -0.15182119266440       -3.73644540774933
H           -4.87180746779087       -3.67622267212945        2.58518402862693
H           -5.11925740640701       -4.99573384209259        1.41958831099617
H           -3.48720124851932       -4.34515059794109        1.68062676716042
H           -3.14437910613450       -2.12842164742438        2.29267287334197
H           -2.23042769650829        0.10789255662952        2.21807394552265
H           -2.98196572150110        2.47873016978181       -1.76661466419134
H           -1.57192964675223        3.26544795982364       -1.05497788839480
H           -1.76595013854539        0.28032393654850       -1.62431983479540
H           -1.05840968945973        1.47733439420442       -2.71402480806217
H           -0.66807445085354        1.61515428931422        0.92540701108336
H            0.71445207442856        1.99689938403580       -0.95213319636369
H            2.15467594581866       -0.71095948709441        0.70677222128039
H            2.33229948443157        0.94099444792131        0.09523088296604
H            2.79554527938234        0.03062738719926       -2.18796808313431
H            2.71375562948227       -1.61263154553361       -1.53370380175451
H            4.64789683942084        1.52452599394867       -1.58675197637151
H            6.95097756382285        1.73612860880181       -0.81067533295960
H            8.66477985780900        1.79669910490035        0.80955541498250
H            9.23595300369544        1.13640140504080       -0.74955621160989
H           10.06054625002366        0.69068383889131        0.76546618805329
H            7.10526691139117       -4.25141914032111        1.65337721675961
H            5.48315662017399       -3.52847203487933        1.78446040179985
H            6.07421258999779       -4.12455837044166        0.20663895696975
H            4.44309484437811       -2.43248686236330       -0.02772681181048
H           -0.24278823086402       -1.59060178768098       -1.71443133878940
H           -0.99011923420105       -1.25306334523288       -0.13790962294736
H            0.57013897865563       -2.08941024752723       -0.21770731214273
H           -4.64653937496321        2.82867169782202       -0.11144503740649
H           -3.75715733316398        2.93525065143757        2.79498999912189
H           -4.81152972737372        1.69928052838386        2.09420782722649
H           -5.35473542858468        3.37782209920954        2.17587498988440
H           -2.69178611568206        4.70665605043578        1.27432271500708
H           -3.14781160433188        4.76166595372598       -0.43606389477123
H           -4.34568640487883        5.11110392981404        0.80570339086775
H           -0.63171147562740        2.96901230697593        2.78970617656129
72
 energy: 72.762658855411 xtb: 6.6.1 (8d0f1dd)
N           -1.52639682145048        3.00851947972473        2.29631844880595
C           -1.52606717531309        2.21087846800010        1.31357513818753
C           -2.68989781974243        2.05310901177474        0.36107848448691
C           -3.22384826168722        0.62869592458785        0.41480228314727
C           -4.11024194209333        0.16661306806912       -0.56903896380622
C           -4.76664098740460       -1.05811669227652       -0.62223322020585
O           -5.73678802772540       -1.30428573591657       -1.74355261098114
C           -6.86922299603262       -0.49908791732377       -2.91716187969306
C           -4.34624617164508       -1.94536242005728        0.48576431650910
O           -4.82061529367393       -3.23835090059106        0.56925116119321
C           -4.52364048706233       -4.07701764405611        1.67065304702652
C           -3.45480877387300       -1.48767745327912        1.47973167684216
C           -2.90705089472913       -0.21216770068313        1.46603705491093
C           -2.12817072243018        2.34611537541790       -1.05616118510531
C           -1.22777149869206        1.24207275437611       -1.64423695393742
C            0.06263799576906        1.15334669820065       -0.92843888511196
N            0.67340768319248       -0.06759340772508       -0.58067921746416
C            2.03979650353494       -0.08121170408369       -0.18501990936071
C            2.98066067176186       -0.58848443682886       -1.30606567172886
C            4.40500382706450       -0.47959312557128       -0.87099159498000