25
 energy: 0.000000000000 xtb: 6.6.1 (8d0f1dd)
C            3.23720163006194        1.16630919979326        0.08434469647475
N            2.29877817382611        0.07527477071623        0.03981603040599
C            2.58028210190900       -1.21425402444508        0.03006176031096
N            1.43813958087363       -1.93419271955128        0.00098261760884
C            0.39035688448383       -1.05887472636071       -0.00790371836672
C            0.93510056364412        0.21347819449412        0.01709077491437
C            0.09450143893243        1.40504303904423       -0.00410947031874
O            0.49712751527797        2.54126714362870       -0.00342325688240
N           -1.25076640035757        1.06271879480407       -0.03085478223738
C           -2.21907211982101        2.15522099834493       -0.05001256985998
C           -1.81739487048744       -0.20012725993278       -0.04692818574614
O           -2.99983886758376       -0.37846417018721       -0.07008878229737
N           -0.92618586207120       -1.30210215599479       -0.03682761578324
C           -1.46982264913417       -2.64643102187190       -0.06029820460571
H            3.71247264356769        1.21471455160235        1.06488849150277
H            4.00791497605742        1.03430808813993       -0.67357694370751
H            2.69910007168542        2.09770118228144       -0.09130154882931
H            3.56654120610678       -1.63682992603973        0.04233140067262
H           -1.67107961066214        3.09322851271934       -0.02552706933167
H           -2.82428953597071        2.09428624779827       -0.95318082946668
H           -2.87644029173232        2.07745725625962        0.81450067533302
H           -1.17061996399332       -3.19584890659852        0.83242232437030
H           -1.14560257411436       -3.17511610292205       -0.95688275822323
H           -2.55549792440841       -2.55659984320617       -0.07459039797972
H            1.38130855184625       -2.94313852034425       -0.01389874181052
25
 energy: -5.430913338236 xtb: 6.6.1 (8d0f1dd)
C            3.24224848777518        1.18212535673509        0.08690020703676
N            2.30921756742056        0.09423907266776        0.03802700132870
C            2.59956235790382       -1.23508073702667        0.03011812604067
N            1.42686606683771       -1.94282084845346        0.00071849470643
C            0.39613862195265       -1.05859071653721       -0.00831427620620
C            0.93111385012635        0.21973691246819        0.01533560021174
C            0.10357167538173        1.39332271096398       -0.00523146607184
O            0.50139179462834        2.55869557133136       -0.00452514427092
N           -1.25859364375766        1.04914844979570       -0.03107724239078
C           -2.21718113752150        2.14648626806913       -0.04974576196184
C           -1.82324845818627       -0.20144356697114       -0.04729563582257
O           -3.02009125033937       -0.38249734745648       -0.07037006282706
N           -0.93484555324481       -1.30248519046134       -0.03713627390417
C           -1.47479371587259       -2.64373189293507       -0.06037837326437
H            3.72131558885936        1.23561138166442        1.06832667222384
H            4.01177780340820        1.05494328795814       -0.67601269809281
H            2.69313224012373        2.10539885510020       -0.08854058347327
H            3.57683949957056       -1.66342303610071        0.04254181273204
H           -1.65396890839932        3.07678307173649       -0.02549253460216
H           -2.82268924893287        2.09371013137997       -0.95407687516916
H           -2.87447631065075        2.07735722607327        0.81637404856284
H           -1.17252018175643       -3.19555138056629        0.83172256947352
H           -1.14741003971353       -3.17496427394002       -0.95622097695857
H           -2.56002235141002       -2.55122348004389       -0.07476391947849
H            1.35887991373315       -2.94671722327940       -0.01384881167502
25
 energy: -6.447753080990 xtb: 6.6.1 (8d0f1dd)
C            3.24428959491306        1.20127137619902        0.09006454452784
N            2.32139171887277        0.10447695291682        0.03517405327381
C            2.61301464534236       -1.25593104192335        0.03068990727173
N            1.41338047024387       -1.94675337093653        0.00091446666600
C            0.40050526311473       -1.05872798292075       -0.00921893108465
C            0.93087265174029        0.22262720047508        0.01249188698699
C            0.11485250750763        1.37450248250272       -0.00793993050804
O            0.49495992423989        2.55690467950863       -0.00800710165596
N           -1.26544389630695        1.03223629318247       -0.03183526311086
C           -2.20875738064893        2.13677677570958       -0.04916155544985
C           -1.82583784988191       -0.20568243962782       -0.04781474538482
O           -3.02835447284518       -0.39037164618648       -0.07033248923429
N           -0.94214959331294       -1.30242838663447       -0.03771559417241
C           -1.48231923204425       -2.63998967243909       -0.06061508478430
H            3.73240735955459        1.27459427768479        1.06884800791104
H            4.01540862537088        1.10146517867664       -0.67824038677414
H            2.67714303952001        2.11573324448824       -0.08013433254578
H            3.58052737228473       -1.69839824428204        0.04321053555208
H           -1.61829613706256        3.05130185318415       -0.02563548263210
H           -2.81573883846676        2.09536025856387       -0.95377748503283
H           -2.86554480870799        2.08005937782693        0.81896345444084
H           -1.18121411757361       -3.19559512229113        0.83083471241800
H           -1.15575715906792       -3.17541877517408       -0.95559005955557
H           -2.56734730122994       -2.54064487728185       -0.07522294930538
H            1.33022228238034       -2.94833978904930       -0.01291628167006
25
 energy: -5.401523113971 xtb: 6.6.1 (8d0f1dd)
C            3.23553388071217        1.22685205522764        0.09326323596984
N            2.33556540068688        0.10437557267804        0.03240469547977
C            2.62247573784761       -1.27719440229630        0.03193670223440
N            1.40548733725129       -1.95311429649455        0.00202124754059
C            0.40478104167232       -1.06464650758395       -0.01050855403323
C            0.93693883823497        0.21740699138023        0.00902541660305
C            0.12726721786183        1.35543557898042       -0.01305035633626
O            0.48661551172350        2.54669235818097       -0.01547629671557
N           -1.26661655613488        1.01446833510586       -0.03370367892934
C           -2.18915756475461        2.12984800595249       -0.04821301930475
C           -1.82542701815163       -0.21503434266900       -0.04865622664925
O           -3.02966817705658       -0.40300813724601       -0.06995974773809
N           -0.94452505077783       -1.30707422767454       -0.03871434429034
C           -1.49375061710057       -2.63899615904973       -0.06111694579573
H            3.73560341858074        1.32922397464774        1.06619640145918
H            4.00855658196699        1.17938298941213       -0.68262919342117
H            2.63596668522807        2.12667734924718       -0.06356723513500
H            3.57987239437922       -1.74049237891885        0.04453624852422
H           -1.56256353210020        3.02210075395162       -0.02662676512447
H           -2.79882363185745        2.10283310927053       -0.95174789299380
H           -2.84309487716618        2.08938055835622        0.82327905942659
H           -1.20094493658360       -3.19884766417710        0.83072300704632
H           -1.17460770964002       -3.17958587820084       -0.95597480330954
H           -2.57825498451971       -2.52386967469448       -0.07615657616098
H            1.30498527763385       -2.95378536121365       -0.01025048219919
25
 energy: 5.771049723414 xtb: 6.6.1 (8d0f1dd)
C            3.22034630573687        1.29699503825674        0.10321685252631
N            2.38357315755487        0.10067447050481        0.02399037646834
C            2.64715008921901       -1.33951175908360        0.03673026858826
N            1.38322845830487       -1.96827672262404        0.00613747482933
C            0.41793803160134       -1.07696807621544       -0.01478119613013
C            0.96146537198874        0.20578632525397       -0.00215121181193
C            0.16304358414137        1.30782369481697       -0.03006334742613
O            0.45592678147046        2.52180264413737       -0.04060430042171
N           -1.27045292274349        0.96746742397974       -0.04023323631059
C           -2.14213035616605        2.10647150322078       -0.04564086524443
C           -1.82302359242285       -0.24080144690819       -0.05147157858637
O           -3.03002282945513       -0.44063793370177       -0.06855974401576
N           -0.94706760217090       -1.31673984683747       -0.04208482431524
C           -1.52466958075644       -2.63227957394012       -0.06268436897839
H            3.75985203338994        1.47660297434990        1.05594511872752
H            3.99532312790944        1.40354241228190       -0.69576241642744
H            2.53380509197792        2.15827549949965       -0.00824302430175
H            3.57096114505905       -1.87382103038179        0.04922331429866
H           -1.42565095799326        2.94049457813893       -0.03135304831605
H           -2.76153939601617        2.11272515273311       -0.94360817338518
H           -2.78622326134558        2.10507134911422        0.83548334459561
H           -1.25844609341398       -3.20362764564504        0.83095791696848
H           -1.22969025112387       -3.18741182972731       -0.95772490257819
H           -2.60750426332153       -2.46818735065727       -0.07880792159606
H            1.22602259651156       -2.96644124839399       -0.00087661100989
25
 energy: 15.169639428459 xtb: 6.6.1 (8d0f1dd)
C            3.17941789454256        1.34658537081848        0.10810463956831
N            2.39668466176046        0.09622583196758        0.02212715539643
C            2.66399562649563       -1.36724270718405        0.03818154489093
N            1.38480865242867       -1.98961349940990        0.00869340058567
C            0.42533447662293       -1.09963228251542       -0.01678695534454
C            0.96951948923016        0.18287132218474       -0.00703384931539
C            0.18498388021020        1.27613004591674       -0.04053210767657
O            0.46974111509624        2.49538624457562       -0.05562270212983
N           -1.25956693022858        0.94135435441484       -0.04476956544385
C           -2.09169877104850        2.10605019207407       -0.04337650646697
C           -1.81806963468151       -0.25758681413408       -0.05321306569396
O           -3.02883575641482       -0.45480939211435       -0.06739834149570
N           -0.94796813335864       -1.33561631123623       -0.04429162470032
C           -1.54899825969267       -2.64035856435664       -0.06401072079324
H            3.73289728827350        1.57292503468381        1.05116369122302
H            3.94788043525915        1.54310377876077       -0.70529746030459
H            2.42463498801524        2.17117161242736        0.02092546137645
H            3.57645131100537       -1.92107966456014        0.05130053744742
H           -1.31827752844694        2.90362740429764       -0.03344434931879
H           -2.71508825247653        2.14047947895210       -0.93941846662432
H           -2.72653977301455        2.13524568437296        0.84624197281460
H           -1.30181375552839       -3.21993892113987        0.83077553100073
H           -1.27096134953512       -3.20574572274290       -0.95900657122457
H           -2.62951768422198       -2.44485016276291       -0.08118344417352
H            1.21320067764427       -2.98565371111817        0.00490569254990
25
 energy: 21.023832642693 xtb: 6.6.1 (8d0f1dd)
C            3.13115499388333        1.38599419749805        0.11063612505004
N            2.39588270259403        0.09337087947335        0.02337180101971
C            2.67640009539225       -1.37879591272769        0.03906431632280
N            1.39504898156828       -2.01036894924563        0.00994724552831
C            0.43005275862131       -1.12649281828325       -0.01778176245042
C            0.97072841950337        0.15655078252941       -0.00913123995700
C            0.19985023782580        1.25100994928181       -0.04760212744931
O            0.49778853355333        2.46894154661812       -0.06539676798593
N           -1.24524768189949        0.92661112722670       -0.04783932951543
C           -2.04396804260105        2.11510801580810       -0.04050440251254
C           -1.81098282288928       -0.26827218586843       -0.05407447338237
O           -3.02411164057186       -0.45690650798218       -0.06611120598084
N           -0.94890214588937       -1.35658700535890       -0.04596941121790
C           -1.57014746333511       -2.65376973878421       -0.06558215601769
H            3.68283584354391        1.64683903138358        1.04942867912414
H            3.88909114343234        1.62990403531490       -0.70793775655804
H            2.33355911909246        2.17938019100601        0.02996629196764
H            3.58857951488733       -1.93045336144579        0.05229573505557
H           -1.23771531758859        2.88823980533352       -0.03265461926533
H           -2.66712852954941        2.17441602187504       -0.93562111084555
H           -2.66929190287525        2.16805480402013        0.85530082435422
H           -1.33705819698521       -3.24036060523741        0.82909282532480
H           -1.30452420458773       -3.22727442230423       -0.95981423728345
H           -2.64830051027066       -2.43944531992967       -0.08360464708480
H            1.22862078308141       -3.00666495802928        0.00755529990665
25
 energy: 25.466891717746 xtb: 6.6.1 (8d0f1dd)
C            3.08521611097316        1.41882481524285        0.11219414661737
N            2.39126448628320        0.09206527802992        0.02627693669994
C            2.68675297987470       -1.38276086218332        0.04065180930216
N            1.40891222943980       -2.02914502402944        0.01072759625706
C            0.43385748236864       -1.15394159910089       -0.01835052811569
C            0.97012665271951        0.13068287171612       -0.01008451448177
C            0.20924144833031        1.22905620986691       -0.05412032095487
O            0.52307254606764        2.44522708572907       -0.07512355795320
N           -1.23122570449652        0.91660222355672       -0.05051350916898
C           -2.00009033573015        2.12657015378797       -0.03669505813287
C           -1.80322153508371       -0.27649127240437       -0.05448232251030
O           -3.01785487488719       -0.45503974331011       -0.06430501700888
N           -0.94967816781936       -1.37735781509394       -0.04758638089836
C           -1.59056602403925       -2.66806880050288       -0.06759790165853
H            3.62467589768765        1.71068328901433        1.05023178077825
H            3.83152089688250        1.68992363923828       -0.70668303954096
H            2.26078667313261        2.18558870652192        0.02787564950285
H            3.60341796213339       -1.92500981433718        0.05334395108419
H           -1.17266249859998        2.88097523233169       -0.02978436119434
H           -2.62077457441770        2.20966764728648       -0.93117301074660
H           -2.61486784935887        2.19927908079451        0.86450362629766
H           -1.36989629234179       -3.26147390813760        0.82628663100524
H           -1.33586964870753       -3.24890847344102       -0.96077223445144
H           -2.66638304835309       -2.44039355776435       -0.08635894067606
H            1.25645985587815       -3.02752676063959        0.00857246609539
25
 energy: 21.088527358241 xtb: 6.6.1 (8d0f1dd)
C            3.00041893326944        1.45476621429099        0.11083838009049
N            2.36443612172684        0.08648596859933        0.04267016195061
C            2.68428786247087       -1.34179409150533        0.04217323270968
N            1.47049515363091       -2.06493498050128        0.01131546851125
C            0.43394868895531       -1.21289607760539       -0.01839091144375
C            0.97746557221505        0.06881483272946       -0.00591082429567
C            0.18960051365997        1.22694281064945       -0.06670011670517
O            0.59601934504022        2.40875164628295       -0.09542351134729
N           -1.18901908750929        0.94265540936227       -0.05657648904145
C           -1.93704482978639        2.16730190588241       -0.02787947062916
C           -1.78142112550363       -0.27661977562178       -0.05345235924798
O           -2.98829115753640       -0.42114564361097       -0.05871039642907
N           -0.93621352294159       -1.42215270602855       -0.05101345325646
C           -1.62323322473907       -2.70480361497911       -0.07253569073465
H            3.47762925966630        1.75863243649431        1.04577191644885
H            3.67536333204966        1.68488792253550       -0.68461688923809
H            2.21674783307986        2.17649885132396        0.00285570662524
H            3.62825373531211       -1.84166052201460        0.05260962744803
H           -1.17540157858241        2.92225316928388       -0.02377105675925
H           -2.53872727883430        2.27157200265230       -0.91721099314906
H           -2.51622309026701        2.24388023302676        0.87878564578185
H           -1.42496099004733       -3.30358810601853        0.81874094814387
H           -1.38907751870959       -3.29155713131832       -0.96307956807412
H           -2.68949212338032       -2.46835654068709       -0.09175120559801
H            1.38665384469696       -3.07490561105055        0.00829574438659
25
 energy: 31.646844962677 xtb: 6.6.1 (8d0f1dd)
C            2.97739983851780        1.49052226602301        0.12125394467019
N            2.38733862112361        0.08294015205647        0.04969461877511
C            2.70370554447220       -1.35255892780981        0.05158730532975
N            1.49294982411756       -2.08272699854838        0.01650625283283
C            0.44701757777187       -1.24063445085691       -0.02106144818325
C            0.99472411152458        0.04472602845348       -0.01245001482308
C            0.19441816507788        1.19005682863834       -0.09181035007850
O            0.57087977338017        2.38402634554467       -0.14335974927873
N           -1.17666611749131        0.91743446353242       -0.06729551553103
C           -1.88980765833055        2.16865149255251       -0.01978193222769
C           -1.77046789633857       -0.29578389825509       -0.05598039838666
O           -2.97882614341700       -0.43090474811431       -0.05192462009060
N           -0.92892355584741       -1.44651217762237       -0.05650755025283
C           -1.65987882952982       -2.71320691425584       -0.07740659007042
H            3.43946186574618        1.84911723413663        1.05156600176912
H            3.62173547566688        1.82257032349939       -0.70326073592358
H            2.12037169669694        2.16497450790100        0.03563192838306
H            3.63896068073659       -1.87034525556718        0.06022919468907
H           -1.07854866545352        2.89314284475778       -0.02571615250598
H           -2.49742722045235        2.31074217714165       -0.90273277777443
H           -2.44273319604073        2.27480927165343        0.90461473613477
H           -1.49516039723553       -3.32516353436802        0.81469160666861
H           -1.45564819340199       -3.31594541368907       -0.96726049526793
H           -2.72181454620352       -2.43555089681914       -0.09832434806485
H            1.41915391284614       -3.09535211781261        0.01613098535434
25
 energy: 44.178049501285 xtb: 6.6.1 (8d0f1dd)
C            2.96594711054781        1.51678799454878        0.14148747698848
N            2.41717647512852        0.07562480350397        0.06205620376527
C            2.72059086834024       -1.34478787454208        0.07139123949970
N            1.53230578537027       -2.09107289091071        0.02621954536239
C            0.46343062569253       -1.26545666391986       -0.02661467907367
C            1.01951798183463        0.02391203314160       -0.03011426125713
C            0.19829559783273        1.14663390078280       -0.14732798961301
O            0.54282474506914        2.34803638516098       -0.25831857631255
N           -1.15996419283301        0.89282538276108       -0.08485700511581
C           -1.85323563762887        2.16628004527470       -0.00147356073853
C           -1.75675553600447       -0.31906827247014       -0.05715861983366
O           -2.96479327954893       -0.44101037750510       -0.03358375303747
N           -0.91301602864848       -1.47418059696280       -0.06682221962545
C           -1.70329244089662       -2.71875933903889       -0.08749566970166
H            3.41328645269239        1.92273356887799        1.05990629788037
H            3.54939415931637        1.96671347344778       -0.71472131484311
H            2.03618395140474        2.13217683680858        0.09559967980601
H            3.64446076628460       -1.88664945273375        0.07640209587561
H           -0.99846499049476        2.86534300639831       -0.02954284246876
H           -2.47671406530760        2.34978466188058       -0.86796145222199
H           -2.35968411830496        2.29538861799008        0.95144455961053
H           -1.58953103735400       -3.34446981843641        0.80603446024620
H           -1.54447173573343       -3.33913600722825       -0.97687117232686
H           -2.75567473632749       -2.38223708002197       -0.11097439737617
H            1.48439794750475       -3.10638373463518        0.03032985065858
25
 energy: 53.296764374994 xtb: 6.6.1 (8d0f1dd)
C            2.91700595459737        1.54600394632173        0.16281109935981
N            2.41462879403540        0.07106428223070        0.07188098249920
C            2.73419682076828       -1.32637517401459        0.09370510867136
N            1.56703946442477       -2.09957529666971        0.03615741585683
C            0.47246046115300       -1.29689899186182       -0.03217890882322
C            1.02031235232211       -0.00272361782941       -0.05430028430981
C            0.22053010449746        1.10996227616727       -0.22314850735697
O            0.59413066669997        2.30073519393228       -0.41135290834020
N           -1.13835949567360        0.88122067409070       -0.09860016426787
C           -1.81563803088194        2.17166239976673        0.02773900569253
C           -1.74235046676430       -0.33050768289346       -0.05227187920778
O           -2.95210775095683       -0.43611863853780       -0.00447554720400
N           -0.90840170931999       -1.50214476894019       -0.07739773908752
C           -1.73926167769008       -2.72981914044809       -0.10172662318201
H            3.35619441639551        1.97667584964975        1.07566267151757
H            3.46504670097520        2.02998525497666       -0.68894022214722
H            1.96289707278440        2.12569368145102        0.12562424362608
H            3.66439509398076       -1.85510656167259        0.09632988971764
H           -0.94897831996457        2.86191740008763       -0.01639336300978
H           -2.45717205494333        2.38808037381332       -0.82006521740158
H           -2.28078458417823        2.30402632499748        1.00236321312763
H           -1.66150279342745       -3.36512080376956        0.79034948898043
H           -1.61118237535665       -3.35943258709652       -0.99021271036543
H           -2.78137344564917       -2.35690515606025       -0.12764997929208
H            1.56048947010796       -3.11727063551914        0.04312483109368
25
 energy: 52.852172581969 xtb: 6.6.1 (8d0f1dd)
C            2.91725610023861        1.54472265625918        0.20837009861425
N            2.42968908270861        0.06240882685709        0.08456639257439
C            2.73952169997134       -1.29087978775379        0.13088580073706
N            1.60441877938734       -2.08201638689862        0.05418107121745
C            0.48320725519747       -1.30365763622833       -0.04164950946842
C            1.03062076968027       -0.00356017003439       -0.09876728942582
C            0.23337478730071        1.08296714238633       -0.35950596152536
O            0.59841397188433        2.26232419218135       -0.69837226078095
N           -1.12874790775421        0.86957763061884       -0.11664281681416
C           -1.81419556937783        2.15974823423728        0.07474172110513
C           -1.73262312534399       -0.34316258963913       -0.04131157160529
O           -2.94146172331954       -0.43689240789591        0.04762605705778
N           -0.89607697742109       -1.51907571111255       -0.09380182286870
C           -1.76894062084996       -2.72502526814194       -0.12296868444596
H            3.37676244847718        1.96393839775139        1.10290684153985
H            3.39871001640134        2.08337612618666       -0.65565641086538
H            1.95187269851566        2.09793179293900        0.22116646526393
H            3.66410657693521       -1.83325519805574        0.12382161509586
H           -0.94390978735663        2.85538552984720       -0.00191688628362
H           -2.49096599714568        2.39831905586543       -0.73942990577765
H           -2.22325219003667        2.26835911950771        1.07706966456426
H           -1.73785296851131       -3.36256369668345        0.76812146637299
H           -1.68111048026974       -3.35725108098197       -1.01137267307228
H           -2.79371197427910       -2.30413259104921       -0.15076604258261
H            1.63710980290366       -3.09855757799027        0.06573853752055
25
 energy: 44.868873060889 xtb: 6.6.1 (8d0f1dd)
C            2.89349230552325        1.53425220770069        0.24725052530444
N            2.40823743519613        0.06448864006105        0.08370300510461
C            2.73209013015226       -1.25194300592861        0.16723340589949
N            1.61557078478405       -2.05752246588616        0.07483417267035
C            0.48070565182303       -1.29934173520999       -0.05274597083168
C            1.01130100047237        0.00860255346666       -0.14747737097700
C            0.23339036118550        1.08317589796226       -0.50781779164495
O            0.59301083332616        2.23048893569569       -0.93999117050108
N           -1.13063707374682        0.86924431078881       -0.12826732298329
C           -1.80097704924152        2.15526301864056        0.11981151253860
C           -1.73158129132012       -0.34065145948461       -0.03185729549946
O           -2.93842908300840       -0.42778414962908        0.10463305180120
N           -0.89980239821855       -1.52418602794164       -0.10885333160780
C           -1.76820564197829       -2.72099282898972       -0.14149689495865
H            3.40514337072489        1.89194730781204        1.12683594987817
H            3.33569581615715        2.02725076686500       -0.59851602030702
H            1.97857752932122        2.09533471848335        0.29086712803397
H            3.66776753068499       -1.77905050379450        0.14280053096739
H           -0.94778617627240        2.86197397771489        0.02083971355892
H           -2.51285350877702        2.39982290332227       -0.65827690886478
H           -2.18408994182007        2.21893087727704        1.12595139491296
H           -1.74606714895751       -3.34404864427678        0.74625411451677
H           -1.68577608359243       -3.33864197716986       -1.02823999981328
H           -2.77623069915065       -2.29836612189152       -0.16775572468061
H            1.67966801466874       -3.06921859341566        0.08731519363004
25
 energy: 37.005510176657 xtb: 6.6.1 (8d0f1dd)
C            2.86999677362486        1.52034093506821        0.27835547106724
N            2.38959334826830        0.07378885640408        0.06822577092061
C            2.73117852664962       -1.23662922908952        0.20871716257346
N            1.61167987015912       -2.04107180276921        0.10649533246518
C            0.48262256299306       -1.29174918502249       -0.06898716720313
C            0.99594423774052        0.02137226671269       -0.19863933525185
C            0.23440559268150        1.08819166731130       -0.65694981770540
O            0.58141453424287        2.19311999653323       -1.12127422919135
N           -1.12921196059370        0.87626119062837       -0.16345308575179
C           -1.77774439044596        2.14566021831838        0.14918141258349
C           -1.72312632463997       -0.32660414913792       -0.03453237360790
O           -2.92582948238280       -0.41804564015404        0.15929956128852
N           -0.90225016332958       -1.51684017871007       -0.12528582619679
C           -1.76120231346822       -2.70678023118888       -0.15603448281213
H            3.46418292928168        1.79507745055078        1.14065455639325
H            3.27105137768929        2.02172734378491       -0.59257659298491
H            1.95255964035829        2.08223419140231        0.40733834211421
H            3.67935938301811       -1.74374364272699        0.16972357039488
H           -0.96802117494098        2.86383317340486        0.03645730458721
H           -2.54059958852142        2.39506710662886       -0.58070379770167
H           -2.13308553334550        2.15835402903857        1.16673149284520
H           -1.74344487530365       -3.32148755648820        0.73285138360892
H           -1.67567722496124       -3.31893748843571       -1.04190182367301
H           -2.76001588901612       -2.27658747871623       -0.18309225788000
H            1.68843481217780       -3.04752324117507        0.12643332526506
25