25
 energy: 0.000000000000 xtb: 6.6.1 (8d0f1dd)
C            3.23720132972391        1.16630909158653        0.08434468864950
N            2.29877796055224        0.07527476373246        0.03981602671198
C            2.58028186251803       -1.21425391179017        0.03006175752192
N            1.43813944744728       -1.93419254010258        0.00098261751768
C            0.39035684826767       -1.05887462812143       -0.00790371763344
C            0.93510047688824        0.21347817468824        0.01709077332874
C            0.09450143016486        1.40504290868848       -0.00410946993748
O            0.49712746915594        2.54126690785742       -0.00342325656480
N           -1.25076628431515        1.06271869620815       -0.03085477937476
C           -2.21907191394203        2.15522079838987       -0.05001256521996
C           -1.81739470187490       -0.20012724136556       -0.04692818139228
O           -2.99983858926755       -0.37846413507442       -0.07008877579474
N           -0.92618577614240       -1.30210203518959       -0.03682761236648
C           -1.46982251276835       -2.64643077634382       -0.06029819901142
H            3.71247229913541        1.21471443890471        1.06488839270555
H            4.00791460421487        1.03430799217987       -0.67357688121503
H            2.69909982127087        2.09770098766290       -0.09130154035862
H            3.56654087521359       -1.63682977417947        0.04233139674524
H           -1.67107945562430        3.09322822573871       -0.02552706696334
H           -2.82428927394145        2.09428605349656       -0.95318074103337
H           -2.87644002486466        2.07745706351925        0.81450059976605
H           -1.17061985538665       -3.19584861009707        0.83242224714061
H           -1.14560246782873       -3.17511580834413       -0.95688266944647
H           -2.55549768731684       -2.55659960601237       -0.07459039105944
H            1.38130842369251       -2.94313824728853       -0.01389874052104
25
 energy: -4.660731838482 xtb: 6.6.1 (8d0f1dd)
C            3.20703670064435        1.25841964679349        0.09401706230938
N            2.34446561808660        0.09854810797962        0.03179313948456
C            2.62111352501787       -1.26699982131456        0.03421027994364
N            1.42110837826129       -1.96294692474443        0.00390015478221
C            0.40736276265233       -1.08545202199943       -0.01247828847122
C            0.95024519389547        0.18716505973916        0.00405723605417
C            0.14042724934113        1.32908083862664       -0.02571701210068
O            0.53842670767384        2.49351656961726       -0.07054760005990
N           -1.25618574766703        1.01873269568228       -0.03167697691359
C           -2.17959388336100        2.13626286888412       -0.04564591743073
C           -1.82207189828042       -0.21772795587991       -0.04834916323895
O           -3.02315995818168       -0.40408214823396       -0.06893367739431
N           -0.93986219621098       -1.31541983064392       -0.04058218270713
C           -1.50266072484548       -2.64321787314912       -0.06243586859604
H            3.71831283238418        1.36373774842455        1.06079839894322
H            3.98693557672642        1.21710597594354       -0.67839482513381
H            2.57075895737818        2.13618287684449       -0.05018150582481
H            3.58422140876414       -1.71599515367453        0.04539400297540
H           -1.60974551063910        3.05969533300912       -0.02651565303268
H           -2.77695851899111        2.11012792803745       -0.95119765484593
H           -2.81338483034296        2.09953845652786        0.83448370836394
H           -1.22188608415580       -3.20413010100681        0.83097306508624
H           -1.19670240549073       -3.18630736782949       -0.95869694390222
H           -2.58443246420634       -2.52211651375307       -0.07703735538522
H            1.31550033197847       -2.96231084935814       -0.00853100719268
25
 energy: 0.930602542961 xtb: 6.6.1 (8d0f1dd)
C            3.14513058836807        1.32776716139951        0.10040591001894
N            2.38271803441829        0.07242019456890        0.04288848158908
C            2.64692625870745       -1.30848910281653        0.03988311710259
N            1.43991059585112       -2.00868916932525        0.00951099152247
C            0.42531163683214       -1.12945702564704       -0.01101858474576
C            0.98101387218239        0.13585839364814        0.00005546949154
C            0.17009092179371        1.26979749309960       -0.06378610541324
O            0.55456085818208        2.42992494473557       -0.20257484376120
N           -1.23388939821505        0.98557808669841       -0.03501645456989
C           -2.13111137757367        2.12580010529872       -0.04344296316822
C           -1.80454366019898       -0.24312568002115       -0.04816654609844
O           -3.00374015480039       -0.42809099134622       -0.06126781254659
N           -0.92753336839955       -1.34535826583390       -0.04292207889505
C           -1.53235340094230       -2.65475304488864       -0.06331365482647
H            3.66935721391447        1.50513067219223        1.05245086991155
H            3.92336349997042        1.38663527099948       -0.68250787500888
H            2.42394868851310        2.14267169508895       -0.01894034170167
H            3.59296714495508       -1.79171576631667        0.04601274722939
H           -1.54772060276944        3.03672644304753       -0.02952863393321
H           -2.72523098822790        2.13074394864677       -0.94750141657066
H           -2.74501872445366        2.12254533945439        0.84805482514438
H           -1.27553532796965       -3.22361886274229        0.83137952233100
H           -1.25085969329709       -3.20853142228945       -0.95994651416099
H           -2.60894082052851       -2.49223178529610       -0.07741430040521
H            1.30785376733580       -3.01042883940541        0.00419978973206
25
 energy: 9.491411065418 xtb: 6.6.1 (8d0f1dd)
C            3.08127830459134        1.40339658760853        0.11004061949189
N            2.42169371441420        0.06494686437858        0.06348127837057
C            2.68245233429662       -1.33285716639646        0.05154656073776
N            1.47437295102721       -2.03926995964765        0.01763590627257
C            0.44767391387043       -1.16833810536212       -0.00923206122321
C            1.01319932530438        0.09515971891213       -0.00493878014049
C            0.19556661180276        1.22179361515102       -0.12370169877832
O            0.56879096680651        2.37423070616332       -0.35880526934374
N           -1.20335785063649        0.96089264475724       -0.04226004333130
C           -2.08017184671907        2.12012048554290       -0.04001440540112
C           -1.77943208591806       -0.26150396651258       -0.04867169711873
O           -2.97887760115505       -0.42439515329652       -0.04897900006187
N           -0.91330121495834       -1.37382467085910       -0.04659988958867
C           -1.56108825401762       -2.66572759575011       -0.06575448397379
H            3.60793425708887        1.64629183272282        1.04589027624708
H            3.83800480587145        1.54833810606441       -0.69063402918560
H            2.28530510962542        2.15017407544811        0.01425838856934
H            3.60714756523718       -1.85858595140021        0.05007953064029
H           -1.48370765729552        3.01807584353496       -0.03202616766143
H           -2.67296909471704        2.15385547496682       -0.94034498163699
H           -2.67175634074498        2.14361886192380        0.86378627587748
H           -1.32812566700454       -3.24322475313293        0.82970283905524
H           -1.30271771227770       -3.23095182791843       -0.96165736563754
H           -2.63208686530685       -2.46437377716121       -0.08021020005936
H            1.36835355116651       -3.04674018944438        0.01479923767365
25
 energy: 20.209839209077 xtb: 6.6.1 (8d0f1dd)
C            3.02464030378299        1.48194142161378        0.13153425000725
N            2.42757142640386        0.06488702101589        0.04652514609111
C            2.71143254036604       -1.33952767394657        0.07951481611843
N            1.50830244129513       -2.06338369937158        0.03076411154153
C            0.46413992566767       -1.20608908001453       -0.01453744618046
C            1.03051898361026        0.05935964024355       -0.03620958517673
C            0.21483680563438        1.18069037137742       -0.20107083358393
O            0.57232232544745        2.32184782187316       -0.52548409057608
N           -1.17451539737483        0.93899718582963       -0.05203228582887
C           -2.03003678254034        2.11637192706606       -0.03358243742864
C           -1.75889268989735       -0.27682798874597       -0.04401706116188
O           -2.96064902772030       -0.41319896244140       -0.01234021932976
N           -0.90346727039629       -1.40173647635558       -0.05138960194306
C           -1.59175517049218       -2.67600694710860       -0.06928423257322
H            3.53672171432814        1.76988371439502        1.04770578686948
H            3.74367614855564        1.70491197825366       -0.68827346694021
H            2.16428445339719        2.15889692780326        0.07813310195312
H            3.61584409519160       -1.90920430150907        0.06245031481081
H           -1.42005156079548        3.00168099115764       -0.03467006135195
H           -2.62352183142960        2.17571827206374       -0.92731531976056
H           -2.59654053434020        2.16255974216602        0.88329147280136
H           -1.38231973873918       -3.26198752434225        0.82662410320429
H           -1.35469008415920       -3.25135433399916       -0.96447198890965
H           -2.65620254085128       -2.43664116997727       -0.08473465767316
H            1.43253408325042       -3.07660928643198        0.03876304388375
25
 energy: 32.527665934726 xtb: 6.6.1 (8d0f1dd)
C            2.97810802862613        1.55694191752813        0.19392424414271
N            2.43088048100284        0.06603515258302        0.01425046467660
C            2.72988002359429       -1.33742462783529        0.14117091689351
N            1.53812911503541       -2.08212352135703        0.05681311214241
C            0.47885643341664       -1.23823716133333       -0.02427992801588
C            1.04087650437414        0.02979706501363       -0.08692347409534
C            0.23168691213781        1.14972381665576       -0.29347746321658
O            0.58978169371096        2.26875712954691       -0.68981120793283
N           -1.14339089629010        0.92690298033020       -0.06611930078104
C           -1.98088586651883        2.11467233384961       -0.02393849018823
C           -1.73827256961924       -0.28676859175614       -0.03926040705990
O           -2.94212203296245       -0.40055284632242        0.03280128242238
N           -0.89439896397013       -1.42537471044012       -0.05785820479754
C           -1.62048226870534       -2.68439598604958       -0.07341240419336
H            3.53251758457042        1.91092756052600        1.05825038228123
H            3.60602565921697        1.82535388874680       -0.68129720232398
H            2.07311052805903        2.16871334704730        0.19667895064639
H            3.61748505221754       -1.94289289328979        0.09941477510940
H           -1.36099953741011        2.98946551520173       -0.03771057196248
H           -2.58317479082240        2.19056720220460       -0.90288164185127
H           -2.51842522959028        2.17083732904405        0.90761359935068
H           -1.43118739834880       -3.27745146904289        0.82252893280934
H           -1.40616275150107       -3.26989244790342       -0.96768039053018
H           -2.67804877672490       -2.40970030162661       -0.08698846824245
H            1.49870034856879       -3.09854992335465        0.06317555694886
25
 energy: 49.197215371824 xtb: 6.6.1 (8d0f1dd)
C            2.96193025682152        1.70965255592676        0.27847778915018
N            2.41591539067180       -0.00289592020134       -0.08923489246888
C            2.70235078028700       -1.33076549386615        0.16651243430723
N            1.53816476163766       -2.10764115749062        0.12277869236026
C            0.47460002116440       -1.27397616898100       -0.02957813211454
C            1.03676089112057       -0.00967461923048       -0.15545457255914
C            0.24416549713739        1.12384469037479       -0.39581173740895
O            0.61413873108138        2.20431192407013       -0.84864273997267
N           -1.11579204336408        0.91166261375922       -0.08541034249605
C           -1.93547456925379        2.11117610440191       -0.00716333958876
C           -1.72407799360440       -0.30158273204374       -0.03462749383147
O           -2.92746970000048       -0.38931477042371        0.08027003115474
N           -0.89937145240300       -1.45177250728426       -0.06234213009146
C           -1.65592983957943       -2.69482202635524       -0.07852646967320
H            3.59980913333477        2.05880855955670        1.07453392350669
H            3.49491263949465        1.98234353588827       -0.66533461334884
H            2.02072163694385        2.20234113190729        0.36745718868342
H            3.62647176349965       -1.87658244515366        0.13832192128876
H           -1.30549681581402        2.97574992144146       -0.04565807622643
H           -2.58291503411886        2.19560358057296       -0.84599381719044
H           -2.43269127975659        2.17876189877640        0.94621479923734
H           -1.48588567305848       -3.29567240936876        0.81603424313457
H           -1.45842394124494       -3.28550007839841       -0.97315013585644
H           -2.70525793501704       -2.38720494436524       -0.09371008853263
H            1.55585917459240       -3.12158076399099        0.11843685191523
25
 energy: 47.648025262351 xtb: 6.6.1 (8d0f1dd)
C            2.95626389799418        1.86948328427306        0.35266870216909
N            2.38911289442051       -0.08738330999065       -0.14554660438283
C            2.66112967332842       -1.35216336952461        0.13895055520003
N            1.51653183019935       -2.13661164151379        0.16099695079582
C            0.45846876651838       -1.30519258835432       -0.03996237922878
C            1.02841203166398       -0.05209045995254       -0.21865408126165
C            0.25577574477203        1.10028678832367       -0.48851985549204
O            0.63667533556317        2.13543509560877       -0.99705313817895
N           -1.08709975706905        0.89885729463871       -0.10728369003271
C           -1.89237186415488        2.10871009143225        0.00742090331702
C           -1.71095004767322       -0.31372611190722       -0.02701152500638
O           -2.91240420005467       -0.37762015365890        0.12485317298209
N           -0.91002262223185       -1.47609416620795       -0.06821635674790
C           -1.69416486183759       -2.70171206502710       -0.08279387041354
H            3.71401106755197        2.03190077616037        1.08572081821498
H            3.37908039860267        2.14587054585008       -0.64245860412050
H            1.98799678132291        2.24017762633960        0.55058230011078
H            3.62552172260461       -1.82734465778827        0.16082776678969
H           -1.25209306328391        2.96254083545991       -0.05522744101191
H           -2.59488748716898        2.19725204702314       -0.78415158837180
H           -2.34629103504121        2.17664933667198        0.98485844972494
H           -1.54041872001414       -3.30769243005904        0.81163617974782
H           -1.51377169139367       -3.29961456735381       -0.97637856214402
H           -2.73333663381382       -2.36169637699087       -0.09737783037447
H            1.55302580584523       -3.14323139321430        0.19026259020831
25
 energy: 44.929808012488 xtb: 6.6.1 (8d0f1dd)
C            2.93542558688911        1.97707950361829        0.41791096924723
N            2.37349547750250       -0.12398116772489       -0.20724848932479
C            2.63744333764547       -1.36757425080891        0.09782182273223
N            1.49740290727403       -2.14901588042222        0.18611445634127
C            0.44453523805240       -1.32665682085975       -0.05966499738746
C            1.01882260318715       -0.08109297696372       -0.28550199394719
C            0.26067601147804        1.07687510339551       -0.57807793937072
O            0.64762292839028        2.07627803727820       -1.13985828958507
N           -1.06731693473981        0.88558465852734       -0.13418914908594
C           -1.85521024661467        2.10251682228304        0.02389167443390
C           -1.70117902821349       -0.32237933385458       -0.01490064718805
O           -2.89800709312754       -0.36921356292146        0.17520115048199
N           -0.92075063406141       -1.49688928676133       -0.07746756109258
C           -1.73056774413986       -2.70616313947859       -0.08814808919608
H            3.75426752432086        1.93782816966467        1.09533445451563
H            3.25962397072613        2.26993575922716       -0.59830909968465
H            1.96473968397709        2.24825776626273        0.71264531751061
H            3.61627153121960       -1.79153576333892        0.19011577555474
H           -1.20578347664211        2.94740651528067       -0.06179990562497
H           -2.60614566160258        2.20707694549686       -0.71911929777457
H           -2.26589591195144        2.16712710661609        1.02527872308950
H           -1.59530831299245       -3.31631381365532        0.80729608949988
H           -1.56927812588654       -3.31195253573150       -0.97992823452153
H           -2.75898907035641       -2.33409309190513       -0.10209114921808
H            1.52716163116121       -3.15052476414804        0.26371493390458
25
 energy: 43.902494566198 xtb: 6.6.1 (8d0f1dd)
C            2.89258400308489        2.10487116546386        0.48372853163008
N            2.37152655157588       -0.17095116738098       -0.26049715777675
C            2.61487936596487       -1.40563774201264        0.06537221147861
N            1.46360781786004       -2.16495359627148        0.19182084163633
C            0.42597249371222       -1.33396722871636       -0.08714443230153
C            1.02007979968012       -0.10318190212479       -0.34973936962275
C            0.26575431987353        1.05938560044295       -0.66880200562541
O            0.64250467299588        2.02602048225928       -1.28876175427222
N           -1.04960276543903        0.88114241679001       -0.17219465654111
C           -1.81830123008867        2.09846558022356        0.04141153842029
C           -1.69586760966099       -0.31467468771256       -0.01376095361523
O           -2.88471521720254       -0.34851456836306        0.22157972665077
N           -0.93781837317572       -1.50623909236325       -0.09482333618950
C           -1.76665035286181       -2.70551832856864       -0.09754657630810
H            3.75722001437270        2.10635247965623        1.09791503162925
H            3.09797386693744        2.30594111609365       -0.56282925927071
H            1.93037424645430        2.24017368070566        0.86691098857196
H            3.57752321195416       -1.85046189024518        0.21366152292289
H           -1.15927230821570        2.93380634089726       -0.06510145224154
H           -2.61402610125998        2.22234818314699       -0.65189331296118
H           -2.18645941605502        2.15025283055192        1.06520178265029
H           -1.64868418570810       -3.32098909385405        0.79856458556167
H           -1.62340581274647       -3.32028921774095       -0.98642824373730
H           -2.78615425152130       -2.30847304849367       -0.11138980827147
H            1.47143052764127       -3.15941133381248        0.32729611675986
25
 energy: 42.574381715436 xtb: 6.6.1 (8d0f1dd)
C            2.87716231328186        2.23911637564940        0.53074146881350
N            2.38448299734799       -0.22400345509028       -0.30365286073000
C            2.59728479887476       -1.45868091237099        0.03589304610431
N            1.43080784249862       -2.19251525981592        0.16320994479696
C            0.41302638366779       -1.33903819047728       -0.12296226197410
C            1.03057258534871       -0.12450411312519       -0.40893331960020
C            0.25892553332410        1.03167932387197       -0.74742798003730
O            0.59627944965923        1.97243585540975       -1.41589894722286
N           -1.04051318148454        0.87941836931524       -0.20311157089290
C           -1.78526633501194        2.09657984216917        0.06323815673641
C           -1.69134842136732       -0.30423101501418       -0.01084994773127
O           -2.87089350065345       -0.32657156601906        0.26443006703167
N           -0.95271586697871       -1.50600749984930       -0.11274967392843
C           -1.80018451479932       -2.70045023818605       -0.10956054855991
H            3.77243326022612        2.28127835125306        1.09934334454125
H            2.95258552006594        2.32756891323291       -0.53390480673363
H            1.94599686851551        2.19817855344073        1.00754247042610
H            3.54324469204043       -1.92028118998080        0.23772784369764
H           -1.11743472858435        2.92492829405712       -0.07271343855224
H           -2.62057889553580        2.23702147826840       -0.58211580737400
H           -2.10815873190099        2.13391091743782        1.10587323179117
H           -1.70045373618534       -3.32226336915338        0.78719118898510
H           -1.67584769783694       -3.32475529953892       -0.99456025492385
H           -2.81213694096584       -2.28228573794659       -0.12427596250146
H            1.40640764590908       -3.17912312467335        0.34741013705046
25
 energy: 42.417467839291 xtb: 6.6.1 (8d0f1dd)
C            2.86887672230037        2.36750803189629        0.59655657296880
N            2.39744463071169       -0.28154251782199       -0.35179135485236
C            2.58030101157517       -1.51643909051890        0.00891138571469
N            1.39756614223738       -2.22274599462641        0.13504545998101
C            0.40144595909595       -1.34836045473678       -0.15820309396202
C            1.04054712575702       -0.14803511869743       -0.46845726041783
C            0.24482503009283        1.00445693724727       -0.82033189074728
O            0.53207228242582        1.91133844126079       -1.55740899861715
N           -1.03370308822124        0.87949987419540       -0.23038091949707
C           -1.75624325818654        2.09599338313489        0.08668849812840
C           -1.68880724747438       -0.29294685921998       -0.00096771023732
O           -2.86028555812019       -0.30054016410935        0.30870555116704
N           -0.96518598876801       -1.49818102742872       -0.12260740331486
C           -1.82612523582721       -2.69321986080261       -0.13000513172025
H            3.79274376866626        2.43446007807364        1.12707007172989
H            2.87581875226642        2.43918026529531       -0.46194773957363
H            1.94876779288835        2.19218301652463        1.11854424233225
H            3.50999055406303       -1.99430013418892        0.25384093395452
H           -1.07901116229880        2.91311685973496       -0.07844273809716
H           -2.63013110489271        2.24943729477292       -0.51014051870193
H           -2.03231144079873        2.10811792175205        1.14280070692195
H           -1.75252253885605       -3.31982688250054        0.76985564413807
H           -1.72379480986318       -3.32626782227688       -1.00980145770728
H           -2.82959183880924       -2.25913761465801       -0.15550261237809
H            1.32384081075382       -3.19883853800317        0.35891041528091
25
 energy: 42.274141337599 xtb: 6.6.1 (8d0f1dd)
C            2.89485110987745        2.48030876058506        0.62089131181867
N            2.41142240259254       -0.34208947359645       -0.39435147309638
C            2.56651947693231       -1.57425506345518       -0.00806825800081
N            1.37033756816106       -2.26022998176831        0.11860988975427
C            0.39575577996800       -1.36738718432776       -0.19409402779803
C            1.05315677787631       -0.18637873317190       -0.53164528704841
C            0.26253352739825        0.97676311567146       -0.86363056318411
O            0.57792624362989        1.93451743372959       -1.51662817377041
N           -1.02441058327061        0.87846804791129       -0.26646330355507
C           -1.72302444290342        2.09569081546522        0.10586763440098
C           -1.68051826185106       -0.28138261602148        0.01429359080371
O           -2.84168861953936       -0.27427809199182        0.36064363399717
N           -0.96709216332832       -1.49041127750413       -0.12362828134190
C           -1.82521865335168       -2.68559227154858       -0.14804797490601
H            3.81443281331395        2.60028263699465        1.14649597239783
H            2.83561012190502        2.61562450962302       -0.41817993757270
H            1.96355717845821        2.29097612279308        1.13083818214010
H            3.48616719225066       -2.06439454456970        0.25324626585850
H           -1.03337986595030        2.89611982829301       -0.08470564061199
H           -2.62971627278174        2.27146177775883       -0.44310681691572
H           -1.95533963543792        2.08011596364229        1.17430189934027
H           -1.79333670921623       -3.32299463957993        0.74770800165464
H           -1.75240231251741       -3.31061610977237       -1.04032454981801
H           -2.82432009079760       -2.25373490239579       -0.17642800256374
H            1.25336638543982       -3.22643050330621        0.36441546426666
25
 energy: 41.463983645209 xtb: 6.6.1 (8d0f1dd)
C            2.96149838159080        2.60574561042044        0.59077679574204
N            2.41604092507981       -0.40243392707385       -0.40854302691046
C            2.54688849654534       -1.63541101406829       -0.02162797085533
N            1.34179217013301       -2.30566141915306        0.10034823255414
C            0.38427971698461       -1.39087523463246       -0.20127128902602
C            1.05945086486061       -0.22445732671290       -0.54432404927692
C            0.29411014484835        0.96091521256983       -0.83006861810554
O            0.64736813868712        1.95508887210076       -1.39835788258034
N           -1.01517852385322        0.87739080521839       -0.27889299396695
C           -1.68898278391644        2.09826627459220        0.12875829676099
C           -1.67579524954017       -0.27101098874488        0.03219909783583
O           -2.83255194311949       -0.25712865913320        0.39071874232405
N           -0.97484586741774       -1.48088227276638       -0.11261705147583
C           -1.81277336602081       -2.67768089723239       -0.15904024331875
H            3.84587465459078        2.76920044159078        1.15897820263391
H            2.88232646128657        2.78906455442887       -0.44230994147967
H            2.03045820019908        2.36906358136061        1.06130341613876
H            3.46556022065463       -2.13746335582220        0.21394960155888
H           -0.98912459476053        2.87989681371708       -0.09821334590816
H           -2.61930300073392        2.29096834144866       -0.38081031003979
H           -1.87784874505088        2.07056774230122        1.20847991918440
H           -1.80371244918860       -3.32365287649477        0.72531440034451
H           -1.70939746223227       -3.29065305286784       -1.05670743282476
H           -2.82086043992626       -2.27707498597539       -0.18350846771534
H            1.20679795027252       -3.27419109040729        0.33509468319004
25
 energy: 39.753318017423 xtb: 6.6.1 (8d0f1dd)
C            3.03943834002720        2.72833491742277        0.56037808253445
N            2.40244195733167       -0.45725630999438       -0.39741360462482
C            2.52387140180119       -1.69658039825082       -0.03575959321347
N            1.31145919603374       -2.35332384344314        0.07967713101069
C            0.36669616648212       -1.41802830989294       -0.19256551400998
C            1.05230687306659       -0.25511766709866       -0.50242209547545
C            0.31635482054822        0.95134218276107       -0.74901791976905
O            0.70644933833271        1.96525075716541       -1.25421957733185
N           -1.00108283602069        0.87015232951279       -0.24861030900521
C           -1.64483453916836        2.10929049246192        0.14391828257192
C           -1.68650545039396       -0.27484278225419        0.02820042505993
O           -2.85377868296308       -0.26702492194323        0.35089395143072
N           -0.98853765342345       -1.48196459566149       -0.11063967951558
C           -1.79685912390385       -2.67976136527413       -0.16396942028096
H            3.87467208373319        2.94482628566406        1.17812079466549
H            2.98274629337451        2.92944242333585       -0.47147426950667
H            2.10452006509878        2.44284278865368        0.97752011802437
H            3.44229341754648       -2.20961884853825        0.16889655456917
H           -0.92977023056260        2.87405083627085       -0.09844856912908
H           -2.56850862990470        2.32591008155517       -0.36261547270470
H           -1.79727170992983        2.09263291754571        1.22006872123088
H           -1.75080916439630       -3.32057924060720        0.71807204571402
H           -1.66410572357622       -3.27595412593184       -1.06921163345278
H           -2.81941084887125       -2.31737338102227       -0.18627655205666
H            1.16456161687925       -3.32551778506202        0.28877938250662
25