      -----------------------------------------------------------      
     |                   =====================                   |     
     |                           x T B                           |     
     |                   =====================                   |     
     |                         S. Grimme                         |     
     |          Mulliken Center for Theoretical Chemistry        |     
     |                    University of Bonn                     |     
      -----------------------------------------------------------      

   * xtb version 6.6.1 (8d0f1dd) compiled by 'conda@1efc2f54142f' on 2023-08-01

   xtb is free software: you can redistribute it and/or modify it under
   the terms of the GNU Lesser General Public License as published by
   the Free Software Foundation, either version 3 of the License, or
   (at your option) any later version.
   
   xtb is distributed in the hope that it will be useful,
   but WITHOUT ANY WARRANTY; without even the implied warranty of
   MERCHANTABILITY or FITNESS FOR A PARTICULAR PURPOSE.  See the
   GNU Lesser General Public License for more details.
   
   Cite this work as:
   * C. Bannwarth, E. Caldeweyher, S. Ehlert, A. Hansen, P. Pracht,
     J. Seibert, S. Spicher, S. Grimme, WIREs Comput. Mol. Sci., 2020, 11,
     e01493. DOI: 10.1002/wcms.1493
   
   for GFN2-xTB:
   * C. Bannwarth, S. Ehlert and S. Grimme., J. Chem. Theory Comput., 2019,
     15, 1652-1671. DOI: 10.1021/acs.jctc.8b01176
   for GFN1-xTB:
   * S. Grimme, C. Bannwarth, P. Shushkov, J. Chem. Theory Comput., 2017,
     13, 1989-2009. DOI: 10.1021/acs.jctc.7b00118
   for GFN0-xTB:
   * P. Pracht, E. Caldeweyher, S. Ehlert, S. Grimme, ChemRxiv, 2019, preprint.
     DOI: 10.26434/chemrxiv.8326202.v1
   for GFN-FF:
   * S. Spicher and S. Grimme, Angew. Chem. Int. Ed., 2020, 59, 15665-15673.
     DOI: 10.1002/anie.202004239
   
   for ALPB and GBSA implicit solvation:
   * S. Ehlert, M. Stahn, S. Spicher, S. Grimme, J. Chem. Theory Comput.,
     2021, 17, 4250-4261. DOI: 10.1021/acs.jctc.1c00471
   
   for DFT-D4:
   * E. Caldeweyher, C. Bannwarth and S. Grimme, J. Chem. Phys., 2017,
     147, 034112. DOI: 10.1063/1.4993215
   * E. Caldeweyher, S. Ehlert, A. Hansen, H. Neugebauer, S. Spicher,
     C. Bannwarth and S. Grimme, J. Chem. Phys., 2019, 150, 154122.
     DOI: 10.1063/1.5090222
   * E. Caldeweyher, J.-M. Mewes, S. Ehlert and S. Grimme, Phys. Chem. Chem. Phys.
     2020, 22, 8499-8512. DOI: 10.1039/D0CP00502A
   
   for sTDA-xTB:
   * S. Grimme and C. Bannwarth, J. Chem. Phys., 2016, 145, 054103.
     DOI: 10.1063/1.4959605
   
   in the mass-spec context:
   * V. Asgeirsson, C. Bauer and S. Grimme, Chem. Sci., 2017, 8, 4879.
     DOI: 10.1039/c7sc00601b
   * J. Koopman and S. Grimme, ACS Omega 2019, 4, 12, 15120-15133.
     DOI: 10.1021/acsomega.9b02011
   
   for metadynamics refer to:
   * S. Grimme, J. Chem. Theory Comput., 2019, 155, 2847-2862
     DOI: 10.1021/acs.jctc.9b00143
   
   for SPH calculations refer to:
   * S. Spicher and S. Grimme, J. Chem. Theory Comput., 2021, 17, 1701-1714
     DOI: 10.1021/acs.jctc.0c01306
   
   with help from (in alphabetical order)
   P. Atkinson, C. Bannwarth, F. Bohle, G. Brandenburg, E. Caldeweyher
   M. Checinski, S. Dohm, S. Ehlert, S. Ehrlich, I. Gerasimov, C. Hölzer
   A. Katbashev, J. Koopman, C. Lavigne, S. Lehtola, F. März, M. Müller,
   F. Musil, H. Neugebauer, J. Pisarek, C. Plett, P. Pracht, F. Pultar,
   J. Seibert, P. Shushkov, S. Spicher, M. Stahn, M. Steiner, T. Strunk,
   J. Stückrath, T. Rose, and J. Unsleber
   
 * started run on 2024/04/06 at 11:15:07.239     

           -------------------------------------------------
          |                Calculation Setup                |
           -------------------------------------------------

          program call               : xtb xtbopt.xyz --opt crude --input .xc2 --gfn2
          hostname                   : n-62-30-23
          coordinate file            : xtbopt.xyz
          omp threads                :                     1

   ID    Z sym.   atoms
    1    7 N      1, 17
    2    6 C      2-6, 8, 9, 11-16, 18-23, 25, 26, 28-33
    3    8 O      7, 10, 24, 27
    4    1 H      34-72
########################################################################
[WARNING] Please study the warnings concerning your input carefully
-1- readin_getIntValue: could not parse ''
########################################################################

           -------------------------------------------------
          |                 G F N 2 - x T B                 |
           -------------------------------------------------

        Reference                      10.1021/acs.jctc.8b01176
      * Hamiltonian:
        H0-scaling (s, p, d)           1.850000    2.230000    2.230000
        zeta-weighting                 0.500000
      * Dispersion:
        s8                             2.700000
        a1                             0.520000
        a2                             5.000000
        s9                             5.000000
      * Repulsion:
        kExp                           1.500000    1.000000
        rExp                           1.000000
      * Coulomb:
        alpha                          2.000000
        third order                    shell-resolved
        anisotropic                    true
        a3                             3.000000
        a5                             4.000000
        cn-shift                       1.200000
        cn-exp                         4.000000
        max-rad                        5.000000

q/qsh data taken from xtbrestart
CAMM data taken from xtbrestart

          ...................................................
          :                      SETUP                      :
          :.................................................:
          :  # basis functions                 171          :
          :  # atomic orbitals                 171          :
          :  # shells                          105          :
          :  # electrons                       180          :
          :  max. iterations                   250          :
          :  Hamiltonian                  GFN2-xTB          :
          :  restarted?                       true          :
          :  GBSA solvation                  false          :
          :  PC potential                    false          :
          :  electronic temp.         5000.0000000     K    :
          :  accuracy                    1.0000000          :
          :  -> integral cutoff          0.2500000E+02      :
          :  -> integral neglect         0.1000000E-07      :
          :  -> SCF convergence          0.1000000E-05 Eh   :
          :  -> wf. convergence          0.1000000E-03 e    :
          :  Broyden damping             0.4000000          :
          ...................................................

 iter      E             dE          RMSdq      gap      omega  full diag
   1   -100.6817279 -0.100682E+03  0.102E-05    1.66       0.0  T
   2   -100.6817279  0.125198E-10  0.140E-05    1.66     840.2  T
   3   -100.6817279 -0.208615E-10  0.292E-06    1.66    4032.2  T

   *** convergence criteria satisfied after 3 iterations ***

         #    Occupation            Energy/Eh            Energy/eV
      -------------------------------------------------------------
         1        2.0000           -0.8085671             -22.0022
       ...           ...                  ...                  ...
        84        1.9952           -0.5121143             -13.9353
        85        1.9944           -0.5093775             -13.8609
        86        1.9812           -0.4901924             -13.3388
        87        1.9778           -0.4875999             -13.2683
        88        1.9385           -0.4711290             -12.8201
        89        1.8737           -0.4591843             -12.4950
        90        1.8418           -0.4553462             -12.3906 (HOMO)
        91        0.3932           -0.3941940             -10.7266 (LUMO)
        92        0.0154           -0.3395949              -9.2408
        93        0.0036           -0.3163447              -8.6082
        94        0.0033           -0.3152787              -8.5792
        95        0.0030           -0.3133644              -8.5271
       ...           ...                  ...                  ...
       171                          0.5753170              15.6552
      -------------------------------------------------------------
                  HL-Gap            0.0611522 Eh            1.6640 eV
             Fermi-level           -0.4164827 Eh          -11.3331 eV

 SCC (total)                   0 d,  0 h,  0 min,  0.122 sec
 SCC setup                      ...        0 min,  0.001 sec (  0.889%)
 Dispersion                     ...        0 min,  0.002 sec (  1.513%)
 classical contributions        ...        0 min,  0.000 sec (  0.404%)
 integral evaluation            ...        0 min,  0.018 sec ( 15.209%)
 iterations                     ...        0 min,  0.028 sec ( 23.015%)
 molecular gradient             ...        0 min,  0.071 sec ( 58.426%)
 printout                       ...        0 min,  0.001 sec (  0.529%)

         :::::::::::::::::::::::::::::::::::::::::::::::::::::
         ::                     SUMMARY                     ::
         :::::::::::::::::::::::::::::::::::::::::::::::::::::
         :: total energy             -99.337814429157 Eh    ::
         :: gradient norm              0.103672993385 Eh/a0 ::
         :: HOMO-LUMO gap              1.664035929292 eV    ::
         ::.................................................::
         :: SCC energy              -100.681727901228 Eh    ::
         :: -> isotropic ES            0.108100010078 Eh    ::
         :: -> anisotropic ES          0.005645237471 Eh    ::
         :: -> anisotropic XC          0.047208317008 Eh    ::
         :: -> dispersion             -0.074993436329 Eh    ::
         :: repulsion energy           1.342593739629 Eh    ::
         :: add. restraining           0.000000000000 Eh    ::
         :: total charge               1.000000000000 e     ::
         :::::::::::::::::::::::::::::::::::::::::::::::::::::

      ----------------------------------------------------------- 
     |                   =====================                   |
     |                        A N C O P T                        |
     |                   =====================                   |
     |               Approximate Normal Coordinate               |
     |                Rational Function Optimizer                |
      ----------------------------------------------------------- 

          ...................................................
          :                      SETUP                      :
          :.................................................:
          :   optimization level             crude          :
          :   max. optcycles                   200          :
          :   ANC micro-cycles                  20          :
          :   degrees of freedom               210          :
          :.................................................:
          :   RF solver                   davidson          :
          :   write xtbopt.log                true          :
          :   linear?                        false          :
          :   energy convergence         0.5000000E-03 Eh   :
          :   grad. convergence          0.1000000E-01 Eh/α :
          :   maxmium RF displ.          1.0000000          :
          :   Hlow (freq-cutoff)         0.1000000E-01      :
          :   Hmax (freq-cutoff)         5.0000000          :
          :   S6 in model hess.         20.0000000          :
          ...................................................

generating ANC from model Hessian ...
Using Lindh-Hessian (1995)
 Shifting diagonal of input Hessian by    9.9686828793010204E-003
 Lowest  eigenvalues of input Hessian
    0.000000    0.000000    0.000000    0.000000    0.000000    0.000000
    0.010000    0.010015    0.010098    0.010176    0.010291    0.010467
    0.010615    0.010791    0.010897    0.011233    0.011445    0.012420
 Highest eigenvalues
    1.978822    2.041533    2.042846    2.110693    2.182248    2.182921


........................................................................
.............................. CYCLE    1 ..............................
........................................................................

 iter      E             dE          RMSdq      gap      omega  full diag
   1   -100.6817279 -0.100682E+03  0.149E-06    1.66       0.0  T
   2   -100.6817279 -0.127898E-12  0.105E-06    1.66   11233.4  T
   3   -100.6817279  0.000000E+00  0.685E-07    1.66   17212.6  T
     SCC iter.                  ...        0 min,  0.027 sec
     gradient                   ...        0 min,  0.069 sec
 * total energy  :   -99.3378144 Eh     change        0.3410605E-12 Eh
   gradient norm :     0.1036730 Eh/α   predicted     0.0000000E+00 (-100.00%)
   displ. norm   :     0.6613083 α      lambda       -0.6083775E-01
   maximum displ.:     0.2544431 α      in ANC's #43, #42, #89, ...

........................................................................
.............................. CYCLE    2 ..............................
........................................................................

 iter      E             dE          RMSdq      gap      omega  full diag
   1   -100.7456623 -0.100746E+03  0.380E-01    1.70       0.0  T
   2   -100.7457081 -0.457394E-04  0.224E-01    1.63       1.0  T
   3   -100.7439544  0.175368E-02  0.135E-01    1.83       1.0  T
   4   -100.7457752 -0.182082E-02  0.213E-02    1.65       1.0  T
   5   -100.7458139 -0.387281E-04  0.372E-03    1.67       3.2  T
   6   -100.7458143 -0.342901E-06  0.217E-03    1.67       5.4  T
   7   -100.7458144 -0.864648E-07  0.703E-04    1.67      16.8  T
   8   -100.7458144 -0.303765E-07  0.183E-04    1.67      64.5  T
     SCC iter.                  ...        0 min,  0.065 sec
     gradient                   ...        0 min,  0.069 sec
 * total energy  :   -99.3858532 Eh     change       -0.4803876E-01 Eh
   gradient norm :     0.0806982 Eh/α   predicted    -0.4372194E-01 (  -8.99%)
   displ. norm   :     0.6204448 α      lambda       -0.4212489E-01
   maximum displ.:     0.2271103 α      in ANC's #89, #53, #97, ...

........................................................................
.............................. CYCLE    3 ..............................
........................................................................

 iter      E             dE          RMSdq      gap      omega  full diag
   1   -100.8007558 -0.100801E+03  0.325E-01    1.68       0.0  T
   2   -100.8010187 -0.262910E-03  0.183E-01    1.67       1.0  T
   3   -100.8009885  0.301745E-04  0.438E-02    1.65       1.0  T
   4   -100.8009845  0.396394E-05  0.269E-02    1.70       1.0  T
   5   -100.8010492 -0.646363E-04  0.916E-03    1.66       1.3  T
   6   -100.8010519 -0.272102E-05  0.434E-03    1.67       2.7  T
   7   -100.8010527 -0.834092E-06  0.107E-03    1.67      11.0  T
   8   -100.8010528 -0.416637E-07  0.440E-04    1.67      26.8  T
   9   -100.8010528 -0.541181E-08  0.181E-04    1.67      65.2  T
     SCC iter.                  ...        0 min,  0.073 sec
     gradient                   ...        0 min,  0.069 sec
 * total energy  :   -99.4000287 Eh     change       -0.1417555E-01 Eh
   gradient norm :     0.0805326 Eh/α   predicted    -0.2917051E-01 ( 105.78%)
   displ. norm   :     0.3925030 α      lambda       -0.1929957E-01
   maximum displ.:     0.1870919 α      in ANC's #42, #43, #53, ...

........................................................................
.............................. CYCLE    4 ..............................
........................................................................

 iter      E             dE          RMSdq      gap      omega  full diag
   1   -100.7782129 -0.100778E+03  0.228E-01    1.67       0.0  T
   2   -100.7783274 -0.114519E-03  0.131E-01    1.67       1.0  T
   3   -100.7783214  0.601485E-05  0.245E-02    1.66       1.0  T
   4   -100.7783318 -0.103759E-04  0.117E-02    1.68       1.0  T
   5   -100.7783392 -0.738309E-05  0.701E-03    1.66       1.7  T
   6   -100.7783416 -0.240129E-05  0.338E-03    1.67       3.5  T
   7   -100.7783423 -0.725309E-06  0.704E-04    1.67      16.7  T
   8   -100.7783423 -0.205008E-07  0.263E-04    1.67      44.8  T
     SCC iter.                  ...        0 min,  0.066 sec
     gradient                   ...        0 min,  0.069 sec
 * total energy  :   -99.4051467 Eh     change       -0.5118000E-02 Eh
   gradient norm :     0.0356524 Eh/α   predicted    -0.1113646E-01 ( 117.59%)
   displ. norm   :     0.1587183 α      lambda       -0.2734853E-02
   maximum displ.:     0.0677427 α      in ANC's #42, #43, #53, ...

........................................................................
.............................. CYCLE    5 ..............................
........................................................................

 iter      E             dE          RMSdq      gap      omega  full diag
   1   -100.7841829 -0.100784E+03  0.949E-02    1.67       0.0  T
   2   -100.7841896 -0.665366E-05  0.554E-02    1.67       1.0  T
   3   -100.7841889  0.636611E-06  0.554E-03    1.67       2.1  T
   4   -100.7841902 -0.129627E-05  0.301E-03    1.67       3.9  T
   5   -100.7841907 -0.452144E-06  0.180E-03    1.67       6.6  T
   6   -100.7841909 -0.201595E-06  0.810E-04    1.67      14.5  T
   7   -100.7841909 -0.244273E-07  0.194E-04    1.67      60.7  T
     SCC iter.                  ...        0 min,  0.058 sec
     gradient                   ...        0 min,  0.072 sec
 * total energy  :   -99.4065349 Eh     change       -0.1388193E-02 Eh
   gradient norm :     0.0082663 Eh/α   predicted    -0.1402000E-02 (   0.99%)
   displ. norm   :     0.0779526 α      lambda       -0.3219898E-03
   maximum displ.:     0.0242851 α      in ANC's #26, #43, #34, ...

........................................................................
.............................. CYCLE    6 ..............................
........................................................................

 iter      E             dE          RMSdq      gap      omega  full diag
   1   -100.7870167 -0.100787E+03  0.333E-02    1.67       0.0  T
   2   -100.7870197 -0.300528E-05  0.189E-02    1.67       1.0  T
   3   -100.7870137  0.602691E-05  0.950E-03    1.68       1.2  T
   4   -100.7870180 -0.432528E-05  0.512E-03    1.67       2.3  T
   5   -100.7870205 -0.252925E-05  0.868E-04    1.67      13.6  T
   6   -100.7870205 -0.128743E-07  0.482E-04    1.67      24.4  T
   7   -100.7870205 -0.865812E-08  0.112E-04    1.67     105.0  T
     SCC iter.                  ...        0 min,  0.058 sec
     gradient                   ...        0 min,  0.069 sec
 * total energy  :   -99.4065988 Eh     change       -0.6382250E-04 Eh
   gradient norm :     0.0069873 Eh/α   predicted    -0.1618944E-03 ( 153.66%)
   displ. norm   :     0.0553389 α      lambda       -0.1676934E-03
   maximum displ.:     0.0191643 α      in ANC's #39, #26, #20, ...

   *** GEOMETRY OPTIMIZATION CONVERGED AFTER 6 ITERATIONS ***

------------------------------------------------------------------------
 total energy gain   :        -0.0687843 Eh      -43.1628 kcal/mol
 total RMSD          :         0.1545011 a0        0.0818 Å
 total power (kW/mol):       -30.0988708 (step) -186.6813 (real)
------------------------------------------------------------------------

 ANCopt (total)                0 d,  0 h,  0 min,  0.967 sec
 optimizer setup                ...        0 min,  0.000 sec (  0.024%)
 model hessian                  ...        0 min,  0.053 sec (  5.528%)
 ANC generation                 ...        0 min,  0.006 sec (  0.656%)
 coordinate transformation      ...        0 min,  0.000 sec (  0.041%)
 single point calculation       ...        0 min,  0.898 sec ( 92.832%)
 optimization log               ...        0 min,  0.003 sec (  0.305%)
 hessian update                 ...        0 min,  0.000 sec (  0.038%)
 rational function              ...        0 min,  0.002 sec (  0.249%)

================
 final structure:
================
72
 xtb: 6.6.1 (8d0f1dd)
N           -1.89009499290345        2.79218707797018        2.23883446575240
C           -1.83495869311522        2.11689355677983        1.19014642909636
C           -2.98376124723188        1.91123215842733        0.24166605577753
C           -3.46284571399995        0.46898382967937        0.32413797411223
C           -4.41602838276303        0.00437344708324       -0.58468337200591
C           -4.89451653567916       -1.29393498396815       -0.53193027073885
O           -5.82347188287989       -1.81765797183019       -1.35757348644226
C           -6.45855946697574       -0.98642383687131       -2.30033197845521
C           -4.39452661284695       -2.18487939042159        0.45631102005989
O           -4.90755808917770       -3.43092098576532        0.42504540368386
C           -4.51837910048896       -4.35774451729679        1.41150562454424
C           -3.44879132858689       -1.71805186173540        1.35461409019982
C           -2.99297626180247       -0.40667161761841        1.29050510190685
C           -2.42798070029546        2.19659443094953       -1.17789835876873
C           -1.49078970013725        1.10478227625116       -1.72525179244227
C           -0.15611633088730        1.09869570252649       -1.08680884153009
N            0.50634036633350        0.01885565139008       -0.68895360678049
C            1.88675259272362        0.11881545432227       -0.28152179694122
C            2.84834132858927       -0.34851763468143       -1.38673697508301
C            4.26885611311196       -0.13917171033180       -0.94389876027852
C            4.91069936391907        1.06897966275128       -1.16147123467303
C            6.20645341091746        1.27480401139407       -0.71305602449315
C            6.88665689834581        0.27511283794396       -0.03232207690431
O            8.14002494740536        0.36299790949056        0.44943113830687
C            8.88031234914442        1.54312165701706        0.23720493604934
C            6.23648454960175       -0.96957394285923        0.19431799918317
O            6.96738192856311       -1.88931631988588        0.85493409621151
C            6.41658896540662       -3.16335366983080        1.08868616768635
C            4.94049281225964       -1.15062752731623       -0.26114380557713
C           -0.09226063879537       -1.29438630821416       -0.70195166498164
C           -4.19202178642279        2.84980283744264        0.53513894752182
C           -4.83731080038457        2.52516047021408        1.88023169446498
C           -3.82711255841122        4.33071860107502        0.47918585218154
H           -4.80161526639607        0.67373046757071       -1.33553641139071
H           -6.96431558225221       -0.14519885085337       -1.81687228416818
H           -7.19765533831465       -1.61600319169046       -2.79195647360764
H           -5.75214424156143       -0.61032529712013       -3.04746226719131
H           -4.76046737849802       -3.99949284772517        2.41637814404600
H           -5.08799632535379       -5.26137096438666        1.20378208703147
H           -3.44861968292962       -4.58256586313230        1.35099787174846
H           -3.06542536505426       -2.36544511331962        2.12656698850892
H           -2.28164216599629       -0.07118585850917        2.02941214124080
H           -3.26559636982650        2.29791103533841       -1.86681543628182
H           -1.89543770528802        3.14821351949408       -1.16401955169923
H           -1.97774350449111        0.13377834834515       -1.65418690372892
H           -1.33947816215614        1.32610579139970       -2.78999661997955
H           -0.91185707211550        1.62695154063233        0.82222085458694
H            0.39348606543769        2.02871391589231       -1.07667687632772
H            2.04854515473090       -0.49189774796986        0.61314288997628
H            2.11651507873023        1.15801324472545       -0.03610516153686
H            2.65747501747953        0.21394245799009       -2.29300330151847
H            2.67364715638097       -1.40365430758316       -1.59920753013516
H            4.40787208520651        1.86113285790372       -1.69528354068442
H            6.68240917860199        2.22301211181822       -0.90225223806682
H            8.41394256065267        2.40305283084098        0.72770757157509
H            9.00332977570617        1.75242574914798       -0.82948918973826
H            9.85560839065185        1.35911813044745        0.68381420790638
H            7.19002282167068       -3.72641127852660        1.60695916706296
H            5.52610219371045       -3.10503185498404        1.72298995831718
H            6.16663225490590       -3.66983037521614        0.15122428702713
H            4.43870633166758       -2.09208130037439       -0.10166452054183
H           -0.26489212951362       -1.64052603022362       -1.72308455042855
H           -1.04660657735078       -1.28278471078013       -0.16901086174596
H            0.57317354725469       -1.99612062337770       -0.20577807454158
H           -4.93339090123162        2.65667949299787       -0.24832777715866
H           -4.13593982494301        2.71742584901792        2.68552405421431
H           -5.14982059060301        1.48470688041814        1.92489214650158
H           -5.71268064945639        3.15262740019750        2.02517404667710
H           -3.06244766056799        4.56099503016380        1.21460741338666
H           -3.47804233010858        4.62579363605664       -0.50693074289022
H           -4.70802559237464        4.92349485319839        0.71071386546801
H           -1.04443640194049        2.88536130059375        2.79245451004375

 Bond Distances (Angstroems)
 ---------------------------
N1-C2=1.2485         N1-H72=1.0150        C2-N1=1.2485         C2-C3=1.5039         C2-H47=1.1079        C3-C2=1.5039         
C3-C4=1.5220         C3-C14=1.5510        C3-C31=1.5579        C4-C3=1.5220         C4-C5=1.3966         C4-C13=1.3862        
C5-C4=1.3966         C5-C6=1.3847         C5-H34=1.0773        C6-C5=1.3847         C6-O7=1.3487         C6-C9=1.4214         
O7-C6=1.3487         O7-C8=1.4082         C8-O7=1.4082         C8-H35=1.0942        C8-H36=1.0883        C8-H37=1.0948        
C9-C6=1.4214         C9-O10=1.3479        C9-C12=1.3854        O10-C9=1.3479        O10-C11=1.4084       C11-O10=1.4084       
C11-H38=1.0939       C11-H39=1.0882       C11-H40=1.0948       C12-C9=1.3854        C12-C13=1.3898       C12-H41=1.0780       
C13-C4=1.3862        C13-C12=1.3898       C13-H42=1.0791       C14-C3=1.5510        C14-C15=1.5395       C14-H43=1.0893       
C14-H44=1.0906       C15-C14=1.5395       C15-C16=1.4795       C15-H45=1.0886       C15-H46=1.0980       C16-C15=1.4795       
C16-N17=1.3279       C16-H48=1.0803       N17-C16=1.3279       N17-C18=1.4428       N17-C30=1.4433       C18-N17=1.4428       
C18-C19=1.5377       C18-H49=1.0953       C18-H50=1.0922       C19-C18=1.5377       C19-C20=1.5026       C19-H51=1.0836       
C19-H52=1.0904       C20-C19=1.5026       C20-C21=1.3853       C20-C29=1.3929       C21-C20=1.3853       C21-C22=1.3865       
C21-H53=1.0795       C22-C21=1.3865       C22-C23=1.3876       C22-H54=1.0777       C23-C22=1.3876       C23-O24=1.3456       
C23-C26=1.4224       O24-C23=1.3456       O24-C25=1.4092       C25-O24=1.4092       C25-H55=1.0943       C25-H56=1.0940       
C25-H57=1.0884       C26-C23=1.4224       C26-O27=1.3478       C26-C29=1.3856       O27-C26=1.3478       O27-C28=1.4075       
C28-O27=1.4075       C28-H58=1.0880       C28-H59=1.0949       C28-H60=1.0945       C29-C20=1.3929       C29-C26=1.3856       
C29-H61=1.0787       C30-N17=1.4433       C30-H62=1.0919       C30-H63=1.0931       C30-H64=1.0869       C31-C3=1.5579        
C31-C32=1.5268       C31-C33=1.5262       C31-H65=1.0958       C32-C31=1.5268       C32-H66=1.0851       C32-H67=1.0873       
C32-H68=1.0867       C33-C31=1.5262       C33-H69=1.0856       C33-H70=1.0869       C33-H71=1.0867       H34-C5=1.0773        
H35-C8=1.0942        H36-C8=1.0883        H37-C8=1.0948        H38-C11=1.0939       H39-C11=1.0882       H40-C11=1.0948       
H41-C12=1.0780       H42-C13=1.0791       H43-C14=1.0893       H44-C14=1.0906       H45-C15=1.0886       H46-C15=1.0980       
H47-C2=1.1079        H48-C16=1.0803       H49-C18=1.0953       H50-C18=1.0922       H51-C19=1.0836       H52-C19=1.0904       
H53-C21=1.0795       H54-C22=1.0777       H55-C25=1.0943       H56-C25=1.0940       H57-C25=1.0884       H58-C28=1.0880       
H59-C28=1.0949       H60-C28=1.0945       H61-C29=1.0787       H62-C30=1.0919       H63-C30=1.0931       H64-C30=1.0869       
H65-C31=1.0958       H66-C32=1.0851       H67-C32=1.0873       H68-C32=1.0867       H69-C33=1.0856       H70-C33=1.0869       
H71-C33=1.0867       H72-N1=1.0150        
 C  H  Rav=1.0890 sigma=0.0066  Rmin=1.0773  Rmax=1.1079    38
 C  C  Rav=1.4532 sigma=0.0677  Rmin=1.3847  Rmax=1.5579    22
 N  H  Rav=1.0150 sigma=0.0000  Rmin=1.0150  Rmax=1.0150     1
 N  C  Rav=1.3656 sigma=0.0823  Rmin=1.2485  Rmax=1.4433     4
 O  C  Rav=1.3779 sigma=0.0304  Rmin=1.3456  Rmax=1.4092     8

 selected bond angles (degree)
 --------------------
H72-N1-C2=118.10               C3-C2-N1=124.75                H47-C2-N1=123.70               H47-C2-C3=111.50               
C4-C3-C2=109.63                C14-C3-C2=106.16               C14-C3-C4=109.68               C31-C3-C2=113.03               
C31-C3-C4=108.46               C31-C3-C14=109.85              C5-C4-C3=119.66                C13-C4-C3=121.99               
C13-C4-C5=118.35               C6-C5-C4=121.53                H34-C5-C4=119.42               H34-C5-C6=119.04               
O7-C6-C5=125.37                C9-C6-C5=119.51                C9-C6-O7=115.12                C8-O7-C6=119.42                
H35-C8-O7=111.50               H36-C8-O7=105.50               H36-C8-H35=109.30              H37-C8-O7=111.63               
H37-C8-H35=109.61              H37-C8-H36=109.19              O10-C9-C6=115.43               C12-C9-C6=118.67               
C12-C9-O10=125.90              C11-O10-C9=119.14              

 selected dihedral angles (degree)
 ---------------------------------
C3-C2-N1-H72=181.68           H47-C2-N1-H72=359.03          C4-C3-C2-N1=250.24            C4-C3-C2-H47= 72.61           
C14-C3-C2-N1=131.84           C14-C3-C2-H47=314.21          C31-C3-C2-N1= 11.36           C31-C3-C2-H47=193.73          
C5-C4-C3-C2=187.72            C5-C4-C3-C14=303.91           C5-C4-C3-C31= 63.87           C13-C4-C3-C2=  8.49           
C13-C4-C3-C14=124.68          C13-C4-C3-C31=244.65          C6-C5-C4-C3=181.02            C6-C5-C4-C13=  0.28           
H34-C5-C4-C3=  0.03           H34-C5-C4-C13=179.28          O7-C6-C5-C4=179.16            O7-C6-C5-H34=  0.15           
C9-C6-C5-C4=359.12            C9-C6-C5-H34=180.12           C8-O7-C6-C5=354.88            C8-O7-C6-C9=174.92            
H35-C8-O7-C6=302.10           H36-C8-O7-C6=183.56           H37-C8-O7-C6= 65.08           O10-C9-C6-C5=180.59           
O10-C9-C6-O7=  0.56           C12-C9-C6-C5=  0.83           C12-C9-C6-O7=180.80           C11-O10-C9-C6=183.23          
C11-O10-C9-C12=  2.97         
           -------------------------------------------------
          |                Final Singlepoint                |
           -------------------------------------------------

          ...................................................
          :                      SETUP                      :
          :.................................................:
          :  # basis functions                 171          :
          :  # atomic orbitals                 171          :
          :  # shells                          105          :
          :  # electrons                       180          :
          :  max. iterations                   250          :
          :  Hamiltonian                  GFN2-xTB          :
          :  restarted?                      false          :
          :  GBSA solvation                  false          :
          :  PC potential                    false          :
          :  electronic temp.         5000.0000000     K    :
          :  accuracy                    1.0000000          :
          :  -> integral cutoff          0.2500000E+02      :
          :  -> integral neglect         0.1000000E-07      :
          :  -> SCF convergence          0.1000000E-05 Eh   :
          :  -> wf. convergence          0.1000000E-03 e    :
          :  Broyden damping             0.4000000          :
          ...................................................

 iter      E             dE          RMSdq      gap      omega  full diag
   1   -100.7870205 -0.100787E+03  0.522E-05    1.67       0.0  T
   2   -100.7870205 -0.315055E-10  0.329E-05    1.67     357.8  T
   3   -100.7870205 -0.230500E-10  0.217E-05    1.67     544.3  T

   *** convergence criteria satisfied after 3 iterations ***

         #    Occupation            Energy/Eh            Energy/eV
      -------------------------------------------------------------
         1        2.0000           -0.8088768             -22.0107
       ...           ...                  ...                  ...
        84        1.9952           -0.5123570             -13.9419
        85        1.9943           -0.5097029             -13.8697
        86        1.9810           -0.4905138             -13.3476
        87        1.9786           -0.4885613             -13.2944
        88        1.9387           -0.4716072             -12.8331
        89        1.8726           -0.4594734             -12.5029
        90        1.8441           -0.4560345             -12.4093 (HOMO)
        91        0.3919           -0.3945636             -10.7366 (LUMO)
        92        0.0151           -0.3396889              -9.2434
        93        0.0035           -0.3166028              -8.6152
        94        0.0029           -0.3136844              -8.5358
        95        0.0027           -0.3124721              -8.5028
       ...           ...                  ...                  ...
       171                          0.5767701              15.6947
      -------------------------------------------------------------
                  HL-Gap            0.0614709 Eh            1.6727 eV
             Fermi-level           -0.4169200 Eh          -11.3450 eV

 SCC (total)                   0 d,  0 h,  0 min,  0.118 sec
 SCC setup                      ...        0 min,  0.001 sec (  0.735%)
 Dispersion                     ...        0 min,  0.002 sec (  1.326%)
 classical contributions        ...        0 min,  0.000 sec (  0.366%)
 integral evaluation            ...        0 min,  0.018 sec ( 15.065%)
 iterations                     ...        0 min,  0.026 sec ( 21.928%)
 molecular gradient             ...        0 min,  0.071 sec ( 60.087%)
 printout                       ...        0 min,  0.001 sec (  0.479%)

         :::::::::::::::::::::::::::::::::::::::::::::::::::::
         ::                     SUMMARY                     ::
         :::::::::::::::::::::::::::::::::::::::::::::::::::::
         :: total energy             -99.406598756198 Eh    ::
         :: gradient norm              0.006987039460 Eh/a0 ::
         :: HOMO-LUMO gap              1.672707953191 eV    ::
         ::.................................................::
         :: SCC energy              -100.787020531387 Eh    ::
         :: -> isotropic ES            0.108645841338 Eh    ::
         :: -> anisotropic ES          0.005484740537 Eh    ::
         :: -> anisotropic XC          0.043566135154 Eh    ::
         :: -> dispersion             -0.075079686542 Eh    ::
         :: repulsion energy           1.379181226476 Eh    ::
         :: add. restraining           0.000000000000 Eh    ::
         :: total charge               1.000000000000 e     ::
         :::::::::::::::::::::::::::::::::::::::::::::::::::::

           -------------------------------------------------
          |                Property Printout                |
           -------------------------------------------------

    * Orbital Energies and Occupations

         #    Occupation            Energy/Eh            Energy/eV
      -------------------------------------------------------------
         1        2.0000           -0.8088768             -22.0107
       ...           ...                  ...                  ...
        78        1.9983           -0.5290250             -14.3955
        79        1.9983           -0.5287334             -14.3876
        80        1.9982           -0.5281418             -14.3715
        81        1.9975           -0.5229190             -14.2293
        82        1.9971           -0.5201555             -14.1542
        83        1.9960           -0.5151698             -14.0185
        84        1.9952           -0.5123570             -13.9419
        85        1.9943           -0.5097029             -13.8697
        86        1.9810           -0.4905138             -13.3476
        87        1.9786           -0.4885613             -13.2944
        88        1.9387           -0.4716072             -12.8331
        89        1.8726           -0.4594734             -12.5029
        90        1.8441           -0.4560345             -12.4093 (HOMO)
        91        0.3919           -0.3945636             -10.7366 (LUMO)
        92        0.0151           -0.3396889              -9.2434
        93        0.0035           -0.3166028              -8.6152
        94        0.0029           -0.3136844              -8.5358
        95        0.0027           -0.3124721              -8.5028
        96        0.0024           -0.3101638              -8.4400
        97        0.0000           -0.1909485              -5.1960
        98        0.0000           -0.1876041              -5.1050
        99                         -0.1359664              -3.6998
       100                         -0.0686215              -1.8673
       101                         -0.0643540              -1.7512
       ...                                ...                  ...
       171                          0.5767701              15.6947
      -------------------------------------------------------------
                  HL-Gap            0.0614709 Eh            1.6727 eV
             Fermi-level           -0.4169200 Eh          -11.3450 eV

     #   Z          covCN         q      C6AA      α(0)
     1   7 N        1.774    -0.267    27.762     7.802
     2   6 C        2.826     0.101    25.752     8.315
     3   6 C        3.907     0.006    20.412     6.422
     4   6 C        2.974     0.003    27.959     8.673
     5   6 C        2.920    -0.080    29.989     8.980
     6   6 C        2.862     0.130    25.154     8.221
     7   8 O        1.706    -0.230    17.806     5.697
     8   6 C        3.644     0.027    20.451     6.500
     9   6 C        2.864     0.129    25.179     8.225
    10   8 O        1.706    -0.228    17.786     5.694
    11   6 C        3.645     0.027    20.456     6.500
    12   6 C        2.914    -0.075    29.869     8.962
    13   6 C        2.921    -0.054    29.335     8.882
    14   6 C        3.812    -0.065    21.738     6.636
    15   6 C        3.802    -0.069    21.817     6.650
    16   6 C        2.844     0.007    27.845     8.648
    17   7 N        2.729     0.011    21.064     6.816
    18   6 C        3.757    -0.016    20.914     6.520
    19   6 C        3.809    -0.071    21.851     6.654
    20   6 C        2.970    -0.001    28.039     8.686
    21   6 C        2.922    -0.049    29.212     8.863
    22   6 C        2.914    -0.067    29.679     8.933
    23   6 C        2.864     0.133    25.079     8.209
    24   8 O        1.706    -0.222    17.680     5.677
    25   6 C        3.645     0.025    20.491     6.506
    26   6 C        2.863     0.133    25.087     8.210
    27   8 O        1.706    -0.224    17.724     5.684
    28   6 C        3.646     0.027    20.450     6.499
    29   6 C        2.920    -0.080    29.997     8.981
    30   6 C        3.699    -0.071    22.022     6.711
    31   6 C        3.853    -0.007    20.674     6.467
    32   6 C        3.756    -0.119    22.837     6.814
    33   6 C        3.755    -0.118    22.817     6.811
    34   1 H        0.926     0.052     2.293     2.368
    35   1 H        0.924     0.054     2.271     2.357
    36   1 H        0.925     0.081     1.965     2.192
    37   1 H        0.924     0.048     2.349     2.397
    38   1 H        0.924     0.055     2.258     2.350
    39   1 H        0.925     0.081     1.966     2.193
    40   1 H        0.924     0.048     2.348     2.396
    41   1 H        0.926     0.052     2.300     2.372
    42   1 H        0.926     0.038     2.478     2.462
    43   1 H        0.925     0.060     2.197     2.318
    44   1 H        0.924     0.054     2.276     2.359
    45   1 H        0.925     0.066     2.131     2.283
    46   1 H        0.923     0.080     1.979     2.200
    47   1 H        0.922     0.007     2.943     2.683
    48   1 H        0.926     0.070     2.091     2.261
    49   1 H        0.924     0.067     2.116     2.275
    50   1 H        0.924     0.067     2.114     2.274
    51   1 H        0.925     0.056     2.243     2.342
    52   1 H        0.924     0.055     2.258     2.350
    53   1 H        0.926     0.045     2.381     2.413
    54   1 H        0.926     0.059     2.216     2.328
    55   1 H        0.924     0.054     2.266     2.354
    56   1 H        0.924     0.056     2.247     2.344
    57   1 H        0.925     0.082     1.954     2.186
    58   1 H        0.925     0.082     1.959     2.189
    59   1 H        0.924     0.048     2.340     2.392
    60   1 H        0.924     0.053     2.288     2.366
    61   1 H        0.926     0.047     2.357     2.401
    62   1 H        0.924     0.076     2.018     2.221
    63   1 H        0.924     0.080     1.980     2.200
    64   1 H        0.925     0.080     1.982     2.201
    65   1 H        0.924     0.037     2.484     2.465
    66   1 H        0.925     0.070     2.085     2.258
    67   1 H        0.925     0.036     2.508     2.477
    68   1 H        0.925     0.051     2.306     2.375
    69   1 H        0.925     0.059     2.212     2.326
    70   1 H        0.925     0.034     2.525     2.485
    71   1 H        0.925     0.055     2.262     2.352
    72   1 H        0.860     0.157     1.354     1.822

 Mol. C6AA /au·bohr⁶  :      47460.412653
 Mol. C8AA /au·bohr⁸  :    1081992.914358
 Mol. α(0) /au        :        334.436989


Wiberg/Mayer (AO) data.
largest (>0.10) Wiberg bond orders for each atom

 ---------------------------------------------------------------------------
     #   Z sym  total        # sym  WBO       # sym  WBO       # sym  WBO
 ---------------------------------------------------------------------------
     1   7 N    3.043 --     2 C    1.957    72 H    0.942
     2   6 C    3.927 --     1 N    1.957     3 C    0.995    47 H    0.897
     3   6 C    3.976 --     2 C    0.995     4 C    0.968    14 C    0.958
                            31 C    0.942
     4   6 C    3.949 --    13 C    1.415     5 C    1.368     3 C    0.968
     5   6 C    3.962 --     6 C    1.402     4 C    1.368    34 H    0.958
     6   6 C    3.906 --     5 C    1.402     9 C    1.221     7 O    1.100
     7   8 O    2.255 --     6 C    1.100     8 C    0.978
     8   6 C    3.932 --     7 O    0.978    36 H    0.977    35 H    0.974
                            37 H    0.973
     9   6 C    3.902 --    12 C    1.393     6 C    1.221    10 O    1.102
    10   8 O    2.253 --     9 C    1.102    11 C    0.978
    11   6 C    3.931 --    10 O    0.978    39 H    0.977    40 H    0.974
                            38 H    0.973
    12   6 C    3.962 --    13 C    1.402     9 C    1.393    41 H    0.964
    13   6 C    3.955 --     4 C    1.415    12 C    1.402    42 H    0.962
    14   6 C    3.972 --    15 C    0.981    44 H    0.972    43 H    0.969
                             3 C    0.958
    15   6 C    3.987 --    16 C    1.060    14 C    0.981    45 H    0.962
                            46 H    0.927
    16   6 C    3.597 --    17 N    1.400    15 C    1.060    48 H    0.957
    17   7 N    3.480 --    16 C    1.400    30 C    0.998    18 C    0.989
    18   6 C    3.956 --    17 N    0.989    50 H    0.967    19 C    0.967
                            49 H    0.963
    19   6 C    3.977 --    20 C    1.007    51 H    0.972    52 H    0.972
                            18 C    0.967
    20   6 C    3.944 --    21 C    1.410    29 C    1.380    19 C    1.007
    21   6 C    3.950 --    22 C    1.416    20 C    1.410    53 H    0.968
    22   6 C    3.959 --    21 C    1.416    23 C    1.383    54 H    0.963
    23   6 C    3.895 --    22 C    1.383    26 C    1.219    24 O    1.110
    24   8 O    2.255 --    23 C    1.110    25 C    0.976
    25   6 C    3.928 --    57 H    0.977    24 O    0.976    56 H    0.973
                            55 H    0.972
    26   6 C    3.899 --    29 C    1.395    23 C    1.219    27 O    1.104
    27   8 O    2.254 --    26 C    1.104    28 C    0.979
    28   6 C    3.932 --    27 O    0.979    58 H    0.977    59 H    0.973
                            60 H    0.973
    29   6 C    3.959 --    26 C    1.395    20 C    1.380    61 H    0.962
    30   6 C    3.957 --    17 N    0.998    64 H    0.978    62 H    0.966
                            63 H    0.960
    31   6 C    3.972 --    33 C    1.009    32 C    1.008    65 H    0.960
                             3 C    0.942
    32   6 C    3.978 --    31 C    1.008    67 H    0.982    68 H    0.981
                            66 H    0.973
    33   6 C    3.984 --    31 C    1.009    70 H    0.983    71 H    0.980
                            69 H    0.977
    34   1 H    0.996 --     5 C    0.958
    35   1 H    0.993 --     8 C    0.974
    36   1 H    0.993 --     8 C    0.977
    37   1 H    0.994 --     8 C    0.973
    38   1 H    0.993 --    11 C    0.973
    39   1 H    0.993 --    11 C    0.977
    40   1 H    0.993 --    11 C    0.974
    41   1 H    0.996 --    12 C    0.964
    42   1 H    0.998 --    13 C    0.962
    43   1 H    0.995 --    14 C    0.969
    44   1 H    0.996 --    14 C    0.972
    45   1 H    0.995 --    15 C    0.962
    46   1 H    0.970 --    15 C    0.927
    47   1 H    0.987 --     2 C    0.897
    48   1 H    0.995 --    16 C    0.957
    49   1 H    0.990 --    18 C    0.963
    50   1 H    0.994 --    18 C    0.967
    51   1 H    0.996 --    19 C    0.972
    52   1 H    0.996 --    19 C    0.972
    53   1 H    0.997 --    21 C    0.968
    54   1 H    0.995 --    22 C    0.963
    55   1 H    0.991 --    25 C    0.972
    56   1 H    0.992 --    25 C    0.973
    57   1 H    0.992 --    25 C    0.977
    58   1 H    0.993 --    28 C    0.977
    59   1 H    0.993 --    28 C    0.973
    60   1 H    0.993 --    28 C    0.973
    61   1 H    0.997 --    29 C    0.962
    62   1 H    0.985 --    30 C    0.966
    63   1 H    0.987 --    30 C    0.960
    64   1 H    0.993 --    30 C    0.978
    65   1 H    0.992 --    31 C    0.960
    66   1 H    0.991 --    32 C    0.973
    67   1 H    0.997 --    32 C    0.982
    68   1 H    0.994 --    32 C    0.981
    69   1 H    0.994 --    33 C    0.977
    70   1 H    0.997 --    33 C    0.983
    71   1 H    0.994 --    33 C    0.980
    72   1 H    0.970 --     1 N    0.942
 ---------------------------------------------------------------------------

Topologies differ in total number of bonds
Writing topology from bond orders to xtbtopo.mol

molecular dipole:
                 x           y           z       tot (Debye)
 q only:        0.668      -0.056      -0.821
   full:        0.970      -0.103      -1.000       3.552
molecular quadrupole (traceless):
                xx          xy          yy          xz          yz          zz
 q only:       51.227       3.814     -14.431       6.661     -10.585     -36.796
  q+dip:       45.329       7.889     -12.851       9.198     -14.303     -32.479
   full:       44.910       7.429     -13.293       6.712     -14.074     -31.617

           -------------------------------------------------
          |                Geometry Summary                 |
           -------------------------------------------------

      molecular mass/u    :      455.6105846
   center of mass at/Å    :        0.0021670       0.0016902       0.0002558
  moments of inertia/u·Å² :        0.2438790E+04   0.1097370E+05   0.1224810E+05
rotational constants/cm⁻¹ :        0.6912295E-02   0.1536185E-02   0.1376347E-02

 * 66 selected distances

     #   Z          #   Z                                           value/Å
     1   7 N        2   6 C                                       1.2485224
     4   6 C        5   6 C                                       1.3965588
     5   6 C        6   6 C                                       1.3846801
     6   6 C        7   8 O                                       1.3486774
     7   8 O        8   6 C                                       1.4082189
     6   6 C        9   6 C                                       1.4214053
     9   6 C       10   8 O                                       1.3478868
    10   8 O       11   6 C                                       1.4083914
     9   6 C       12   6 C                                       1.3853851
     4   6 C       13   6 C                                       1.3861513
    12   6 C       13   6 C                                       1.3898186
    14   6 C       15   6 C                                       1.5394730 (max)
    15   6 C       16   6 C                                       1.4795269
    16   6 C       17   7 N                                       1.3278526
    17   7 N       18   6 C                                       1.4427512
    18   6 C       19   6 C                                       1.5377107
    20   6 C       21   6 C                                       1.3852547
    21   6 C       22   6 C                                       1.3865132
    22   6 C       23   6 C                                       1.3876088
    23   6 C       24   8 O                                       1.3456380
    24   8 O       25   6 C                                       1.4091692
    23   6 C       26   6 C                                       1.4224399
    26   6 C       27   8 O                                       1.3477949
    27   8 O       28   6 C                                       1.4075455
    20   6 C       29   6 C                                       1.3929442
    26   6 C       29   6 C                                       1.3855760
    17   7 N       30   6 C                                       1.4432938
    31   6 C       32   6 C                                       1.5267827
    31   6 C       33   6 C                                       1.5262377
     5   6 C       34   1 H                                       1.0772635 (min)
     8   6 C       35   1 H                                       1.0941582
     8   6 C       36   1 H                                       1.0882682
     8   6 C       37   1 H                                       1.0948408
    11   6 C       38   1 H                                       1.0939470
    11   6 C       39   1 H                                       1.0881883
    11   6 C       40   1 H                                       1.0948019
    12   6 C       41   1 H                                       1.0779606
    13   6 C       42   1 H                                       1.0791342
    14   6 C       43   1 H                                       1.0892530
    14   6 C       44   1 H                                       1.0905841
    15   6 C       45   1 H                                       1.0885877
    15   6 C       46   1 H                                       1.0979804
    16   6 C       48   1 H                                       1.0803238
    18   6 C       49   1 H                                       1.0952500
    18   6 C       50   1 H                                       1.0922236
    19   6 C       51   1 H                                       1.0835636
    19   6 C       52   1 H                                       1.0904015
    21   6 C       53   1 H                                       1.0794896
    22   6 C       54   1 H                                       1.0776957
    25   6 C       55   1 H                                       1.0943379
    25   6 C       56   1 H                                       1.0939735
    25   6 C       57   1 H                                       1.0883564
    28   6 C       58   1 H                                       1.0880445
    28   6 C       59   1 H                                       1.0948560
    28   6 C       60   1 H                                       1.0944551
    29   6 C       61   1 H                                       1.0786838
    30   6 C       62   1 H                                       1.0919372
    30   6 C       63   1 H                                       1.0931317
    30   6 C       64   1 H                                       1.0869325
    31   6 C       65   1 H                                       1.0957852
    32   6 C       66   1 H                                       1.0850729
    32   6 C       67   1 H                                       1.0872906
    32   6 C       68   1 H                                       1.0867362
    33   6 C       69   1 H                                       1.0856264
    33   6 C       70   1 H                                       1.0868972
    33   6 C       71   1 H                                       1.0867368

 * 4 distinct bonds (by element types)

   Z      Z             #   av. dist./Å        max./Å        min./Å
   1 H    6 C          37     1.0884532     1.0979804     1.0772635
   6 C    6 C          17     1.4314157     1.5394730     1.3846801
   6 C    7 N           4     1.3656050     1.4432938     1.2485224
   6 C    8 O           8     1.3779153     1.4091692     1.3456380


optimized geometry written to: xtbopt.xyz


           -------------------------------------------------
          | TOTAL ENERGY              -99.406598756198 Eh   |
          | GRADIENT NORM               0.006987039460 Eh/α |
          | HOMO-LUMO GAP               1.672707953191 eV   |
           -------------------------------------------------

------------------------------------------------------------------------
 * finished run on 2024/04/06 at 11:15:08.499     
------------------------------------------------------------------------
 total:
 * wall-time:     0 d,  0 h,  0 min,  1.260 sec
 *  cpu-time:     0 d,  0 h,  0 min,  1.231 sec
 * ratio c/w:     0.977 speedup
 SCF:
 * wall-time:     0 d,  0 h,  0 min,  0.122 sec
 *  cpu-time:     0 d,  0 h,  0 min,  0.122 sec
 * ratio c/w:     0.999 speedup
 ANC optimizer:
 * wall-time:     0 d,  0 h,  0 min,  1.093 sec
 *  cpu-time:     0 d,  0 h,  0 min,  1.084 sec
 * ratio c/w:     0.992 speedup

