25
 energy: -43.829591532257 gnorm: 0.124372324085 xtb: 6.6.1 (8d0f1dd)
C            3.23788942605884        1.17478382376285        0.08508473741001
N            2.30167019697771        0.08549809365444        0.03831363985485
C            2.58081329473812       -1.23443200803987        0.02995869730019
N            1.42699208107653       -1.96208356008319        0.00058487871730
C            0.39947955411588       -1.06616395207855       -0.00854404862669
C            0.92945958205465        0.22105090724648        0.01498216775398
C            0.10250273605732        1.40689828223457       -0.00448591786914
O            0.49647541360266        2.55326470531543       -0.00319211881883
N           -1.25692308528833        1.06459404253891       -0.03108252333171
C           -2.22316171584602        2.15632835526651       -0.05004267078210
C           -1.81713014037440       -0.19506048061153       -0.04735130530410
O           -3.00578119536208       -0.37688223493771       -0.07041880731920
N           -0.92721580145925       -1.29334379206035       -0.03720000539170
C           -1.46260038748155       -2.64209197697409       -0.06012025767996
H            3.71553282048908        1.22199994834496        1.06481211191989
H            4.00865648921457        1.04341262970416       -0.67437852239389
H            2.70194445924420        2.10758773550883       -0.08910396119320
H            3.56680563455248       -1.65069199162445        0.04333536660179
H           -1.67614054937400        3.09545573202003       -0.02563612186740
H           -2.82772614779433        2.09601576639612       -0.95316405613240
H           -2.87984725805452        2.07914202018727        0.81443037584721
H           -1.15686962773093       -3.18900183911694        0.83242963898879
H           -1.13210450627175       -3.16857364777935       -0.95619460264848
H           -2.54664385738764       -2.55717925746628       -0.07435396218039
H            1.31565419971957       -3.05951836877555       -0.01429307359511
25
 energy: -43.837244343928 gnorm: 0.038377988063 xtb: 6.6.1 (8d0f1dd)
C            3.24410577071779        1.17416875487465        0.08703582480502
N            2.30907698610419        0.09139506720859        0.03593901722447
C            2.59678839841285       -1.24942722817142        0.03003712622873
N            1.41803571668668       -1.95494278447544        0.00070934212046
C            0.39878937174814       -1.06317435743957       -0.00895242605997
C            0.92638655334002        0.22067421831118        0.01330859544201
C            0.10710404164603        1.39216914729287       -0.00569185168014
O            0.49643768554795        2.56030932023551       -0.00437175002266
N           -1.26471442228771        1.05150685625991       -0.03138898100795
C           -2.22290229438890        2.14819991144033       -0.04989099463276
C           -1.82386436447867       -0.19828616593271       -0.04769307406815
O           -3.02109511961799       -0.38247136517023       -0.07073656734765
N           -0.93710156041360       -1.29520914960572       -0.03745940551407
C           -1.46772193752008       -2.64035542670581       -0.06013312171740
H            3.72409810903957        1.22387806507758        1.06839858354866
H            4.01296760699416        1.04625534427211       -0.67697911287624
H            2.69750554673870        2.09996771764168       -0.08682405627665
H            3.57578642933344       -1.67133848197260        0.04360429099662
H           -1.66205773177714        3.08012122061547       -0.02541256780862
H           -2.82870204841769        2.09555426849061       -0.95409406540808
H           -2.88076837944007        2.07883605210966        0.81581721086699
H           -1.15810522618571       -3.18796501115560        0.83225522585883
H           -1.13326066378552       -3.16781761795403       -0.95578865815478
H           -2.55257541324620       -2.55551809824534       -0.07445165765420
H            1.31751856072657       -2.98552132436897       -0.01286726760276
25
 energy: -43.837839896392 gnorm: 0.014903175440 xtb: 6.6.1 (8d0f1dd)
C            3.23467902146533        1.17247628576527        0.08499332503787
N            2.30240016756260        0.09113481851061        0.03369683385805
C            2.59493318170392       -1.25924162855200        0.03129713115882
N            1.41206391451315       -1.97122718849432        0.00116224597056
C            0.40133015846992       -1.07099558940919       -0.00799234306860
C            0.91999571723268        0.21714556415783        0.01420068475538
C            0.11560245029229        1.38689179558066       -0.00295451319765
O            0.50341575474452        2.56119308614942       -0.00106199582825
N           -1.26407326765495        1.05678542368177       -0.03008844883458
C           -2.22229779806631        2.15582729287381       -0.04995919527593
C           -1.81359651786303       -0.19133027683687       -0.04693821992018
O           -3.01221320293822       -0.37660950438839       -0.07093472372245
N           -0.93679418509680       -1.29615569553750       -0.03679636827792
C           -1.46255539066274       -2.64047079022224       -0.06020459385054
H            3.71132440518713        1.22236444034116        1.06775703684275
H            4.00633751092488        1.04070875490279       -0.67524983438919
H            2.69601462192497        2.10308235065011       -0.09202003754502
H            3.57354990643895       -1.66446914414391        0.04321553741724
H           -1.67856700600237        3.09890269601886       -0.02550476314943
H           -2.82850057059214        2.09835938799922       -0.95363533686856
H           -2.88201720098768        2.08169752370813        0.81388107598417
H           -1.15288643317154       -3.19068912463452        0.83157812928583
H           -1.12791963945437       -3.16965466230266       -0.95579719588454
H           -2.54682976110529       -2.55814593129157       -0.07455888161737
H            1.32833577861192       -2.98657095189380       -0.01371588962072
25
 energy: -43.838013170422 gnorm: 0.008942298177 xtb: 6.6.1 (8d0f1dd)
C            3.24154956005016        1.17329449732641        0.08742744462417
N            2.30349123522040        0.09589227877398        0.03419460229417
C            2.59422827049810       -1.25620180784671        0.03099427085327
N            1.41016338232119       -1.97053198641998        0.00060690731713
C            0.40215519821381       -1.06869452397774       -0.00886965153064
C            0.91962324159054        0.22102611921399        0.01350353270994
C            0.11281825948257        1.38597764670545       -0.00683401848138
O            0.49072317007450        2.56252102508326       -0.00683847009259
N           -1.26833019348482        1.05319564353973       -0.03237118292629
C           -2.22331872772099        2.15083778995112       -0.05003119655784
C           -1.81476630742384       -0.19373310484591       -0.04786924591859
O           -3.01330095850614       -0.38353150310603       -0.07040050011315
N           -0.93701379103449       -1.29566947524452       -0.03758997648283
C           -1.46665259571188       -2.63778287175602       -0.05980247075443
H            3.72529283128978        1.22057727850498        1.06722654762104
H            4.01185369146378        1.04593925605721       -0.67557950533165
H            2.70542069062559        2.10644809818321       -0.08299659343311
H            3.57359956571521       -1.65755759028175        0.04257148716470
H           -1.66566638903632        3.08515589912546       -0.02605250174558
H           -2.82986144361532        2.09531319204558       -0.95374336655529
H           -2.87973662294504        2.07830886062938        0.81664745426815
H           -1.16027568406312       -3.18804635173198        0.83302087418487
H           -1.13568558735080       -3.16868360199467       -0.95568835596744
H           -2.55111808565483       -2.55246633496786       -0.07398829981000
H            1.32653890547877       -2.99057950033392       -0.01316812607692
25
 energy: -43.838063119128 gnorm: 0.005138133281 xtb: 6.6.1 (8d0f1dd)
C            3.24046430775148        1.17243011672986        0.08510096841032
N            2.30518338599321        0.09381087536145        0.03465652397783
C            2.59439753225060       -1.25715991123877        0.03256186934324
N            1.40906733894488       -1.96779549086676        0.00123819612047
C            0.40147352194295       -1.06644121951612       -0.00818304247297
C            0.92127878729237        0.22143722706485        0.01501650488536
C            0.11479243304931        1.38690611196658       -0.00278330547699
O            0.49364272220350        2.56124286968626       -0.00043990236694
N           -1.26806780239186        1.05475632895298       -0.03013323899919
C           -2.22274282840058        2.15196114727220       -0.04980008506657
C           -1.81646982055533       -0.19217815205812       -0.04715982369044
O           -3.01532633325940       -0.38135230460611       -0.07108526734971
N           -0.93770630167346       -1.29400768448817       -0.03719999374199
C           -1.46403333511616       -2.63812264210617       -0.06077561631156
H            3.71955044292363        1.22716100079241        1.06692576817573
H            4.01194305676060        1.04477870600382       -0.67684410900337
H            2.69584982362792        2.09954271711146       -0.09251291660564
H            3.57386558023530       -1.66320706486946        0.04392883053757
H           -1.66415129538493        3.08525706315966       -0.02441722572340
H           -2.82692589232296        2.09728012583858       -0.95500099975347
H           -2.88196801009834        2.08036640282616        0.81471240393619
H           -1.15444044193912       -3.18808637547192        0.83108556825707
H           -1.12927687375016       -3.16672892210200       -0.95654823204845
H           -2.54926877604818       -2.55901535646573       -0.07529194053142
H            1.32060039344155       -2.99182663634425       -0.01268127524196
25
 energy: -43.838087827427 gnorm: 0.003827863695 xtb: 6.6.1 (8d0f1dd)
C            3.23991050498361        1.17210991675402        0.08778031257182
N            2.30573035672329        0.09334239916812        0.03364590508368
C            2.59588778804579       -1.25690805600036        0.03027719775966
N            1.41116750931869       -1.96698438687714       -0.00070150746836
C            0.40231600559826       -1.06716360012673       -0.00945825589761
C            0.92180383172670        0.22080855916282        0.01289254892335
C            0.11685643481201        1.38722691618571       -0.00632406882521
O            0.49704182957765        2.56089807515778       -0.00548643399776
N           -1.26725718591327        1.05578779726736       -0.03191621627308
C           -2.22383061116249        2.15239397305557       -0.05017213382285
C           -1.81535775100637       -0.19176111885023       -0.04736921857565
O           -3.01428000986798       -0.38063937223216       -0.06999437884618
N           -0.93702043634218       -1.29460399926830       -0.03732648980838
C           -1.46479419589535       -2.63848970458105       -0.05917300982441
H            3.71815142396217        1.22078194968757        1.07011262682879
H            4.01064564869985        1.04467550227879       -0.67461271439694
H            2.69775568031644        2.10166399584209       -0.08582091113822
H            3.57557561487447       -1.66345226828581        0.04155984887065
H           -1.67268570022374        3.09024834504534       -0.02671206541481
H           -2.83098370634073        2.09568238615303       -0.95313910473675
H           -2.88132561909776        2.07950635312341        0.81540388143380
H           -1.15635284101556       -3.18862947024917        0.83307550959862
H           -1.13210313844132       -3.16924677472589       -0.95453319529501
H           -2.54977198711801       -2.55596942888126       -0.07316155131859
H            1.32465216926261       -2.99026905617081       -0.01447691617088
25
 energy: -43.838098630967 gnorm: 0.002910639745 xtb: 6.6.1 (8d0f1dd)
C            3.23947835488617        1.17298065078808        0.08517210430925
N            2.30426850702678        0.09428178791350        0.03431890330126
C            2.59487168438751       -1.25638147957927        0.03273245929237
N            1.41090865451325       -1.96791931939575        0.00219084883110
C            0.40187042858365       -1.06847741612738       -0.00763046661100
C            0.92010179353892        0.22048223892856        0.01491982890986
C            0.11595390663022        1.38647897976085       -0.00397251034507
O            0.49410632855743        2.56126839435421       -0.00288765262850
N           -1.26824137726194        1.05436890129242       -0.03088339716182
C           -2.22259997718138        2.15240800694079       -0.04969821008744
C           -1.81536054197160       -0.19301586091452       -0.04753485203586
O           -3.01413219967936       -0.38233028725042       -0.07159584280545
N           -0.93741423597053       -1.29602237484529       -0.03706156533104
C           -1.46548519180564       -2.63929998029977       -0.06095171252525
H            3.72113503254281        1.22245795869379        1.06567079158221
H            4.00903711679707        1.04328982948968       -0.67789090932478
H            2.70148414991435        2.10495543986649       -0.08848732655206
H            3.57447938208222       -1.66093016778538        0.04408509351856
H           -1.66889963186777        3.08899813154478       -0.02471494656213
H           -2.82817808989420        2.09752606540623       -0.95391854279453
H           -2.88099148131726        2.08004571076562        0.81530520918639
H           -1.15852594603322       -3.19036032926370        0.83126184610683
H           -1.13270028797847       -3.16906925241971       -0.95692222131737
H           -2.55019909908486       -2.55497263767639       -0.07586379761523
H            1.32676433606267       -2.98975405755474       -0.01127347208058
25
 energy: -43.838108560091 gnorm: 0.002161731704 xtb: 6.6.1 (8d0f1dd)
C            3.23970163363925        1.17251171884694        0.08683760558844
N            2.30433800711275        0.09383120615642        0.03397459231803
C            2.59395665919227       -1.25719831871352        0.03130033495158
N            1.40952413297975       -1.96829386075645       -0.00031733433083
C            0.40148232549128       -1.06794046733348       -0.00907542864760
C            0.92007685877507        0.22090056898936        0.01380705014835
C            0.11605376870027        1.38679833920828       -0.00479284993029
O            0.49316644163117        2.56184573436725       -0.00340533357331
N           -1.26847247500086        1.05439896351300       -0.03121296925194
C           -2.22253580334766        2.15195736435321       -0.05018680243589
C           -1.81565866422554       -0.19248273702181       -0.04729351474641
O           -3.01444762516283       -0.38181125959730       -0.07017971633422
N           -0.93769613074128       -1.29519128805225       -0.03736766310525
C           -1.46453635517030       -2.63864100925112       -0.05962296050416
H            3.71932126361753        1.22400207356645        1.06837668345177
H            4.01160157006640        1.04491245146209       -0.67441910048579
H            2.69962024616540        2.10284433110600       -0.08837342042188
H            3.57327956781836       -1.66205854884229        0.04238261200666
H           -1.66617808545547        3.08692326805489       -0.02576430640704
H           -2.82807086230463        2.09673962047473       -0.95452987151819
H           -2.88070015066310        2.08022111311555        0.81517773799223
H           -1.15508050990209       -3.18784860051062        0.83279580395166
H           -1.13122763529781       -3.16811164927057       -0.95547900652510
H           -2.54944502543474       -2.55681555720430       -0.07334436085984
H            1.32365846299362       -2.99048452402776       -0.01491812207127
25
 energy: -43.838112590013 gnorm: 0.001504218339 xtb: 6.6.1 (8d0f1dd)
C            3.24038053938800        1.17211339877843        0.08627750269057
N            2.30552524591208        0.09341494808453        0.03403225975499
C            2.59507218474559       -1.25720212537860        0.03176569846585
N            1.41047217193813       -1.96766553736255        0.00111242384940
C            0.40213550243081       -1.06752500602453       -0.00851790669441
C            0.92117037214505        0.22105316941960        0.01398720547979
C            0.11711379466347        1.38723816553588       -0.00505211581746
O            0.49493061572351        2.56169356095135       -0.00391412065801
N           -1.26796159569639        1.05515046009881       -0.03130210096063
C           -2.22364321799496        2.15165285698281       -0.04973886586814
C           -1.81527534684607       -0.19185171583264       -0.04748714970976
O           -3.01408374137646       -0.38114308941128       -0.07077419331765
N           -0.93716166191838       -1.29462876659154       -0.03729785656552
C           -1.46493863253495       -2.63804299414530       -0.06038553197772
H            3.72040541110905        1.22309832588249        1.06772530770626
H            4.01104997719278        1.04501861802322       -0.67643139571899
H            2.69800058448762        2.10129813051904       -0.08803255650603
H            3.57466319453209       -1.66275198181827        0.04293781177585
H           -1.66986052164640        3.08800831421080       -0.02549323767743
H           -2.83002786252995        2.09571497863125       -0.95344380741816
H           -2.88165899952940        2.07893478962226        0.81564345606932
H           -1.15700093403257       -3.18832782397386        0.83184969545970
H           -1.13146888198412       -3.16775706883084       -0.95599463577115
H           -2.54986953731098       -2.55583365893769       -0.07514947016046
H            1.32376295460928       -2.99065101580068       -0.01194675717049
25
 energy: -43.838109623338 gnorm: 0.001706663796 xtb: 6.6.1 (8d0f1dd)
C            3.23937251175597        1.17284955703191        0.08643303774173
N            2.30467839000656        0.09401455800675        0.03411851200017
C            2.59501073722347       -1.25626036999077        0.03156620189549
N            1.41110681698641       -1.96733940977826        0.00011192352870
C            0.40179975465809       -1.06820857492203       -0.00857445046866
C            0.92025554323498        0.22068664326208        0.01431711838046
C            0.11653357856840        1.38666420422368       -0.00422433548707
O            0.49423149047108        2.56113963373529       -0.00292702907479
N           -1.26856800370851        1.05452457935029       -0.03104911808619
C           -2.22244082760576        2.15280806422774       -0.05031217042988
C           -1.81581585868303       -0.19276421820680       -0.04729008877326
O           -3.01460800928775       -0.38221382163140       -0.07087509173613
N           -0.93752049398726       -1.29580324667679       -0.03706456140013
C           -1.46513654599600       -2.63954186212132       -0.05969991529515
H            3.71936592318808        1.22222634780044        1.06785023942977
H            4.00966068834521        1.04378094776340       -0.67613435465763
H            2.69981993056248        2.10383265723192       -0.08771423482568
H            3.57488845297144       -1.66118376151145        0.04276053708302
H           -1.66799419889946        3.08892631543022       -0.02557121120371
H           -2.82792074478087        2.09827531489074       -0.95463753161662
H           -2.88117742143529        2.08144670979441        0.81453792010991
H           -1.15695344880246       -3.19020535876093        0.83231734234043
H           -1.13279538884788       -3.16991791544170       -0.95542517022503
H           -2.55001587884752       -2.55671642736912       -0.07357322300663
H            1.32595461838643       -2.99001163370562       -0.01457068696340
25
 energy: -43.818538294768 gnorm: 0.111418065822 xtb: 6.6.1 (8d0f1dd)
C            3.23846202135183        1.18326052857115        0.08585332888938
N            2.30767448022504        0.08997961984575        0.03313737982267
C            2.58105840554906       -1.25444706253876        0.02991116315836
N            1.41537773624440       -1.98973542665414        0.00024889999983
C            0.40937493289400       -1.07245327273581       -0.00925444329821
C            0.92619169156140        0.21890569809998        0.01089216045051
C            0.10873744271174        1.40068516529426       -0.00462587592891
O            0.49559114019844        2.56435658638058       -0.00290669265403
N           -1.26248487211349        1.06722032857283       -0.03132134676113
C           -2.22702032831378        2.15764499194183       -0.05007756374366
C           -1.81676923829707       -0.19002557468195       -0.04775029319926
O           -3.01037215728557       -0.37505933264373       -0.07082868562761
N           -0.92749719918273       -1.28455666872315       -0.03745171878277
C           -1.45536923347232       -2.63776883674162       -0.05994202810913
H            3.71860301862557        1.22927797579893        1.06472010790233
H            4.00933475239907        1.05251348596662       -0.67522031855312
H            2.70376625296502        2.11717171480952       -0.08643662513298
H            3.56608584544059       -1.65606700797387        0.04764760581725
H           -1.68087338984840        3.09801457329411       -0.02574635304717
H           -2.83112715640248        2.09779107799270       -0.95314343182776
H           -2.88321562530569        2.08087481998668        0.81435068579068
H           -1.14313163977904       -3.18213156257227        0.83243926649690
H           -1.11861553406464       -3.16201308697725       -0.95551153658210
H           -2.53789656086823       -2.55794847251611       -0.07412634102525
H            1.24117544248466       -3.17039420720783       -0.01450120080243
25
 energy: -43.831664345309 gnorm: 0.039916212538 xtb: 6.6.1 (8d0f1dd)
C            3.24279913092275        1.17181991163090        0.08695162757442
N            2.31064540027772        0.08492524839558        0.03112722405449
C            2.59277601191891       -1.26763276263786        0.02980091401430
N            1.40703363082969       -1.97302881649039        0.00084474626735
C            0.40146534238529       -1.07021734548092       -0.00977600863008
C            0.92381140269161        0.21485641747131        0.00991782357914
C            0.11140545284939        1.38552260250153       -0.00607423751968
O            0.49543857642400        2.55780652510044       -0.00377335994260
N           -1.26789090615383        1.05434285478952       -0.03168835418965
C           -2.22493400285858        2.15067681072579       -0.04992937285211
C           -1.82341755031577       -0.19493971260372       -0.04807817141009
O           -3.02140642227899       -0.38073151008562       -0.07110414097667
N           -0.93919768175656       -1.28969992788941       -0.03778470903048
C           -1.46288263110938       -2.63788546710390       -0.06002561075115
H            3.72383859076993        1.22469585947024        1.06782096626170
H            4.01294204104870        1.05104696221510       -0.67758172853459
H            2.69593555351571        2.09872328447502       -0.08476085717268
H            3.57403087249361       -1.67896915417504        0.04743178204216
H           -1.66654443283150        3.08431231870884       -0.02550389503369
H           -2.83107523772180        2.09756302575447       -0.95388691087665
H           -2.88304754679598        2.08075031884419        0.81553895148215
H           -1.14735577490689       -3.18193474620482        0.83270384542662
H           -1.12270497625627       -3.16208111042246       -0.95566881774053
H           -2.54713532655934       -2.55861296580381       -0.07429266754141
H            1.27253071113496       -3.03621256659655       -0.01185289524787
25
 energy: -43.832383061648 gnorm: 0.015783724907 xtb: 6.6.1 (8d0f1dd)
C            3.23372816132326        1.17193796368991        0.08522192849045
N            2.30530036031884        0.07927679727160        0.02983820364820
C            2.58608477303131       -1.28223848982374        0.03109861021260
N            1.39688030263860       -1.99914551337482        0.00078565546655
C            0.40271911736674       -1.07985968172850       -0.00924949090351
C            0.92164607242721        0.21016568517065        0.01085829931375
C            0.12001657450273        1.38423035957333       -0.00406844966849
O            0.50260697276065        2.56007202540079       -0.00134388184797
N           -1.26469983204278        1.05966922297766       -0.03055530866826
C           -2.22486495775175        2.15613610751964       -0.04997708210188
C           -1.81375612744494       -0.18848316199300       -0.04734255678062
O           -3.01250799985965       -0.37474414754330       -0.07107795114020
N           -0.93741557444542       -1.29072361429943       -0.03725507657995
C           -1.45513574454423       -2.63716294705170       -0.06001983253448
H            3.71469732469909        1.23046997891786        1.06604860239847
H            4.00675229472661        1.05267335718439       -0.67588521186760
H            2.69704373025712        2.10696157211723       -0.08808859047351
H            3.56866830223574       -1.67887233664677        0.04806856604725
H           -1.68231293971772        3.09947060511737       -0.02561705995088
H           -2.83185926508562        2.09808852954453       -0.95342281633440
H           -2.88498814345581        2.08135050413766        0.81387100103088
H           -1.13837932203090       -3.18304538536712        0.83194487653435
H           -1.11371682356435       -3.16249545349557       -0.95531354051293
H           -2.53886835640535       -2.55976832497603       -0.07426841821701
H            1.26942132777803       -3.02886759773421       -0.01389433230840
25
 energy: -43.832612449594 gnorm: 0.007735112222 xtb: 6.6.1 (8d0f1dd)
C            3.24034663431779        1.17357912678988        0.08724843245602
N            2.30646224184677        0.08596324099718        0.02970232892239
C            2.58842990346110       -1.27538153176491        0.02964731150183
N            1.39956094836370       -1.99951066961936        0.00045706517698
C            0.40468681377744       -1.07787693119589       -0.01014394165948
C            0.92165351147186        0.21408788798627        0.00990503412743
C            0.11555207834172        1.38411981627984       -0.00696730277085
O            0.48918260125103        2.56220000246545       -0.00556469988541
N           -1.26927518772254        1.05547480625232       -0.03229582716239
C           -2.22528948726803        2.15247117357310       -0.05000198003698
C           -1.81616161915389       -0.19187133216960       -0.04826274956769
O           -3.01507928712781       -0.38247845331439       -0.07094652677588
N           -0.93697992426910       -1.29126808514154       -0.03787109018409
C           -1.46155352836617       -2.63499281260478       -0.05974876115556
H            3.72520360568899        1.22492216788240        1.06697335895165
H            4.01204703494125        1.05294810590207       -0.67578531500483
H            2.70461731174515        2.10967449374699       -0.08160616803883
H            3.57360307738029       -1.66495013906983        0.04605771464424
H           -1.66870800065045        3.08721782309662       -0.02588829962479
H           -2.83222314018470        2.09799470156596       -0.95376826841753
H           -2.88269037169876        2.08093805071319        0.81627867178198
H           -1.15022812184285       -3.18254649741121        0.83300659175023
H           -1.12572779178644       -3.16329206239806       -0.95533208446690
H           -2.54557399970331       -2.55367716641238       -0.07395107129267
H            1.27520492490435       -3.03864966156088       -0.01078628001647
25
 energy: -43.832663900027 gnorm: 0.006522878010 xtb: 6.6.1 (8d0f1dd)
C            3.23964651418599        1.17177192696546        0.08520893874519
N            2.30755066241451        0.08479223021752        0.03075316227859
C            2.58862154636336       -1.27577164778795        0.03222980365791
N            1.39767191483159       -1.99599329370670        0.00084360244548
C            0.40363233545286       -1.07394292951467       -0.00906064404140
C            0.92256335386278        0.21516147828344        0.01169497297028
C            0.11734364478450        1.38504509609482       -0.00378081956598
O            0.49363096997216        2.56108788970395       -0.00081411550212
N           -1.26913230083660        1.05777383445744       -0.03052584594968
C           -2.22537378023001        2.15406438153637       -0.04992559556447
C           -1.81792749737760       -0.18902664717079       -0.04746701098366
O           -3.01726204131795       -0.37878791792667       -0.07127778843959
N           -0.93791505170865       -1.28851274614564       -0.03731083055540
C           -1.45738856894433       -2.63492253999873       -0.06041476926318
H            3.72052930914048        1.22859247438691        1.06657298635723
H            4.01148838649270        1.05015129810071       -0.67772697336034
H            2.69483174165850        2.10104780681439       -0.08959004382206
H            3.57267871854366       -1.67077823486215        0.04895364646809
H           -1.67036850178619        3.08947695298239       -0.02495728028924
H           -2.83041053895741        2.09841324304458       -0.95464888557795