25
 energy: -42.108493721828 gnorm: 0.001562083128 xtb: 6.6.1 (8d0f1dd)
C            3.16413271426331        0.87229462860911        0.16845967763794
N            2.26809510875776       -0.10319722593048        0.09268651461248
C            2.49027533507695       -1.43623197129169        0.03571311177192
N            1.30325438476346       -2.10175472325199       -0.01840351076041
C            0.30091991030093       -1.18357351634532        0.00363239732002
C            0.88581665908434        0.06962345873321        0.06735790212657
C            0.09950224977379        1.28093043126802        0.11137627595415
O            0.53565755689110        2.40551759240638        0.18100539983022
N           -1.26670381270724        0.99697967374869        0.05985752277206
C           -2.18709546617330        2.12480560889151        0.09104225808566
C           -1.87499865783851       -0.24341419925869       -0.00177461220518
O           -3.06627728710026       -0.37430275691202       -0.03389580685686
N           -1.02796855012708       -1.37313383089007       -0.02647290642733
C           -1.62222620875033       -2.69513382179862       -0.06469539720247
H            2.81338117958826        1.88716026356535        0.22149453993233
H            4.20955910254161        0.63027380510095        0.17867485885790
H            4.08331120390372        3.92463897021166       -1.08810984819588
H            3.45240696917251       -1.90479939271183        0.03796834513795
H           -1.60060898802138        3.03874162972024        0.14608369186859
H           -2.80455373073606        2.12338182168141       -0.80709126421112
H           -2.84322467061067        2.04270983628712        0.95742640697688
H           -1.31710800740460       -3.27451436767402        0.80702718962002
H           -1.34045673076196       -3.21582785039187       -0.98022354164564
H           -2.70398046504072       -2.56729066525167       -0.04742547140751
H            1.20932171525442       -3.10564485691560       -0.06054211569239
