25
 energy: 0.000000000000 xtb: 6.6.1 (8d0f1dd)
C            3.23720132972391        1.16630909158653        0.08434468864950
N            2.29877796055224        0.07527476373246        0.03981602671198
C            2.58028186251803       -1.21425391179017        0.03006175752192
N            1.43813944744728       -1.93419254010258        0.00098261751768
C            0.39035684826767       -1.05887462812143       -0.00790371763344
C            0.93510047688824        0.21347817468824        0.01709077332874
C            0.09450143016486        1.40504290868848       -0.00410946993748
O            0.49712746915594        2.54126690785742       -0.00342325656480
N           -1.25076628431515        1.06271869620815       -0.03085477937476
C           -2.21907191394203        2.15522079838987       -0.05001256521996
C           -1.81739470187490       -0.20012724136556       -0.04692818139228
O           -2.99983858926755       -0.37846413507442       -0.07008877579474
N           -0.92618577614240       -1.30210203518959       -0.03682761236648
C           -1.46982251276835       -2.64643077634382       -0.06029819901142
H            3.71247229913541        1.21471443890471        1.06488839270555
H            4.00791460421487        1.03430799217987       -0.67357688121503
H            2.69909982127087        2.09770098766290       -0.09130154035862
H            3.56654087521359       -1.63682977417947        0.04233139674524
H           -1.67107945562430        3.09322822573871       -0.02552706696334
H           -2.82428927394145        2.09428605349656       -0.95318074103337
H           -2.87644002486466        2.07745706351925        0.81450059976605
H           -1.17061985538665       -3.19584861009707        0.83242224714061
H           -1.14560246782873       -3.17511580834413       -0.95688266944647
H           -2.55549768731684       -2.55659960601237       -0.07459039105944
H            1.38130842369251       -2.94313824728853       -0.01389874052104
25
 energy: -2.164750998559 xtb: 6.6.1 (8d0f1dd)
C            3.25110099300709        1.19502288268874        0.09424281522607
N            2.32111412160969        0.10630180877777        0.04407991469345
C            2.62308840407322       -1.21709526655638        0.03604321156973
N            1.45730353631543       -1.93668065063268        0.00394399160885
C            0.41076029952263       -1.06572949348687       -0.01043687465489
C            0.94200786345150        0.21880956358742        0.01773459886445
C            0.11344795829706        1.39174500544217       -0.00453916262365
O            0.50782037089171        2.55792657886930       -0.00218515716075
N           -1.24606013891960        1.04474580701794       -0.03594313814302
C           -2.21107095223133        2.13544794445668       -0.06424735036551
C           -1.80770198697640       -0.20549469217554       -0.04714545013377
O           -3.00309216269212       -0.38928661384343       -0.07601588663130
N           -0.92974695472465       -1.30946981930809       -0.03340483281292
C           -1.54482197691469       -2.62775644178607       -0.04692816261382
H            3.75129559035449        1.22719576369479        1.06594311327041
H            4.00550049050724        1.08201478898010       -0.68602715983016
H            2.69746829585441        2.12054154760321       -0.05245516537518
H            3.60715506171319       -1.62965568587327        0.05501416230957
H           -1.65710935384924        3.07085060688629       -0.03881885623557
H           -2.80995764156424        2.07355177565144       -0.97233288323690
H           -2.87335732723538        2.06104144579291        0.79742444328808
H           -1.11392632054242       -3.24743646209599        0.74570611718384
H           -1.31409799015879       -3.14155319386328       -0.94519400671133
H           -2.67314945193340       -2.58520770940732       -0.01017545190380
H            1.40824357711705       -2.94080070167580       -0.00724891738728
25
 energy: 8.442389022372 xtb: 6.6.1 (8d0f1dd)
C            3.26692662663268        1.23034821847165        0.10866191581503
N            2.34579000130663        0.14213052218989        0.05186909123882
C            2.67469013948186       -1.21211949157361        0.04859542025529
N            1.48961694975165       -1.93321657428401        0.01155287151342
C            0.43746468535655       -1.08125387836856       -0.00908923467345
C            0.94860679488764        0.22137745821351        0.01923921898508
C            0.14105919092876        1.36897195797170       -0.00542776375615
O            0.51417047808353        2.56027022727375        0.00087920448378
N           -1.23804965719562        1.02297449834112       -0.04605233295594
C           -2.19813386107349        2.11079961363834       -0.08750126174248
C           -1.78473031972775       -0.21397456629109       -0.05241840635108
O           -2.98867189799189       -0.40249413104666       -0.08952403438758
N           -0.93093866613741       -1.32421768863233       -0.02432821601303
C           -1.64372334411984       -2.60779337536027       -0.02231813034717
H            3.81008357143218        1.23930920899849        1.06253508070455
H            3.99653769058626        1.15616553605038       -0.70583147217141
H            2.69579449561885        2.15306956864384        0.01143347894529
H            3.65967217452729       -1.60517888313555        0.07699135751933
H           -1.63969231311891        3.04404285768796       -0.05992910430862
H           -2.78735081932108        2.04387795111348       -1.00223599054308
H           -2.86894073694795        2.03756657213895        0.76815067293253
H           -1.02815255023937       -3.32705339472942        0.61248700254066
H           -1.59713181956807       -3.09003383402156       -0.95931630484463
H           -2.82786467349475       -2.60941221476521        0.11468134735941
H            1.46518216531464       -2.93512736978070        0.00392950199602
25
 energy: 24.343289750478 xtb: 6.6.1 (8d0f1dd)
C            3.27877424080860        1.26065557630270        0.12025054368628
N            2.36659101963361        0.16631630595418        0.05982272381583
C            2.71656871302788       -1.20166908358802        0.06075197854928
N            1.52792137233206       -1.92854375333661        0.02208633424426
C            0.46240323286760       -1.10127053429424       -0.00087182295486
C            0.95801866135641        0.21745276198405        0.02272362801815
C            0.16436743302128        1.35395836211268       -0.00533924675332
O            0.51791596423698        2.55678883369891        0.00430468730038
N           -1.22765311859215        1.00778377124831       -0.05647460365361
C           -2.18629638008827        2.08977112317831       -0.11027469748922
C           -1.76020444550121       -0.22602147667127       -0.06089434463420
O           -2.96871714261008       -0.41539628739725       -0.10764726360063
N           -0.92564349122731       -1.34623999568795       -0.01132619034641
C           -1.71789299451217       -2.60213647643846        0.00689976808599
H            3.86502779363697        1.24657157908226        1.05249374034727
H            3.98158077645843        1.23062277261058       -0.72663090930807
H            2.69472400488178        2.18293277287227        0.07641820588726
H            3.70784045537322       -1.57416150768653        0.09704469829455
H           -1.62689931398923        3.02196330524718       -0.08001858574851
H           -2.76579793873133        2.01526945648564       -1.03091101734303
H           -2.86478156439709        2.01434953493300        0.73926652645586
H           -0.97869388395263       -3.39415338838590        0.47217593715433
H           -1.89050575579253       -3.02677816919170       -0.97354998166993
H           -2.95095162648206       -2.62748290165473        0.24091858115310
H            1.53451829321359       -2.93155379263334        0.01581522270381
25
 energy: 38.394181175336 xtb: 6.6.1 (8d0f1dd)
C            3.28633558165331        1.28112912997947        0.12503485386446
N            2.38137659812872        0.17631825656586        0.06518965662360
C            2.74283862235701       -1.18807219377652        0.06819470083016
N            1.56407623557794       -1.92253291999725        0.03337126657439
C            0.47985865421703       -1.12104066101308        0.01448693085045
C            0.96852589859190        0.20828100577806        0.02785775706668
C            0.18077548920144        1.34724859430431       -0.00400304969261
O            0.51955891179982        2.54661760351442        0.00855674514138
N           -1.21628808932512        0.99922444239739       -0.06394303371933
C           -2.17630924968844        2.07431663489140       -0.12607270005815
C           -1.73902380574234       -0.23923206514347       -0.07183522318572
O           -2.94699174902627       -0.42609498747959       -0.12863666444416
N           -0.91989522517130       -1.37063398466038        0.00192729352841
C           -1.76541195820230       -2.60842188553990        0.02961719908878
H            3.91036581113436        1.24764517842444        1.03316463887931
H            3.96175596796832        1.29322408720338       -0.74748277338521
H            2.69616442534224        2.20310991745442        0.13061428847466
H            3.74330185482547       -1.54254883986004        0.10842446827809
H           -1.61866209293095        3.00654591988308       -0.09317269787003
H           -2.74854124031259        1.99266047173099       -1.05036416012502
H           -2.85995415109428        1.99480375683148        0.71877134777862
H           -0.99001333632946       -3.42781447587513        0.33507507077994
H           -2.09936588701384       -2.94701237107906       -0.93255725471920
H           -3.04502444343828       -2.66043883853344        0.32027322292384
H            1.60276148245002       -2.92825298725674        0.02454202871117
25
 energy: 45.757997136719 xtb: 6.6.1 (8d0f1dd)
C            3.28831205996590        1.28570806881728        0.12589631775725
N            2.38758154190549        0.17148893079889        0.06872822077394
C            2.74639510621042       -1.17538871831322        0.07395193986854
N            1.58603432047473       -1.91685237070782        0.04446034622826
C            0.48676029966808       -1.13004934871139        0.03028669055369
C            0.97786843712100        0.20065750316339        0.03223337866349
C            0.18611982351337        1.35085463324892       -0.00437039065434
O            0.51958561345659        2.53822470886249        0.00802756790830
N           -1.20647657366004        0.99634981059573       -0.06648701077069
C           -2.17135208059125        2.06647824584323       -0.13780203887121
C           -1.72755970781566       -0.25135060503364       -0.07293104318985
O           -2.93173728552555       -0.43672163316178       -0.14446800068504
N           -0.91238821865686       -1.38688831802459        0.01599740124237
C           -1.76149259836603       -2.62693786861358        0.04141425064576
H            3.92616762049661        1.24322246138985        1.01654997158543
H            3.94445203060133        1.31711018684893       -0.75279847325780
H            2.70117572526240        2.20372801423884        0.15447435981294
H            3.75327265072646       -1.52240814192544        0.11805777295856
H           -1.61838839699417        3.00099350796372       -0.10525763867227
H           -2.73996391840134        1.98034656314142       -1.06342853609136
H           -2.85813317445555        1.98768756769152        0.70437430621203
H           -0.99332056539294       -3.44360495117702        0.20277474675110
H           -2.22675760679086       -2.83663254210951       -0.89654513889901
H           -3.08767440669009       -2.70335418639449        0.39888778531430
H            1.64373360891029       -2.92363272968767        0.03500712701017
25
 energy: 51.617265643364 xtb: 6.6.1 (8d0f1dd)
C            3.28745627157363        1.28086904245941        0.12301585189691
N            2.38727745914101        0.16156681851197        0.07146518575138
C            2.73670348064240       -1.16605291914662        0.07916837784664
N            1.59237729448764       -1.91388685798231        0.05899022839418
C            0.48670302178136       -1.12790032069768        0.05076314535320
C            0.98276622192712        0.19904290764939        0.03857257972100
C            0.18436199870269        1.35549537047450       -0.00550046977409
O            0.51992985214488        2.53437802027070        0.00205712446048
N           -1.19945643572922        0.99440698608266       -0.06667287209779
C           -2.16911531178247        2.06364070778103       -0.14775782214531
C           -1.72400894040060       -0.25883902768291       -0.06617496614055
O           -2.92329529843174       -0.44533837363142       -0.14824295020490
N           -0.90321931687605       -1.38967288395911        0.04012317657187
C           -1.72855412266767       -2.64207607709653        0.04364785443397
H            3.93023825146467        1.23203727338629        1.00530949412995
H            3.92971419339847        1.31526684875537       -0.76036666705012
H            2.70005919719205        2.19557173578393        0.16143379849589
H            3.74498002340099       -1.51587246087753        0.12617231328969
H           -1.62142390338118        3.00179647412073       -0.11852482255606
H           -2.73613678815017        1.97479276795067       -1.07391492708254
H           -2.85826177085817        1.99061581205448        0.69301996222735
H           -0.97078642930716       -3.46547619446244        0.07106577354744
H           -2.28827672756890       -2.71049507574812       -0.85913142255874
H           -3.10017961887036       -2.75476375402905        0.45663281211510
H            1.65236170313914       -2.92007803122331        0.05188315356958
25
 energy: 57.080436998584 xtb: 6.6.1 (8d0f1dd)
C            3.28704803702750        1.27835184611037        0.11991706737836
N            2.38734874095800        0.15693171158930        0.07117309105010
C            2.73235432962302       -1.16184769132158        0.07997558704673
N            1.59419674304099       -1.91538178371390        0.06701461422452
C            0.48850212422360       -1.12389910569648        0.06266735443923
C            0.98509465611126        0.20097880935724        0.04216570876440
C            0.18093744231385        1.35558497110596       -0.00600442898948
O            0.52061587641137        2.53479855161561       -0.00203482824507
N           -1.19598385866040        0.99036074629198       -0.06668411843651
C           -2.16847683963228        2.06053155992532       -0.14969887777291
C           -1.72213971589936       -0.26395577825638       -0.06225307825685
O           -2.91858425684318       -0.45373570940487       -0.14754086633059
N           -0.89161265116288       -1.38775645381515        0.05654333279056
C           -1.70128044041021       -2.64718204072142        0.03595250377301
H            3.92771712097253        1.22962536336353        1.00274247254498
H            3.92735495083258        1.30802497447941       -0.76383768442167
H            2.69763869193202        2.19148199719980        0.15525826805754
H            3.73949186317125       -1.51747055373901        0.12879064768216
H           -1.62347932558553        3.00099502075625       -0.12206969850560
H           -2.73577914435627        1.97201795664091       -1.07563305371585
H           -2.85767673971845        1.99034584063449        0.69126712132514
H           -0.97168837566259       -3.45295945906768       -0.00615291712585
H           -2.30763158780566       -2.64039595762964       -0.81087762512030
H           -3.10835486171799       -2.79543522790857        0.46426509180224
H            1.64660152580915       -2.92098079905133        0.06208822823626
25
 energy: 65.466867956824 xtb: 6.6.1 (8d0f1dd)
C            3.28768829461303        1.27554011534917        0.11893995484975
N            2.38824211665610        0.15597218387365        0.07142614356750
C            2.73107693542373       -1.16093974449941        0.08509890114336
N            1.59313431582945       -1.91880334988963        0.07947041079605
C            0.49296953519148       -1.11607819740092        0.07773205400862
C            0.98655788057456        0.20746341770781        0.04573376011003
C            0.17616186174938        1.35558624145972       -0.00929722292558
O            0.52239039308725        2.54128069915244       -0.01462934118752
N           -1.19487439626233        0.98652301870914       -0.06819587107028
C           -2.16972842596179        2.05889531074210       -0.15785472418918
C           -1.72034297443248       -0.26760422198087       -0.04904789346781
O           -2.91575385867921       -0.46364670818171       -0.14299586480422
N           -0.87525121659872       -1.38270196669720        0.08985922416392
C           -1.66049399030159       -2.65088104223268        0.03275518651074
H            3.91426912376858        1.23395851431201        1.00988424372886
H            3.93571868301765        1.28790495348048       -0.75648082933281
H            2.69714117071032        2.18591101381579        0.13437418738492
H            3.73408110531403       -1.52562851432602        0.13980581641740
H           -1.62699434901538        3.00182632508959       -0.13449249379500
H           -2.73711942468652        1.96906804974885       -1.08379445115557
H           -2.85937039097851        1.99503248020562        0.68335345554952
H           -0.90350723071352       -3.48215802925787       -0.13680431155768
H           -2.38865512487143       -2.51491870526761       -0.78248691084847
H           -3.12520378317944       -2.85939066963203        0.51388028481306
H            1.63007805471772       -2.92318238553629        0.08080020348496
25
 energy: 63.821980709029 xtb: 6.6.1 (8d0f1dd)
C            3.28761978457412        1.27729900566294        0.12036861694347
N            2.38775133181048        0.15878010075930        0.07005242073594
C            2.73430528562853       -1.16366793710042        0.08066055573973
N            1.59119795723006       -1.91877043530108        0.07138840772430
C            0.49143629085852       -1.11772444017645        0.06666907719226
C            0.98501757146992        0.20644139945502        0.04384699812745
C            0.17715385441563        1.35445783472188       -0.00776895716704
O            0.52400045571822        2.53949030727446       -0.01030986818723
N           -1.19658491287192        0.98945978597179       -0.06786115215988
C           -2.16965113566582        2.06153063023126       -0.15277824825772
C           -1.72160092206636       -0.26302549590925       -0.05416223154266
O           -2.91842622724944       -0.45618386128872       -0.14296031857347
N           -0.88085715604042       -1.38290878683936        0.07480655896314
C           -1.67555565000589       -2.64616478900631        0.02748839360504
H            3.91531056740095        1.23687324231307        1.01386643642115
H            3.94025465657005        1.29181447349472       -0.75566389784449
H            2.69645417173241        2.19041430692550        0.13619973914927
H            3.73754123506860       -1.52610077913267        0.13351974793305
H           -1.62463397657655        3.00253490024552       -0.12734915660576
H           -2.73737365717632        1.97229672820139       -1.07860004142701
H           -2.85830813938956        1.99352772945513        0.68878549884655
H           -0.92475150683304       -3.46153628914292       -0.08354650492795
H           -2.34377285377051       -2.57377441578312       -0.77538619166622
H           -3.13295868759274       -2.85218207746265        0.48521711235237
H            1.62864596773337       -2.92385234882494        0.07055091682022
25
 energy: 67.079390900994 xtb: 6.6.1 (8d0f1dd)
C            3.28917487061500        1.27955394785482        0.12233964251141
N            2.38996790905392        0.16197116662608        0.06925836543073
C            2.73990463138769       -1.16388169945255        0.07832699937688
N            1.59349615890112       -1.91859656228869        0.06780672637482
C            0.49566154471572       -1.11646830435566        0.06075621253365
C            0.98688628029117        0.20797898549347        0.04307953269261
C            0.17685554875670        1.35349281393639       -0.00857015998865
O            0.52518478455152        2.54005012419180       -0.01027170387775
N           -1.19644959435313        0.98859219019235       -0.06909950498560
C           -2.16989146372684        2.06050167362501       -0.15104499115640
C           -1.71882353060472       -0.26419071106335       -0.05648070532235
O           -2.91614041738337       -0.45973820089423       -0.14107940842118
N           -0.87475536382888       -1.38447213144689        0.07113046828654
C           -1.66438617603321       -2.64794632412064        0.02239489502677
H            3.91121010425057        1.24366456986372        1.02172250698076
H            3.94959434743344        1.28941746016029       -0.75007327811417
H            2.69683946019923        2.19357587771160        0.12984068208061
H            3.74202584295515       -1.52665148445755        0.13180503756808
H           -1.62429770188208        3.00109951104585       -0.12473233281225
H           -2.73816855113242        1.97232780806302       -1.07660019987832
H           -2.85796533538352        1.99088404161250        0.69082069660903
H           -0.93441149179341       -3.44293549310089       -0.07794299656578
H           -2.36095585737569       -2.57428218417348       -0.75989617124109
H           -3.15448651286739       -2.87111595151040        0.47732262338539
H            1.62614481822576       -2.92380233476852        0.06622097570075
25
 energy: 82.696976338533 xtb: 6.6.1 (8d0f1dd)
C            3.29349608032406        1.28421703633595        0.12730323460997
N            2.39483812785217        0.17176971936093        0.06796976848084
C            2.75574674686186       -1.16439755856608        0.07227470404951
N            1.59779820344943       -1.91736401698721        0.06103925603950
C            0.50721770433204       -1.10904327930793        0.04662303224924
C            0.99204148201149        0.21471436757697        0.04516110761048
C            0.17452846924667        1.35216543333051       -0.01028959001645
O            0.53181366840579        2.54241813711411       -0.01330913250140
N           -1.19545366238333        0.99023425631310       -0.07266314551246
C           -2.16971037464675        2.06204912552016       -0.14872277948064
C           -1.71045201209364       -0.26294069698797       -0.05875719454915
O           -2.90881809358080       -0.46528214924907       -0.13341206279672
N           -0.85382665238153       -1.38535570086105        0.06914465013397
C           -1.61773417778010       -2.64879988832767       -0.00190733927392
H            3.89831906500558        1.26443709970543        1.04766807992040
H            3.98093396950577        1.27517263570382       -0.73480202212929
H            2.69783608276969        2.20351359207767        0.10529933245283
H            3.75333975639374       -1.52925573996566        0.12749713767554
H           -1.62241058327081        3.00138546040680       -0.12115075394663
H           -2.73893960288327        1.97452402831565       -1.07378373762467
H           -2.85638432359172        1.98806345221087        0.69372467630048
H           -0.92288205936540       -3.41421487520888       -0.11549193912901
H           -2.40615848253689       -2.54106992902494       -0.66988462129768
H           -3.27424408473765       -2.97439370015568        0.46030515321667
H            1.61131905806600       -2.92351802058570        0.05719809771310
25
 energy: 93.981526833481 xtb: 6.6.1 (8d0f1dd)
C            3.29755415053320        1.28715364320152        0.13185071760801
N            2.39977176673451        0.17891332787564        0.06817400760800
C            2.76815080445596       -1.16114905780827        0.06906669870184
N            1.60499690530217       -1.91411167446048        0.05640038686844
C            0.51965576634893       -1.09941792537974        0.03304294158493
C            0.99966236064569        0.22278578725176        0.04675900412190
C            0.17325868544570        1.35422480280293       -0.01257339819582
O            0.53827931440568        2.54570846464412       -0.01435678502185
N           -1.19033631358788        0.99364325227261       -0.07625191657472
C           -2.16858860900424        2.06326839124565       -0.14665049600943
C           -1.69871351375052       -0.26211676455803       -0.06377735338697
O           -2.89649346591533       -0.46916426215600       -0.13059005485636
N           -0.82651527817920       -1.38411985884263        0.06162999407092
C           -1.55664778691343       -2.64504492237680       -0.02460416692206
H            3.88868047292158        1.27847455280061        1.06773931783941
H            4.00442576081035        1.26310216137581       -0.72262897536649
H            2.69989641536826        2.21077731435250        0.08803447827556
H            3.76221365672360       -1.52793842767376        0.12609254679930
H           -1.62322488374811        3.00340246824193       -0.11771366113797
H           -2.73887651163271        1.97563821178445       -1.07100948004097
H           -2.85447750407062        1.98424983214261        0.69585433651173
H           -0.89244245097907       -3.39127963099817       -0.17511875338622
H           -2.47132249224769       -2.50309203848377       -0.55005321201272
H           -3.42857820159056       -3.09366678032195        0.43753745762085
H            1.60188525689609       -2.92121207818840        0.05018027749520
25
 energy: 96.788968586111 xtb: 6.6.1 (8d0f1dd)
C            3.30039945478410        1.28841293695612        0.13299360744019
N            2.40329685731179        0.18272748176708        0.06876510583560
C            2.77537311451649       -1.15655246642499        0.06768122001149
N            1.61297518404270       -1.91054969531331        0.05218740881822
C            0.52866205491623       -1.09108669214735        0.02338248908548
C            1.00710446732083        0.23037972536838        0.04713165969561
C            0.17353779828433        1.35845806136180       -0.01322846135351
O            0.54252183860182        2.54955316734309       -0.01314407930518
N           -1.18475011712870        0.99865318264750       -0.07627763500575
C           -2.16740406537627        2.06505285158935       -0.14306589591034
C           -1.68918880949908       -0.25955090371853       -0.06652805771512
O           -2.88598898534207       -0.46906208357061       -0.12755137231893
N           -0.80408045457503       -1.38102739404759        0.05156414781656
C           -1.50524332852957       -2.62977419750975       -0.03890779917170
H            3.88475816341969        1.28493773191080        1.07614446735852
H            4.01669841890415        1.25758224050914       -0.71768696833584
H            2.70223110105652        2.21474667155272        0.07938879882156
H            3.76811013412089       -1.52356683764846        0.12372713965852
H           -1.62479041382288        3.00628083056547       -0.11338181639758
H           -2.73883116211346        1.97626598790115       -1.06664313179485
H           -2.85266713541073        1.98161358080374        0.69947691855423
H           -0.86299069488878       -3.39085979565841       -0.21452839074128
H           -2.50594619102703       -2.50336198809605       -0.41965894077984
H           -3.58183820898070       -3.17182103714898        0.37230795813311
H            1.60026528438712       -2.91842257024823        0.04288553979540
25
 energy: 95.170684041936 xtb: 6.6.1 (8d0f1dd)
C            3.30269524648041        1.28876704244356        0.13326220830879
N            2.40631568089412        0.18394435045769        0.06972217349426
C            2.77880686873622       -1.15093529186548        0.06690522358712
N            1.62248409827138       -1.90670801742350        0.04649302942486
C            0.53586069208893       -1.08404901204344        0.01206930613165
C            1.01446127457190        0.23805073927490        0.04582598110899
C            0.17517078626435        1.36353508990488       -0.01243262139367
O            0.54509917082373        2.55450543345524       -0.00919958188484
N           -1.17970177647854        1.00229691062141       -0.07397461875747
C           -2.16621459300279        2.06595475121657       -0.13795364453219
C           -1.68242450477938       -0.25745710861552       -0.07004848473651
O           -2.87832463106198       -0.46882634736763       -0.12480539939284
N           -0.78604975994330       -1.37985297318696        0.03347828243811
C           -1.45322004890933       -2.61276518424380       -0.04901258505464
H            3.88404619060242        1.28656129028376        1.07886626580074
H            4.02192270330921        1.25620752511097       -0.71595888892307
H            2.70394394121156        2.21615074684041        0.07717898763970
H            3.77174697812974       -1.51753845924943        0.12026797219298
H           -1.62637089674977        3.00844588114424       -0.10730861153538
H           -2.73876442785081        1.97699178824659       -1.06088247729714
H           -2.85110013485913        1.97915604581434        0.70459399419527
H           -0.83751801176232       -3.39185895541588       -0.22692599171862
H           -2.52721668619816       -2.53258531385885       -0.29059790615455
H           -3.72782666245080       -3.21386441780602        0.28317757321802
H            1.60439280763473       -2.91509772499398        0.03429372603498
25