      -----------------------------------------------------------      
     |                   =====================                   |     
     |                           x T B                           |     
     |                   =====================                   |     
     |                         S. Grimme                         |     
     |          Mulliken Center for Theoretical Chemistry        |     
     |                    University of Bonn                     |     
      -----------------------------------------------------------      

   * xtb version 6.6.1 (8d0f1dd) compiled by 'conda@1efc2f54142f' on 2023-08-01

   xtb is free software: you can redistribute it and/or modify it under
   the terms of the GNU Lesser General Public License as published by
   the Free Software Foundation, either version 3 of the License, or
   (at your option) any later version.
   
   xtb is distributed in the hope that it will be useful,
   but WITHOUT ANY WARRANTY; without even the implied warranty of
   MERCHANTABILITY or FITNESS FOR A PARTICULAR PURPOSE.  See the
   GNU Lesser General Public License for more details.
   
   Cite this work as:
   * C. Bannwarth, E. Caldeweyher, S. Ehlert, A. Hansen, P. Pracht,
     J. Seibert, S. Spicher, S. Grimme, WIREs Comput. Mol. Sci., 2020, 11,
     e01493. DOI: 10.1002/wcms.1493
   
   for GFN2-xTB:
   * C. Bannwarth, S. Ehlert and S. Grimme., J. Chem. Theory Comput., 2019,
     15, 1652-1671. DOI: 10.1021/acs.jctc.8b01176
   for GFN1-xTB:
   * S. Grimme, C. Bannwarth, P. Shushkov, J. Chem. Theory Comput., 2017,
     13, 1989-2009. DOI: 10.1021/acs.jctc.7b00118
   for GFN0-xTB:
   * P. Pracht, E. Caldeweyher, S. Ehlert, S. Grimme, ChemRxiv, 2019, preprint.
     DOI: 10.26434/chemrxiv.8326202.v1
   for GFN-FF:
   * S. Spicher and S. Grimme, Angew. Chem. Int. Ed., 2020, 59, 15665-15673.
     DOI: 10.1002/anie.202004239
   
   for ALPB and GBSA implicit solvation:
   * S. Ehlert, M. Stahn, S. Spicher, S. Grimme, J. Chem. Theory Comput.,
     2021, 17, 4250-4261. DOI: 10.1021/acs.jctc.1c00471
   
   for DFT-D4:
   * E. Caldeweyher, C. Bannwarth and S. Grimme, J. Chem. Phys., 2017,
     147, 034112. DOI: 10.1063/1.4993215
   * E. Caldeweyher, S. Ehlert, A. Hansen, H. Neugebauer, S. Spicher,
     C. Bannwarth and S. Grimme, J. Chem. Phys., 2019, 150, 154122.
     DOI: 10.1063/1.5090222
   * E. Caldeweyher, J.-M. Mewes, S. Ehlert and S. Grimme, Phys. Chem. Chem. Phys.
     2020, 22, 8499-8512. DOI: 10.1039/D0CP00502A
   
   for sTDA-xTB:
   * S. Grimme and C. Bannwarth, J. Chem. Phys., 2016, 145, 054103.
     DOI: 10.1063/1.4959605
   
   in the mass-spec context:
   * V. Asgeirsson, C. Bauer and S. Grimme, Chem. Sci., 2017, 8, 4879.
     DOI: 10.1039/c7sc00601b
   * J. Koopman and S. Grimme, ACS Omega 2019, 4, 12, 15120-15133.
     DOI: 10.1021/acsomega.9b02011
   
   for metadynamics refer to:
   * S. Grimme, J. Chem. Theory Comput., 2019, 155, 2847-2862
     DOI: 10.1021/acs.jctc.9b00143
   
   for SPH calculations refer to:
   * S. Spicher and S. Grimme, J. Chem. Theory Comput., 2021, 17, 1701-1714
     DOI: 10.1021/acs.jctc.0c01306
   
   with help from (in alphabetical order)
   P. Atkinson, C. Bannwarth, F. Bohle, G. Brandenburg, E. Caldeweyher
   M. Checinski, S. Dohm, S. Ehlert, S. Ehrlich, I. Gerasimov, C. Hölzer
   A. Katbashev, J. Koopman, C. Lavigne, S. Lehtola, F. März, M. Müller,
   F. Musil, H. Neugebauer, J. Pisarek, C. Plett, P. Pracht, F. Pultar,
   J. Seibert, P. Shushkov, S. Spicher, M. Stahn, M. Steiner, T. Strunk,
   J. Stückrath, T. Rose, and J. Unsleber
   
 * started run on 2024/04/06 at 11:16:32.667     

           -------------------------------------------------
          |                Calculation Setup                |
           -------------------------------------------------

          program call               : xtb struc.xyz --opt loose --input .xc1 --gfn2
          hostname                   : n-62-30-23
          coordinate file            : struc.xyz
          omp threads                :                     1

   ID    Z sym.   atoms
    1    7 N      1, 17
    2    6 C      2-6, 8, 9, 11-16, 18-23, 25, 26, 28-33
    3    8 O      7, 10, 24, 27
    4    1 H      34-72
constraining bond 16 50 to    3.7133300 Å, actual value:    2.5083486 Å

           -------------------------------------------------
          |                 G F N 2 - x T B                 |
           -------------------------------------------------

        Reference                      10.1021/acs.jctc.8b01176
      * Hamiltonian:
        H0-scaling (s, p, d)           1.850000    2.230000    2.230000
        zeta-weighting                 0.500000
      * Dispersion:
        s8                             2.700000
        a1                             0.520000
        a2                             5.000000
        s9                             5.000000
      * Repulsion:
        kExp                           1.500000    1.000000
        rExp                           1.000000
      * Coulomb:
        alpha                          2.000000
        third order                    shell-resolved
        anisotropic                    true
        a3                             3.000000
        a5                             4.000000
        cn-shift                       1.200000
        cn-exp                         4.000000
        max-rad                        5.000000


          ...................................................
          :                      SETUP                      :
          :.................................................:
          :  # basis functions                 171          :
          :  # atomic orbitals                 171          :
          :  # shells                          105          :
          :  # electrons                       180          :
          :  max. iterations                   250          :
          :  Hamiltonian                  GFN2-xTB          :
          :  restarted?                      false          :
          :  GBSA solvation                  false          :
          :  PC potential                    false          :
          :  electronic temp.         5000.0000000     K    :
          :  accuracy                    1.0000000          :
          :  -> integral cutoff          0.2500000E+02      :
          :  -> integral neglect         0.1000000E-07      :
          :  -> SCF convergence          0.1000000E-05 Eh   :
          :  -> wf. convergence          0.1000000E-03 e    :
          :  Broyden damping             0.4000000          :
          ...................................................

 iter      E             dE          RMSdq      gap      omega  full diag
   1   -100.5973919 -0.100597E+03  0.374E+00    3.20       0.0  T
   2   -100.7362642 -0.138872E+00  0.221E+00    1.08       1.0  T
   3   -100.7049001  0.313641E-01  0.141E+00    3.29       1.0  T
   4   -100.7721690 -0.672689E-01  0.526E-01    1.50       1.0  T
   5   -100.7894292 -0.172602E-01  0.190E-01    1.98       1.0  T
   6   -100.7911978 -0.176856E-02  0.792E-02    1.77       1.0  T
   7   -100.7914750 -0.277198E-03  0.375E-02    1.83       1.0  T
   8   -100.7914914 -0.164582E-04  0.140E-02    1.83       1.0  T
   9   -100.7914976 -0.616739E-05  0.474E-03    1.82       2.5  T
  10   -100.7914988 -0.118227E-05  0.172E-03    1.82       6.8  T
  11   -100.7914989 -0.139928E-06  0.766E-04    1.82      15.4  T
  12   -100.7914989 -0.773143E-08  0.318E-04    1.82      37.0  T

   *** convergence criteria satisfied after 12 iterations ***

         #    Occupation            Energy/Eh            Energy/eV
      -------------------------------------------------------------
         1        2.0000           -0.8078051             -21.9815
       ...           ...                  ...                  ...
        84        1.9966           -0.5157491             -14.0342
        85        1.9959           -0.5128261             -13.9547
        86        1.9840           -0.4911498             -13.3649
        87        1.9795           -0.4872543             -13.2589
        88        1.9640           -0.4782114             -13.0128
        89        1.8920           -0.4602041             -12.5228
        90        1.8557           -0.4553147             -12.3897 (HOMO)
        91        0.3166           -0.3884132             -10.5693 (LUMO)
        92        0.0218           -0.3434697              -9.3463
        93        0.0041           -0.3169887              -8.6257
        94        0.0034           -0.3139726              -8.5436
        95        0.0029           -0.3112618              -8.4699
       ...           ...                  ...                  ...
       171                          0.5822580              15.8440
      -------------------------------------------------------------
                  HL-Gap            0.0669015 Eh            1.8205 eV
             Fermi-level           -0.4148687 Eh          -11.2892 eV

 SCC (total)                   0 d,  0 h,  0 min,  0.191 sec
 SCC setup                      ...        0 min,  0.001 sec (  0.626%)
 Dispersion                     ...        0 min,  0.002 sec (  1.072%)
 classical contributions        ...        0 min,  0.001 sec (  0.274%)
 integral evaluation            ...        0 min,  0.019 sec (  9.768%)
 iterations                     ...        0 min,  0.098 sec ( 51.389%)
 molecular gradient             ...        0 min,  0.070 sec ( 36.530%)
 printout                       ...        0 min,  0.001 sec (  0.332%)

         :::::::::::::::::::::::::::::::::::::::::::::::::::::
         ::                     SUMMARY                     ::
         :::::::::::::::::::::::::::::::::::::::::::::::::::::
         :: total energy             -99.663386616307 Eh    ::
         :: gradient norm              0.318175868494 Eh/a0 ::
         :: HOMO-LUMO gap              1.820481192090 eV    ::
         ::.................................................::
         :: SCC energy              -100.791498925389 Eh    ::
         :: -> isotropic ES            0.109302908418 Eh    ::
         :: -> anisotropic ES          0.005415138735 Eh    ::
         :: -> anisotropic XC          0.042392697176 Eh    ::
         :: -> dispersion             -0.075527661009 Eh    ::
         :: repulsion energy           1.386151658689 Eh    ::
         :: add. restraining          -0.259255702113 Eh    ::
         :: total charge               1.000000000108 e     ::
         :::::::::::::::::::::::::::::::::::::::::::::::::::::

      ----------------------------------------------------------- 
     |                   =====================                   |
     |                        A N C O P T                        |
     |                   =====================                   |
     |               Approximate Normal Coordinate               |
     |                Rational Function Optimizer                |
      ----------------------------------------------------------- 

          ...................................................
          :                      SETUP                      :
          :.................................................:
          :   optimization level             loose          :
          :   max. optcycles                   200          :
          :   ANC micro-cycles                  20          :
          :   degrees of freedom               210          :
          :.................................................:
          :   RF solver                   davidson          :
          :   write xtbopt.log                true          :
          :   linear?                        false          :
          :   energy convergence         0.5000000E-04 Eh   :
          :   grad. convergence          0.4000000E-02 Eh/α :
          :   maxmium RF displ.          1.0000000          :
          :   Hlow (freq-cutoff)         0.1000000E-01      :
          :   Hmax (freq-cutoff)         5.0000000          :
          :   S6 in model hess.         20.0000000          :
          ...................................................

generating ANC from model Hessian ...
Using Lindh-Hessian (1995)
 Shifting diagonal of input Hessian by    6.9795420146507581E-002
 Lowest  eigenvalues of input Hessian
    0.010000    0.000000    0.000000    0.000000    0.000000    0.000000
    0.000000    0.069850    0.069869    0.069966    0.070107    0.070148
    0.070665    0.070799    0.071006    0.071277    0.071707    0.071806
 Highest eigenvalues
    2.094199    2.105754    2.111373    2.239239    2.244294    2.246851


........................................................................
.............................. CYCLE    1 ..............................
........................................................................

 iter      E             dE          RMSdq      gap      omega  full diag
   1   -100.7914989 -0.100791E+03  0.114E-04    1.82       0.0  T
   2   -100.7914989 -0.678995E-10  0.713E-05    1.82     165.2  T
   3   -100.7914989  0.665210E-10  0.496E-05    1.82     237.5  T
     SCC iter.                  ...        0 min,  0.026 sec
     gradient                   ...        0 min,  0.069 sec
 * total energy  :   -99.6633866 Eh     change       -0.4035485E-08 Eh
   gradient norm :     0.3181755 Eh/α   predicted     0.0000000E+00 (-100.00%)
   displ. norm   :     0.9420404 α      lambda       -0.2696503E+00
   maximum displ.:     0.9136726 α      in ANC's #1, #99, #57, ...

........................................................................
.............................. CYCLE    2 ..............................
........................................................................

 iter      E             dE          RMSdq      gap      omega  full diag
   1   -100.7500324 -0.100750E+03  0.461E-01    1.76       0.0  T
   2   -100.7514595 -0.142713E-02  0.273E-01    1.80       1.0  T
   3   -100.7512133  0.246173E-03  0.120E-01    1.70       1.0  T
   4   -100.7512635 -0.501706E-04  0.642E-02    1.86       1.0  T
   5   -100.7517274 -0.463849E-03  0.192E-02    1.76       1.0  T
   6   -100.7517449 -0.175132E-04  0.769E-03    1.77       1.5  T
   7   -100.7517459 -0.983786E-06  0.374E-03    1.77       3.1  T
   8   -100.7517466 -0.738760E-06  0.758E-04    1.77      15.5  T
   9   -100.7517466 -0.126068E-07  0.373E-04    1.77      31.6  T
     SCC iter.                  ...        0 min,  0.073 sec
     gradient                   ...        0 min,  0.069 sec
 * total energy  :   -99.9606342 Eh     change       -0.2972476E+00 Eh
   gradient norm :     0.3679116 Eh/α   predicted    -0.2544816E+00 ( -14.39%)
   displ. norm   :     0.9551599 α      lambda       -0.3236294E+00
   maximum displ.:     0.9344786 α      in ANC's #1, #99, #57, ...

........................................................................
.............................. CYCLE    3 ..............................
........................................................................

 iter      E             dE          RMSdq      gap      omega  full diag
   1   -100.5991778 -0.100599E+03  0.534E-01    1.50       0.0  T
   2   -100.6058206 -0.664286E-02  0.266E-01    1.61       1.0  T
   3   -100.6061223 -0.301644E-03  0.192E-01    1.46       1.0  T
   4   -100.6056882  0.434095E-03  0.116E-01    1.68       1.0  T
   5   -100.6070302 -0.134198E-02  0.573E-02    1.50       1.0  T
   6   -100.6072525 -0.222296E-03  0.136E-02    1.55       1.0  T
   7   -100.6072554 -0.294704E-05  0.636E-03    1.54       1.9  T
   8   -100.6072583 -0.287547E-05  0.200E-03    1.55       5.9  T
   9   -100.6072585 -0.176237E-06  0.842E-04    1.55      14.0  T
  10   -100.6072585 -0.150885E-07  0.318E-04    1.55      37.1  T
     SCC iter.                  ...        0 min,  0.081 sec
     gradient                   ...        0 min,  0.069 sec
 * total energy  :  -100.2959885 Eh     change       -0.3353543E+00 Eh
   gradient norm :     0.4261054 Eh/α   predicted    -0.3094432E+00 (  -7.73%)
   displ. norm   :     0.9391632 α      lambda       -0.3540682E+00
   maximum displ.:     0.9102407 α      in ANC's #1, #99, #199, ...

........................................................................
.............................. CYCLE    4 ..............................
........................................................................

 iter      E             dE          RMSdq      gap      omega  full diag
   1   -100.4861273 -0.100486E+03  0.121E+00    0.46       0.0  T
   2   -100.4681243  0.180030E-01  0.569E-01    1.17       1.0  T
   3   -100.4646595  0.346478E-02  0.910E-01    0.33       1.0  T
   4   -100.5011669 -0.365074E-01  0.159E-01    0.68       1.0  T
   5   -100.5022320 -0.106510E-02  0.763E-02    0.67       1.0  T
   6   -100.5019554  0.276607E-03  0.652E-02    0.70       1.0  T
   7   -100.5024581 -0.502690E-03  0.119E-02    0.70       1.0  T
   8   -100.5024619 -0.385906E-05  0.766E-03    0.69       1.5  T
   9   -100.5024662 -0.421566E-05  0.284E-03    0.69       4.2  T
  10   -100.5024664 -0.278409E-06  0.123E-03    0.69       9.6  T
  11   -100.5024665 -0.488167E-07  0.307E-04    0.69      38.4  T
  12   -100.5024665 -0.409493E-08  0.141E-04    0.69      83.4  T
     SCC iter.                  ...        0 min,  0.097 sec
     gradient                   ...        0 min,  0.069 sec
 * total energy  :  -100.3807163 Eh     change       -0.8472786E-01 Eh
   gradient norm :     1.4552500 Eh/α   predicted    -0.3331831E+00 ( 293.24%)
   displ. norm   :     0.4865269 α      lambda       -0.6893152E+00
   maximum displ.:     0.4051192 α      in ANC's #1, #188, #130, ...

........................................................................
.............................. CYCLE    5 ..............................
........................................................................

 iter      E             dE          RMSdq      gap      omega  full diag
   1   -100.5240606 -0.100524E+03  0.788E-01    1.45       0.0  T
   2   -100.5141567  0.990395E-02  0.523E-01    0.61       1.0  T
   3   -100.5360879 -0.219313E-01  0.421E-01    1.36       1.0  T
   4   -100.5429964 -0.690845E-02  0.122E-01    1.10       1.0  T
   5   -100.5435679 -0.571558E-03  0.732E-02    1.05       1.0  T
   6   -100.5442064 -0.638492E-03  0.158E-02    1.05       1.0  T
   7   -100.5442150 -0.859226E-05  0.760E-03    1.06       1.6  T
   8   -100.5442182 -0.321334E-05  0.207E-03    1.06       5.7  T
   9   -100.5442183 -0.112060E-06  0.941E-04    1.06      12.5  T
  10   -100.5442184 -0.319451E-07  0.390E-04    1.06      30.2  T
     SCC iter.                  ...        0 min,  0.081 sec
     gradient                   ...        0 min,  0.069 sec
 * total energy  :  -100.4683570 Eh     change       -0.8764068E-01 Eh
   gradient norm :     0.4153593 Eh/α   predicted    -0.4262413E+00 ( 386.35%)
   displ. norm   :     0.3635222 α      lambda       -0.7187877E-01
   maximum displ.:     0.1648767 α      in ANC's #82, #43, #83, ...

........................................................................
.............................. CYCLE    6 ..............................
........................................................................

 iter      E             dE          RMSdq      gap      omega  full diag
   1   -100.5261062 -0.100526E+03  0.481E-01    0.50       0.0  T
   2   -100.5106666  0.154396E-01  0.539E-01    1.13       1.0  T
   3   -100.5398744 -0.292079E-01  0.136E-01    0.72       1.0  T
   4   -100.5402602 -0.385807E-03  0.732E-02    0.75       1.0  T
   5   -100.5403245 -0.642475E-04  0.419E-02    0.79       1.0  T
   6   -100.5405307 -0.206166E-03  0.132E-02    0.76       1.0  T
   7   -100.5405424 -0.117039E-04  0.487E-03    0.77       2.4  T
   8   -100.5405433 -0.959932E-06  0.214E-03    0.76       5.5  T
   9   -100.5405436 -0.275937E-06  0.597E-04    0.76      19.7  T
  10   -100.5405436 -0.238798E-07  0.255E-04    0.76      46.3  T
     SCC iter.                  ...        0 min,  0.081 sec
     gradient                   ...        0 min,  0.070 sec
 * total energy  :  -100.5322341 Eh     change       -0.6387710E-01 Eh
   gradient norm :     0.3323438 Eh/α   predicted    -0.4068871E-01 ( -36.30%)
   displ. norm   :     0.7126166 α      lambda       -0.1473799E+00
   maximum displ.:     0.4231024 α      in ANC's #1, #43, #82, ...

........................................................................
.............................. CYCLE    7 ..............................
........................................................................

 iter      E             dE          RMSdq      gap      omega  full diag
   1   -100.5302649 -0.100530E+03  0.873E-01    0.56       0.0  T
   2   -100.4962646  0.340003E-01  0.906E-01    0.78       1.0  T
   3   -100.5552452 -0.589806E-01  0.500E-01    0.32       1.0  T
   4   -100.5615607 -0.631550E-02  0.213E-01    0.10       1.0  T
   5   -100.5671589 -0.559822E-02  0.812E-02    0.07       1.0  T
   6   -100.5679724 -0.813470E-03  0.263E-02    0.07       1.0  T
   7   -100.5680275 -0.551626E-04  0.110E-02    0.08       1.1  T
   8   -100.5680322 -0.464524E-05  0.391E-03    0.08       3.0  T
   9   -100.5680332 -0.989297E-06  0.143E-03    0.07       8.3  T
  10   -100.5680332 -0.673315E-07  0.650E-04    0.07      18.1  T
  11   -100.5680333 -0.353808E-07  0.248E-04    0.07      47.6  T
     SCC iter.                  ...        0 min,  0.089 sec
     gradient                   ...        0 min,  0.069 sec
 * total energy  :  -100.5564645 Eh     change       -0.2423034E-01 Eh
   gradient norm :     0.8440182 Eh/α   predicted    -0.1111115E+00 ( 358.56%)
   displ. norm   :     0.2880048 α      lambda       -0.1634054E+00
   maximum displ.:     0.0882369 α      in ANC's #43, #81, #1, ...

........................................................................
.............................. CYCLE    8 ..............................
........................................................................

 iter      E             dE          RMSdq      gap      omega  full diag
   1   -100.5870133 -0.100587E+03  0.207E-01    0.05       0.0  T
   2   -100.5870995 -0.862062E-04  0.132E-01    0.14       1.0  T
   3   -100.5868926  0.206826E-03  0.124E-01    0.02       1.0  T
   4   -100.5870514 -0.158772E-03  0.814E-02    0.11       1.0  T
   5   -100.5875331 -0.481643E-03  0.373E-02    0.07       1.0  T
   6   -100.5877103 -0.177216E-03  0.671E-03    0.07       1.8  T
   7   -100.5877126 -0.236899E-05  0.346E-03    0.08       3.4  T
   8   -100.5877140 -0.133949E-05  0.130E-03    0.08       9.1  T
   9   -100.5877140 -0.688547E-07  0.449E-04    0.08      26.3  T
  10   -100.5877141 -0.808679E-08  0.158E-04    0.08      74.5  T
     SCC iter.                  ...        0 min,  0.081 sec
     gradient                   ...        0 min,  0.069 sec
 * total energy  :  -100.6269751 Eh     change       -0.7051064E-01 Eh
   gradient norm :     0.1817249 Eh/α   predicted    -0.8847983E-01 (  25.48%)
   displ. norm   :     0.5317055 α      lambda       -0.4703914E-01
   maximum displ.:     0.2344238 α      in ANC's #43, #1, #82, ...

........................................................................
.............................. CYCLE    9 ..............................
........................................................................

 iter      E             dE          RMSdq      gap      omega  full diag
   1   -100.6204979 -0.100620E+03  0.426E-01    0.64       0.0  T
   2   -100.6031798  0.173180E-01  0.510E-01    0.22       1.0  T
   3   -100.6167659 -0.135860E-01  0.365E-01    0.59       1.0  T
   4   -100.6257213 -0.895541E-02  0.114E-01    0.47       1.0  T
   5   -100.6263931 -0.671869E-03  0.440E-02    0.42       1.0  T
   6   -100.6265920 -0.198816E-03  0.132E-02    0.42       1.0  T
   7   -100.6266035 -0.115214E-04  0.604E-03    0.42       2.0  T
   8   -100.6266070 -0.350501E-05  0.240E-03    0.42       4.9  T
   9   -100.6266072 -0.188400E-06  0.997E-04    0.42      11.8  T
  10   -100.6266072 -0.784557E-07  0.352E-04    0.42      33.5  T
     SCC iter.                  ...        0 min,  0.081 sec
     gradient                   ...        0 min,  0.069 sec
 * total energy  :  -100.6626817 Eh     change       -0.3570665E-01 Eh
   gradient norm :     0.2744982 Eh/α   predicted    -0.3016892E-01 ( -15.51%)
   displ. norm   :     0.5797002 α      lambda       -0.6045197E-01
   maximum displ.:     0.3109158 α      in ANC's #1, #43, #131, ...

........................................................................
.............................. CYCLE   10 ..............................
........................................................................

 iter      E             dE          RMSdq      gap      omega  full diag
   1   -100.6567243 -0.100657E+03  0.561E-01    1.02       0.0  T
   2   -100.5747907  0.819337E-01  0.961E-01    0.27       1.0  T
   3   -100.6578348 -0.830441E-01  0.394E-01    0.92       1.0  T
   4   -100.6692561 -0.114214E-01  0.102E-01    0.77       1.0  T
   5   -100.6697537 -0.497509E-03  0.261E-02    0.75       1.0  T
   6   -100.6698454 -0.916983E-04  0.114E-02    0.75       1.0  T
   7   -100.6698519 -0.659149E-05  0.610E-03    0.76       1.9  T
   8   -100.6698547 -0.275519E-05  0.150E-03    0.76       7.8  T
   9   -100.6698548 -0.746405E-07  0.700E-04    0.76      16.8  T
  10   -100.6698548 -0.316472E-07  0.271E-04    0.76      43.5  T
     SCC iter.                  ...        0 min,  0.081 sec
     gradient                   ...        0 min,  0.069 sec
 * total energy  :  -100.7029002 Eh     change       -0.4021847E-01 Eh
   gradient norm :     0.1597956 Eh/α   predicted    -0.4038394E-01 (   0.41%)
   displ. norm   :     0.4375666 α      lambda       -0.2941763E-01
   maximum displ.:     0.1919072 α      in ANC's #1, #37, #131, ...

........................................................................
.............................. CYCLE   11 ..............................
........................................................................

 iter      E             dE          RMSdq      gap      omega  full diag
   1   -100.6989990 -0.100699E+03  0.318E-01    1.07       0.0  T
   2   -100.6611434  0.378556E-01  0.655E-01    0.51       1.0  T
   3   -100.7028169 -0.416735E-01  0.158E-01    1.00       1.0  T
   4   -100.7040555 -0.123858E-02  0.582E-02    0.89       1.0  T
   5   -100.7044414 -0.385863E-03  0.103E-02    0.92       1.1  T
   6   -100.7044505 -0.913721E-05  0.508E-03    0.92       2.3  T
   7   -100.7044522 -0.167567E-05  0.272E-03    0.92       4.3  T
   8   -100.7044526 -0.417446E-06  0.707E-04    0.92      16.7  T
   9   -100.7044526 -0.314329E-07  0.307E-04    0.92      38.3  T
     SCC iter.                  ...        0 min,  0.074 sec
     gradient                   ...        0 min,  0.069 sec
 * total energy  :  -100.7240399 Eh     change       -0.2113970E-01 Eh
   gradient norm :     0.2168871 Eh/α   predicted    -0.1752509E-01 ( -17.10%)
   displ. norm   :     0.5096926 α      lambda       -0.3835168E-01
   maximum displ.:     0.1448448 α      in ANC's #57, #37, #36, ...

........................................................................
.............................. CYCLE   12 ..............................
........................................................................

 iter      E             dE          RMSdq      gap      omega  full diag
   1   -100.7286351 -0.100729E+03  0.298E-01    1.16       0.0  T
   2   -100.7045300  0.241051E-01  0.543E-01    0.68       1.0  T
   3   -100.7315392 -0.270092E-01  0.144E-01    1.10       1.0  T
   4   -100.7321632 -0.624003E-03  0.576E-02    0.99       1.0  T
   5   -100.7325132 -0.349965E-03  0.128E-02    1.03       1.0  T
   6   -100.7325230 -0.981650E-05  0.720E-03    1.02       1.6  T
   7   -100.7325238 -0.835120E-06  0.482E-03    1.03       2.4  T
   8   -100.7325260 -0.216241E-05  0.641E-04    1.03      18.4  T
   9   -100.7325260 -0.247090E-07  0.274E-04    1.03      43.0  T
  10   -100.7325260 -0.196522E-08  0.120E-04    1.03      98.2  T
     SCC iter.                  ...        0 min,  0.081 sec
     gradient                   ...        0 min,  0.069 sec
 * total energy  :  -100.7436180 Eh     change       -0.1957806E-01 Eh
   gradient norm :     0.1119779 Eh/α   predicted    -0.2415751E-01 (  23.39%)
   displ. norm   :     0.4464987 α      lambda       -0.2007627E-01
   maximum displ.:     0.1190035 α      in ANC's #37, #1, #43, ...

........................................................................
.............................. CYCLE   13 ..............................
........................................................................

 iter      E             dE          RMSdq      gap      omega  full diag
   1   -100.7362123 -0.100736E+03  0.179E-01    1.07       0.0  T
   2   -100.7359976  0.214766E-03  0.112E-01    1.02       1.0  T
   3   -100.7319616  0.403601E-02  0.214E-01    1.21       1.0  T
   4   -100.7362974 -0.433589E-02  0.162E-02    1.06       1.0  T
   5   -100.7363187 -0.212292E-04  0.689E-03    1.06       1.7  T
   6   -100.7363201 -0.141777E-05  0.330E-03    1.05       3.6  T
   7   -100.7363207 -0.641898E-06  0.129E-03    1.06       9.1  T
   8   -100.7363209 -0.170069E-06  0.387E-04    1.06      30.5  T
   9   -100.7363209 -0.322648E-08  0.145E-04    1.06      81.5  T
     SCC iter.                  ...        0 min,  0.073 sec
     gradient                   ...        0 min,  0.069 sec
 * total energy  :  -100.7512817 Eh     change       -0.7663730E-02 Eh
   gradient norm :     0.1607872 Eh/α   predicted    -0.1203935E-01 (  57.10%)
   displ. norm   :     0.2385615 α      lambda       -0.1156519E-01
   maximum displ.:     0.0703197 α      in ANC's #37, #16, #36, ...

........................................................................
.............................. CYCLE   14 ..............................
........................................................................

 iter      E             dE          RMSdq      gap      omega  full diag
   1   -100.7336608 -0.100734E+03  0.975E-02    1.04       0.0  T
   2   -100.7332352  0.425614E-03  0.106E-01    1.09       1.0  T
   3   -100.7335852 -0.349978E-03  0.599E-02    1.01       1.0  T
   4   -100.7335475  0.376333E-04  0.510E-02    1.09       1.0  T
   5   -100.7338225 -0.275003E-03  0.650E-03    1.05       1.8  T
   6   -100.7338246 -0.203802E-05  0.332E-03    1.05       3.5  T
   7   -100.7338250 -0.436979E-06  0.151E-03    1.05       7.8  T
   8   -100.7338252 -0.169663E-06  0.277E-04    1.05      42.5  T
   9   -100.7338252 -0.152541E-08  0.140E-04    1.05      84.1  T
     SCC iter.                  ...        0 min,  0.073 sec
     gradient                   ...        0 min,  0.069 sec
 * total energy  :  -100.7586159 Eh     change       -0.7334213E-02 Eh
   gradient norm :     0.0481506 Eh/α   predicted    -0.6111705E-02 ( -16.67%)
   displ. norm   :     0.3998019 α      lambda       -0.9306832E-02
   maximum displ.:     0.1363984 α      in ANC's #36, #16, #37, ...

........................................................................
.............................. CYCLE   15 ..............................
........................................................................

 iter      E             dE          RMSdq      gap      omega  full diag
   1   -100.7407173 -0.100741E+03  0.154E-01    1.10       0.0  T
   2   -100.7407238 -0.651267E-05  0.930E-02    1.03       1.0  T
   3   -100.7395152  0.120863E-02  0.125E-01    1.17       1.0  T
   4   -100.7408133 -0.129816E-02  0.537E-02    1.06       1.0  T
   5   -100.7409901 -0.176736E-03  0.111E-02    1.07       1.1  T
   6   -100.7409959 -0.582789E-05  0.502E-03    1.08       2.3  T
   7   -100.7409967 -0.852159E-06  0.247E-03    1.07       4.8  T
   8   -100.7409973 -0.505508E-06  0.361E-04    1.07      32.7  T
   9   -100.7409973 -0.373559E-08  0.191E-04    1.07      61.6  T
     SCC iter.                  ...        0 min,  0.073 sec
     gradient                   ...        0 min,  0.069 sec
 * total energy  :  -100.7647815 Eh     change       -0.6165630E-02 Eh
   gradient norm :     0.0330479 Eh/α   predicted    -0.5397226E-02 ( -12.46%)
   displ. norm   :     0.5141149 α      lambda       -0.6844591E-02
   maximum displ.:     0.1730963 α      in ANC's #16, #37, #36, ...

........................................................................
.............................. CYCLE   16 ..............................
........................................................................

 iter      E             dE          RMSdq      gap      omega  full diag
   1   -100.7399471 -0.100740E+03  0.159E-01    1.16       0.0  T
   2   -100.7392622  0.684877E-03  0.123E-01    1.03       1.0  T
   3   -100.7378345  0.142772E-02  0.165E-01    1.24       1.0  T
   4   -100.7401558 -0.232129E-02  0.397E-02    1.14       1.0  T
   5   -100.7402577 -0.101940E-03  0.698E-03    1.12       1.7  T
   6   -100.7402589 -0.115659E-05  0.360E-03    1.12       3.3  T
   7   -100.7402599 -0.104496E-05  0.905E-04    1.12      13.0  T
   8   -100.7402600 -0.570642E-07  0.310E-04    1.12      38.0  T
   9   -100.7402600 -0.173119E-08  0.161E-04    1.12      73.4  T
     SCC iter.                  ...        0 min,  0.073 sec
     gradient                   ...        0 min,  0.069 sec
 * total energy  :  -100.7699397 Eh     change       -0.5158107E-02 Eh
   gradient norm :     0.0274084 Eh/α   predicted    -0.4326872E-02 ( -16.12%)
   displ. norm   :     0.5210620 α      lambda       -0.5744040E-02
   maximum displ.:     0.1813117 α      in ANC's #16, #22, #25, ...

........................................................................
.............................. CYCLE   17 ..............................
........................................................................

 iter      E             dE          RMSdq      gap      omega  full diag
   1   -100.7429459 -0.100743E+03  0.158E-01    1.25       0.0  T
   2   -100.7414637  0.148221E-02  0.157E-01    1.06       1.0  T
   3   -100.7422971 -0.833411E-03  0.121E-01    1.27       1.0  T
   4   -100.7433612 -0.106406E-02  0.408E-02    1.21       1.0  T
   5   -100.7434431 -0.819619E-04  0.618E-03    1.18       1.9  T
   6   -100.7434446 -0.147359E-05  0.326E-03    1.19       3.6  T
   7   -100.7434453 -0.692139E-06  0.939E-04    1.18      12.5  T
   8   -100.7434453 -0.542268E-07  0.303E-04    1.18      38.9  T
     SCC iter.                  ...        0 min,  0.065 sec
     gradient                   ...        0 min,  0.069 sec
 * total energy  :  -100.7743204 Eh     change       -0.4380715E-02 Eh
   gradient norm :     0.0309545 Eh/α   predicted    -0.3651791E-02 ( -16.64%)
   displ. norm   :     0.5277298 α      lambda       -0.4565656E-02
   maximum displ.:     0.1844133 α      in ANC's #22, #16, #25, ...

........................................................................
.............................. CYCLE   18 ..............................
........................................................................

 iter      E             dE          RMSdq      gap      omega  full diag
   1   -100.7454812 -0.100745E+03  0.180E-01    1.37       0.0  T
   2   -100.7426133  0.286791E-02  0.207E-01    1.09       1.0  T
   3   -100.7456185 -0.300522E-02  0.113E-01    1.33       1.0  T
   4   -100.7463971 -0.778639E-03  0.451E-02    1.29       1.0  T
   5   -100.7464683 -0.711776E-04  0.632E-03    1.26       1.9  T
   6   -100.7464703 -0.200608E-05  0.330E-03    1.27       3.6  T
   7   -100.7464709 -0.549657E-06  0.127E-03    1.26       9.2  T
   8   -100.7464710 -0.966773E-07  0.377E-04    1.26      31.3  T
   9   -100.7464710 -0.834254E-08  0.150E-04    1.26      78.6  T
     SCC iter.                  ...        0 min,  0.072 sec
     gradient                   ...        0 min,  0.069 sec
 * total energy  :  -100.7780365 Eh     change       -0.3716095E-02 Eh
   gradient norm :     0.0324058 Eh/α   predicted    -0.2918606E-02 ( -21.46%)
   displ. norm   :     0.5743069 α      lambda       -0.5200314E-02
   maximum displ.:     0.2149467 α      in ANC's #22, #11, #28, ...

........................................................................
.............................. CYCLE   19 ..............................
........................................................................

 iter      E             dE          RMSdq      gap      omega  full diag
   1   -100.7490356 -0.100749E+03  0.229E-01    1.52       0.0  T
   2   -100.7435087  0.552690E-02  0.287E-01    1.12       1.0  T
   3   -100.7503380 -0.682933E-02  0.118E-01    1.43       1.0  T
   4   -100.7509883 -0.650258E-03  0.524E-02    1.38       1.0  T
   5   -100.7510602 -0.718871E-04  0.608E-03    1.36       1.9  T
   6   -100.7510624 -0.221945E-05  0.306E-03    1.36       3.9  T
   7   -100.7510627 -0.296483E-06  0.154E-03    1.36       7.7  T
   8   -100.7510628 -0.136993E-06  0.536E-04    1.36      22.0  T
   9   -100.7510628 -0.224835E-07  0.192E-04    1.36      61.4  T
     SCC iter.                  ...        0 min,  0.072 sec
     gradient                   ...        0 min,  0.069 sec
 * total energy  :  -100.7819667 Eh     change       -0.3930200E-02 Eh
   gradient norm :     0.0441210 Eh/α   predicted    -0.3457776E-02 ( -12.02%)
   displ. norm   :     0.5234097 α      lambda       -0.4364110E-02
   maximum displ.:     0.1915739 α      in ANC's #22, #11, #28, ...

........................................................................
.............................. CYCLE   20 ..............................
........................................................................

 iter      E             dE          RMSdq      gap      omega  full diag
   1   -100.7517146 -0.100752E+03  0.223E-01    1.61       0.0  T
   2   -100.7468224  0.489220E-02  0.277E-01    1.21       1.0  T
   3   -100.7532192 -0.639685E-02  0.108E-01    1.51       1.0  T
   4   -100.7536737 -0.454526E-03  0.465E-02    1.46       1.0  T
   5   -100.7537291 -0.553988E-04  0.492E-03    1.44       2.4  T
   6   -100.7537305 -0.137348E-05  0.241E-03    1.45       4.9  T
   7   -100.7537307 -0.151099E-06  0.124E-03    1.45       9.5  T
   8   -100.7537307 -0.883439E-07  0.468E-04    1.45      25.2  T
   9   -100.7537308 -0.183100E-07  0.171E-04    1.45      68.9  T
     SCC iter.                  ...        0 min,  0.073 sec
     gradient                   ...        0 min,  0.069 sec
 * total energy  :  -100.7849360 Eh     change       -0.2969384E-02 Eh
   gradient norm :     0.0288823 Eh/α   predicted    -0.2779851E-02 (  -6.38%)
   displ. norm   :     0.3635787 α      lambda       -0.3417080E-02
   maximum displ.:     0.1109845 α      in ANC's #22, #53, #9, ...
 * RMSD in coord.:     0.7295195 α      energy gain  -0.1121549E+01 Eh

generating ANC from model Hessian ...
Using Lindh-Hessian (1995)
 Shifting diagonal of input Hessian by    9.9593511462288762E-003
 Lowest  eigenvalues of input Hessian
    0.000000    0.000000    0.000000    0.000000    0.000000    0.000000
    0.010000    0.010012    0.010098    0.010243    0.010299    0.010559
    0.010706    0.010804    0.011205    0.011393    0.011737    0.012449
 Highest eigenvalues
    2.040929    2.046861    2.070455    2.111134    2.179965    2.183413


........................................................................
.............................. CYCLE   21 ..............................
........................................................................

 iter      E             dE          RMSdq      gap      omega  full diag
   1   -100.7607089 -0.100761E+03  0.159E-01    1.60       0.0  T
   2   -100.7589141  0.179477E-02  0.186E-01    1.35       1.0  T
   3   -100.7613943 -0.248015E-02  0.764E-02    1.53       1.0  T
   4   -100.7615278 -0.133491E-03  0.329E-02    1.50       1.0  T
   5   -100.7615670 -0.392712E-04  0.300E-03    1.50       3.9  T
   6   -100.7615675 -0.483514E-06  0.150E-03    1.50       7.8  T
   7   -100.7615676 -0.907209E-07  0.588E-04    1.50      20.0  T
   8   -100.7615676 -0.104276E-07  0.233E-04    1.50      50.6  T
     SCC iter.                  ...        0 min,  0.066 sec
     gradient                   ...        0 min,  0.069 sec
 * total energy  :  -100.7873190 Eh     change       -0.2382935E-02 Eh
   gradient norm :     0.0422016 Eh/α   predicted     0.0000000E+00 (-100.00%)
   displ. norm   :     0.3785665 α      lambda       -0.4974041E-02
   maximum displ.:     0.1699489 α      in ANC's #21, #11, #28, ...

........................................................................
.............................. CYCLE   22 ..............................
........................................................................

 iter      E             dE          RMSdq      gap      omega  full diag
   1   -100.7646943 -0.100765E+03  0.100E-01    1.54       0.0  T
   2   -100.7646300  0.642964E-04  0.694E-02    1.48       1.0  T
   3   -100.7641806  0.449469E-03  0.756E-02    1.59       1.0  T
   4   -100.7647494 -0.568793E-03  0.146E-02    1.51       1.0  T
   5   -100.7647613 -0.119101E-04  0.272E-03    1.51       4.3  T
   6   -100.7647612  0.352558E-07  0.163E-03    1.51       7.2  T
   7   -100.7647614 -0.155631E-06  0.301E-04    1.51      39.2  T
   8   -100.7647614 -0.299080E-08  0.135E-04    1.51      87.6  T
     SCC iter.                  ...        0 min,  0.066 sec
     gradient                   ...        0 min,  0.070 sec
 * total energy  :  -100.7910029 Eh     change       -0.3683952E-02 Eh
   gradient norm :     0.0394866 Eh/α   predicted    -0.2845970E-02 ( -22.75%)
   displ. norm   :     0.6342023 α      lambda       -0.5590947E-02
   maximum displ.:     0.2884823 α      in ANC's #21, #11, #28, ...

........................................................................
.............................. CYCLE   23 ..............................
........................................................................

 iter      E             dE          RMSdq      gap      omega  full diag
   1   -100.7663653 -0.100766E+03  0.139E-01    1.57       0.0  T
   2   -100.7662004  0.164910E-03  0.982E-02    1.48       1.0  T
   3   -100.7654498  0.750647E-03  0.104E-01    1.64       1.0  T
   4   -100.7664841 -0.103431E-02  0.178E-02    1.54       1.0  T
   5   -100.7665010 -0.169073E-04  0.302E-03    1.53       3.9  T
   6   -100.7665010 -0.400219E-07  0.171E-03    1.53       6.9  T
   7   -100.7665012 -0.137744E-06  0.486E-04    1.53      24.3  T
   8   -100.7665012 -0.838199E-08  0.184E-04    1.53      64.2  T
     SCC iter.                  ...        0 min,  0.065 sec
     gradient                   ...        0 min,  0.069 sec
 * total energy  :  -100.7948112 Eh     change       -0.3808261E-02 Eh
   gradient norm :     0.0320523 Eh/α   predicted    -0.3919990E-02 (   2.93%)
   displ. norm   :     0.6104440 α      lambda       -0.3627087E-02
   maximum displ.:     0.2742681 α      in ANC's #11, #21, #28, ...

........................................................................
.............................. CYCLE   24 ..............................
........................................................................

 iter      E             dE          RMSdq      gap      omega  full diag
   1   -100.7662975 -0.100766E+03  0.143E-01    1.62       0.0  T
   2   -100.7657917  0.505818E-03  0.115E-01    1.48       1.0  T
   3   -100.7658311 -0.394216E-04  0.976E-02    1.65       1.0  T
   4   -100.7665368 -0.705669E-03  0.149E-02    1.57       1.0  T
   5   -100.7665491 -0.122604E-04  0.256E-03    1.56       4.6  T
   6   -100.7665494 -0.301643E-06  0.125E-03    1.56       9.5  T
   7   -100.7665494 -0.447817E-07  0.342E-04    1.56      34.5  T
   8   -100.7665494 -0.304516E-08  0.145E-04    1.56      81.3  T
     SCC iter.                  ...        0 min,  0.065 sec
     gradient                   ...        0 min,  0.075 sec
 * total energy  :  -100.7976347 Eh     change       -0.2823471E-02 Eh
   gradient norm :     0.0273650 Eh/α   predicted    -0.2489441E-02 ( -11.83%)
   displ. norm   :     0.6183184 α      lambda       -0.3283319E-02
   maximum displ.:     0.2928450 α      in ANC's #11, #28, #21, ...

........................................................................
.............................. CYCLE   25 ..............................
........................................................................

 iter      E             dE          RMSdq      gap      omega  full diag
   1   -100.7704511 -0.100770E+03  0.162E-01    1.68       0.0  T
   2   -100.7694218  0.102929E-02  0.145E-01    1.48       1.0  T
   3   -100.7703472 -0.925374E-03  0.992E-02    1.68       1.0  T
   4   -100.7709344 -0.587260E-03  0.165E-02    1.61       1.0  T
   5   -100.7709490 -0.146068E-04  0.258E-03    1.60       4.6  T
   6   -100.7709493 -0.253846E-06  0.140E-03    1.60       8.4  T
   7   -100.7709493 -0.556101E-07  0.451E-04    1.60      26.1  T
   8   -100.7709493 -0.518500E-08  0.193E-04    1.60      61.0  T
     SCC iter.                  ...        0 min,  0.065 sec
     gradient                   ...        0 min,  0.070 sec
 * total energy  :  -100.8001772 Eh     change       -0.2542535E-02 Eh
   gradient norm :     0.0231062 Eh/α   predicted    -0.2269300E-02 ( -10.75%)
   displ. norm   :     0.5700531 α      lambda       -0.2646858E-02
   maximum displ.:     0.2852329 α      in ANC's #11, #28, #21, ...

........................................................................
.............................. CYCLE   26 ..............................
........................................................................

 iter      E             dE          RMSdq      gap      omega  full diag
   1   -100.7789858 -0.100779E+03  0.129E-01    1.72       0.0  T
   2   -100.7781366  0.849240E-03  0.127E-01    1.53       1.0  T
   3   -100.7791946 -0.105800E-02  0.689E-02    1.69       1.0  T
   4   -100.7794220 -0.227385E-03  0.144E-02    1.64       1.0  T
   5   -100.7794318 -0.980748E-05  0.257E-03    1.64       4.6  T
   6   -100.7794319 -0.100540E-06  0.151E-03    1.64       7.8  T
   7   -100.7794320 -0.112195E-06  0.362E-04    1.64      32.6  T
   8   -100.7794320 -0.471164E-08  0.166E-04    1.64      71.1  T
     SCC iter.                  ...        0 min,  0.065 sec
     gradient                   ...        0 min,  0.069 sec
 * total energy  :  -100.8022392 Eh     change       -0.2062023E-02 Eh
   gradient norm :     0.0159949 Eh/α   predicted    -0.1753518E-02 ( -14.96%)
   displ. norm   :     0.6101084 α      lambda       -0.2081613E-02
   maximum displ.:     0.3003201 α      in ANC's #11, #28, #6, ...

........................................................................
.............................. CYCLE   27 ..............................
........................................................................

 iter      E             dE          RMSdq      gap      omega  full diag
   1   -100.7811031 -0.100781E+03  0.125E-01    1.72       0.0  T
   2   -100.7808099  0.293285E-03  0.934E-02    1.59       1.0  T
   3   -100.7807643  0.455824E-04  0.855E-02    1.74       1.0  T
   4   -100.7812846 -0.520335E-03  0.118E-02    1.67       1.0  T
   5   -100.7812925 -0.789691E-05  0.223E-03    1.67       5.3  T
   6   -100.7812927 -0.169067E-06  0.122E-03    1.67       9.6  T
   7   -100.7812927 -0.502889E-07  0.322E-04    1.67      36.6  T
   8   -100.7812927 -0.388022E-08  0.142E-04    1.67      82.9  T
     SCC iter.                  ...        0 min,  0.065 sec
     gradient                   ...        0 min,  0.070 sec
 * total energy  :  -100.8038190 Eh     change       -0.1579777E-02 Eh
   gradient norm :     0.0121166 Eh/α   predicted    -0.1428236E-02 (  -9.59%)
   displ. norm   :     0.5607481 α      lambda       -0.1788290E-02
   maximum displ.:     0.2439978 α      in ANC's #11, #5, #6, ...

........................................................................
.............................. CYCLE   28 ..............................
........................................................................

 iter      E             dE          RMSdq      gap      omega  full diag
   1   -100.7901653 -0.100790E+03  0.110E-01    1.75       0.0  T
   2   -100.7899013  0.263942E-03  0.890E-02    1.63       1.0  T
   3   -100.7900476 -0.146221E-03  0.661E-02    1.75       1.0  T
   4   -100.7903338 -0.286200E-03  0.103E-02    1.69       1.1  T
   5   -100.7903393 -0.556284E-05  0.263E-03    1.69       4.5  T
   6   -100.7903394 -0.525480E-07  0.144E-03    1.69       8.2  T
   7   -100.7903395 -0.109213E-06  0.359E-04    1.69      32.8  T
   8   -100.7903395 -0.539012E-08  0.162E-04    1.69      72.6  T
     SCC iter.                  ...        0 min,  0.065 sec
     gradient                   ...        0 min,  0.069 sec
 * total energy  :  -100.8048618 Eh     change       -0.1042795E-02 Eh
   gradient norm :     0.0157267 Eh/α   predicted    -0.1175302E-02 (  12.71%)
   displ. norm   :     0.6103528 α      lambda       -0.1372066E-02
   maximum displ.:     0.2726972 α      in ANC's #11, #28, #5, ...

........................................................................
.............................. CYCLE   29 ..............................
........................................................................

 iter      E             dE          RMSdq      gap      omega  full diag
   1   -100.7823056 -0.100782E+03  0.110E-01    1.68       0.0  T
   2   -100.7823002  0.537905E-05  0.675E-02    1.70       1.0  T
   3   -100.7818841  0.416126E-03  0.633E-02    1.62       1.0  T
   4   -100.7823206 -0.436479E-03  0.815E-03    1.69       1.4  T
   5   -100.7823251 -0.448115E-05  0.263E-03    1.69       4.5  T
   6   -100.7823252 -0.159066E-06  0.124E-03    1.69       9.5  T
   7   -100.7823253 -0.718546E-07  0.314E-04    1.69      37.6  T
   8   -100.7823253 -0.376430E-08  0.141E-04    1.69      83.5  T
     SCC iter.                  ...        0 min,  0.065 sec
     gradient                   ...        0 min,  0.069 sec
 * total energy  :  -100.8056424 Eh     change       -0.7806150E-03 Eh
   gradient norm :     0.0152974 Eh/α   predicted    -0.9416033E-03 (  20.62%)
   displ. norm   :     0.3382848 α      lambda       -0.7772112E-03
   maximum displ.:     0.1405484 α      in ANC's #5, #6, #11, ...

........................................................................
.............................. CYCLE   30 ..............................
........................................................................

 iter      E             dE          RMSdq      gap      omega  full diag
   1   -100.7853125 -0.100785E+03  0.618E-02    1.72       0.0  T
   2   -100.7852506  0.619247E-04  0.478E-02    1.66       1.0  T
   3   -100.7852399  0.106901E-04  0.400E-02    1.73       1.0  T
   4   -100.7853541 -0.114245E-03  0.500E-03    1.70       2.4  T
   5   -100.7853558 -0.165136E-05  0.112E-03    1.70      10.6  T
   6   -100.7853558 -0.169552E-07  0.617E-04    1.70      19.1  T
   7   -100.7853558 -0.139490E-07  0.191E-04    1.70      61.7  T
     SCC iter.                  ...        0 min,  0.057 sec
     gradient                   ...        0 min,  0.069 sec
 * total energy  :  -100.8062451 Eh     change       -0.6026499E-03 Eh
   gradient norm :     0.0140986 Eh/α   predicted    -0.4330784E-03 ( -28.14%)
   displ. norm   :     0.5226156 α      lambda       -0.1177842E-02
   maximum displ.:     0.2259325 α      in ANC's #5, #7, #6, ...

........................................................................
.............................. CYCLE   31 ..............................
........................................................................

 iter      E             dE          RMSdq      gap      omega  full diag
   1   -100.7919324 -0.100792E+03  0.754E-02    1.74       0.0  T
   2   -100.7918658  0.666515E-04  0.577E-02    1.67       1.0  T
   3   -100.7917922  0.735261E-04  0.471E-02    1.76       1.0  T
   4   -100.7919786 -0.186340E-03  0.609E-03    1.71       1.9  T
   5   -100.7919808 -0.221828E-05  0.196E-03    1.71       6.0  T
   6   -100.7919809 -0.621631E-07  0.105E-03    1.71      11.2  T
   7   -100.7919809 -0.499662E-07  0.265E-04    1.71      44.5  T
   8   -100.7919809 -0.281027E-08  0.110E-04    1.71     107.3  T
     SCC iter.                  ...        0 min,  0.065 sec
     gradient                   ...        0 min,  0.069 sec
 * total energy  :  -100.8069892 Eh     change       -0.7441526E-03 Eh
   gradient norm :     0.0118144 Eh/α   predicted    -0.7497795E-03 (   0.76%)
   displ. norm   :     0.5964029 α      lambda       -0.8302244E-03
   maximum displ.:     0.2493976 α      in ANC's #5, #7, #3, ...

........................................................................
.............................. CYCLE   32 ..............................
........................................................................

 iter      E             dE          RMSdq      gap      omega  full diag
   1   -100.7891299 -0.100789E+03  0.100E-01    1.67       0.0  T
   2   -100.7890707  0.592219E-04  0.691E-02    1.73       1.0  T
   3   -100.7886892  0.381410E-03  0.710E-02    1.63       1.0  T
   4   -100.7891805 -0.491222E-03  0.973E-03    1.70       1.2  T
   5   -100.7891863 -0.580740E-05  0.256E-03    1.70       4.6  T
   6   -100.7891864 -0.134779E-06  0.150E-03    1.70       7.8  T
   7   -100.7891865 -0.126892E-06  0.260E-04    1.70      45.4  T
   8   -100.7891865 -0.250988E-08  0.107E-04    1.70     110.6  T
     SCC iter.                  ...        0 min,  0.065 sec
     gradient                   ...        0 min,  0.069 sec
 * total energy  :  -100.8075737 Eh     change       -0.5845209E-03 Eh
   gradient norm :     0.0120666 Eh/α   predicted    -0.5627680E-03 (  -3.72%)
   displ. norm   :     0.5093083 α      lambda       -0.6777213E-03
   maximum displ.:     0.2313346 α      in ANC's #5, #7, #3, ...

........................................................................
.............................. CYCLE   33 ..............................
........................................................................

 iter      E             dE          RMSdq      gap      omega  full diag
   1   -100.7903969 -0.100790E+03  0.734E-02    1.69       0.0  T
   2   -100.7903976 -0.662784E-06  0.433E-02    1.70       1.0  T
   3   -100.7903020  0.955668E-04  0.309E-02    1.67       1.0  T
   4   -100.7904008 -0.988583E-04  0.491E-03    1.70       2.4  T
   5   -100.7904028 -0.198102E-05  0.165E-03    1.69       7.1  T
   6   -100.7904029 -0.807819E-07  0.694E-04    1.69      17.0  T
   7   -100.7904029 -0.132660E-07  0.197E-04    1.69      60.0  T
     SCC iter.                  ...        0 min,  0.058 sec
     gradient                   ...        0 min,  0.069 sec
 * total energy  :  -100.8080817 Eh     change       -0.5079285E-03 Eh
   gradient norm :     0.0092336 Eh/α   predicted    -0.4267622E-03 ( -15.98%)
   displ. norm   :     0.5271688 α      lambda       -0.7013325E-03
   maximum displ.:     0.2404706 α      in ANC's #5, #7, #3, ...

........................................................................
.............................. CYCLE   34 ..............................
........................................................................

 iter      E             dE          RMSdq      gap      omega  full diag
   1   -100.7930127 -0.100793E+03  0.774E-02    1.73       0.0  T
   2   -100.7929610  0.517011E-04  0.537E-02    1.67       1.0  T
   3   -100.7927807  0.180299E-03  0.553E-02    1.76       1.0  T
   4   -100.7930501 -0.269399E-03  0.562E-03    1.71       2.1  T
   5   -100.7930521 -0.199635E-05  0.144E-03    1.71       8.2  T
   6   -100.7930521 -0.351180E-07  0.786E-04    1.71      15.0  T
   7   -100.7930522 -0.148083E-07  0.226E-04    1.71      52.1  T
     SCC iter.                  ...        0 min,  0.058 sec
     gradient                   ...        0 min,  0.069 sec
 * total energy  :  -100.8085889 Eh     change       -0.5072591E-03 Eh
   gradient norm :     0.0109525 Eh/α   predicted    -0.4481252E-03 ( -11.66%)
   displ. norm   :     0.5847367 α      lambda       -0.6389155E-03
   maximum displ.:     0.2551605 α      in ANC's #5, #3, #7, ...

........................................................................
.............................. CYCLE   35 ..............................
........................................................................

 iter      E             dE          RMSdq      gap      omega  full diag
   1   -100.7922239 -0.100792E+03  0.840E-02    1.67       0.0  T
   2   -100.7921809  0.429987E-04  0.547E-02    1.73       1.0  T
   3   -100.7918523  0.328594E-03  0.646E-02    1.62       1.0  T
   4   -100.7922549 -0.402626E-03  0.479E-03    1.69       2.5  T
   5   -100.7922562 -0.129091E-05  0.180E-03    1.70       6.6  T
   6   -100.7922562 -0.415018E-07  0.940E-04    1.70      12.5  T
   7   -100.7922563 -0.475686E-07  0.220E-04    1.69      53.5  T
     SCC iter.                  ...        0 min,  0.058 sec
     gradient                   ...        0 min,  0.069 sec
 * total energy  :  -100.8090780 Eh     change       -0.4890802E-03 Eh
   gradient norm :     0.0129584 Eh/α   predicted    -0.4286881E-03 ( -12.35%)
   displ. norm   :     0.5290604 α      lambda       -0.6688973E-03
   maximum displ.:     0.2458531 α      in ANC's #3, #5, #7, ...

........................................................................
.............................. CYCLE   36 ..............................
........................................................................

 iter      E             dE          RMSdq      gap      omega  full diag
   1   -100.7944039 -0.100794E+03  0.797E-02    1.72       0.0  T
   2   -100.7943639  0.399756E-04  0.546E-02    1.67       1.0  T
   3   -100.7941224  0.241459E-03  0.574E-02    1.76       1.0  T
   4   -100.7944368 -0.314421E-03  0.649E-03    1.70       1.8  T
   5   -100.7944395 -0.269963E-05  0.186E-03    1.70       6.3  T
   6   -100.7944396 -0.698146E-07  0.104E-03    1.70      11.3  T
   7   -100.7944397 -0.506182E-07  0.261E-04    1.70      45.2  T
   8   -100.7944397 -0.221351E-08  0.127E-04    1.70      92.9  T
     SCC iter.                  ...        0 min,  0.066 sec
     gradient                   ...        0 min,  0.069 sec
 * total energy  :  -100.8095948 Eh     change       -0.5168444E-03 Eh
   gradient norm :     0.0132306 Eh/α   predicted    -0.4280661E-03 ( -17.18%)
   displ. norm   :     0.5889352 α      lambda       -0.7091454E-03
   maximum displ.:     0.2697893 α      in ANC's #3, #7, #5, ...

........................................................................
.............................. CYCLE   37 ..............................
........................................................................

 iter      E             dE          RMSdq      gap      omega  full diag
   1   -100.7908569 -0.100791E+03  0.938E-02    1.67       0.0  T
   2   -100.7908531  0.379243E-05  0.561E-02    1.71       1.0  T
   3   -100.7905400  0.313103E-03  0.553E-02    1.62       1.0  T
   4   -100.7908711 -0.331046E-03  0.877E-03    1.70       1.3  T
   5   -100.7908765 -0.542172E-05  0.242E-03    1.69       4.9  T
   6   -100.7908766 -0.808451E-07  0.133E-03    1.69       8.9  T
   7   -100.7908766 -0.951839E-07  0.315E-04    1.69      37.5  T
   8   -100.7908767 -0.394257E-08  0.135E-04    1.69      87.2  T
     SCC iter.                  ...        0 min,  0.066 sec
     gradient                   ...        0 min,  0.069 sec
 * total energy  :  -100.8101401 Eh     change       -0.5452569E-03 Eh
   gradient norm :     0.0127931 Eh/α   predicted    -0.4775563E-03 ( -12.42%)
   displ. norm   :     0.5411632 α      lambda       -0.8703482E-03
   maximum displ.:     0.2457628 α      in ANC's #3, #17, #7, ...

........................................................................
.............................. CYCLE   38 ..............................
........................................................................

 iter      E             dE          RMSdq      gap      omega  full diag
   1   -100.7960409 -0.100796E+03  0.932E-02    1.72       0.0  T
   2   -100.7960279  0.129915E-04  0.599E-02    1.67       1.0  T
   3   -100.7956511  0.376832E-03  0.623E-02    1.78       1.0  T
   4   -100.7960683 -0.417214E-03  0.908E-03    1.69       1.3  T
   5   -100.7960738 -0.550891E-05  0.266E-03    1.70       4.4  T
   6   -100.7960739 -0.100823E-06  0.142E-03    1.70       8.3  T
   7   -100.7960740 -0.985930E-07  0.367E-04    1.70      32.1  T
   8   -100.7960740 -0.447746E-08  0.174E-04    1.70      67.6  T
     SCC iter.                  ...        0 min,  0.065 sec
     gradient                   ...        0 min,  0.069 sec
 * total energy  :  -100.8106976 Eh     change       -0.5574965E-03 Eh
   gradient norm :     0.0131398 Eh/α   predicted    -0.5626194E-03 (   0.92%)
   displ. norm   :     0.5891701 α      lambda       -0.6982703E-03
   maximum displ.:     0.2737433 α      in ANC's #3, #7, #5, ...

........................................................................
.............................. CYCLE   39 ..............................
........................................................................

 iter      E             dE          RMSdq      gap      omega  full diag
   1   -100.7916251 -0.100792E+03  0.975E-02    1.67       0.0  T
   2   -100.7916125  0.126391E-04  0.596E-02    1.72       1.0  T
   3   -100.7911974  0.415122E-03  0.661E-02    1.61       1.0  T
   4   -100.7916554 -0.458079E-03  0.106E-02    1.69       1.1  T
   5   -100.7916632 -0.779881E-05  0.265E-03    1.69       4.5  T
   6   -100.7916633 -0.915134E-07  0.147E-03    1.69       8.0  T
   7   -100.7916634 -0.123366E-06  0.297E-04    1.69      39.7  T
   8   -100.7916634 -0.408099E-08  0.125E-04    1.69      94.5  T
     SCC iter.                  ...        0 min,  0.065 sec
     gradient                   ...        0 min,  0.069 sec
 * total energy  :  -100.8112323 Eh     change       -0.5346731E-03 Eh
   gradient norm :     0.0158792 Eh/α   predicted    -0.4703311E-03 ( -12.03%)
   displ. norm   :     0.4488347 α      lambda       -0.7802024E-03
   maximum displ.:     0.1955459 α      in ANC's #3, #7, #5, ...

........................................................................
.............................. CYCLE   40 ..............................
........................................................................

 iter      E             dE          RMSdq      gap      omega  full diag
   1   -100.7928969 -0.100793E+03  0.838E-02    1.70       0.0  T
   2   -100.7928991 -0.225304E-05  0.494E-02    1.68       1.0  T
   3   -100.7927447  0.154461E-03  0.389E-02    1.73       1.0  T
   4   -100.7929058 -0.161169E-03  0.720E-03    1.68       1.6  T
   5   -100.7929100 -0.414444E-05  0.249E-03    1.69       4.7  T
   6   -100.7929101 -0.160732E-06  0.950E-04    1.69      12.4  T
   7   -100.7929102 -0.278504E-07  0.256E-04    1.69      46.1  T
     SCC iter.                  ...        0 min,  0.057 sec
     gradient                   ...        0 min,  0.069 sec
 * total energy  :  -100.8116736 Eh     change       -0.4413659E-03 Eh
   gradient norm :     0.0115364 Eh/α   predicted    -0.4686893E-03 (   6.19%)
   displ. norm   :     0.6032898 α      lambda       -0.6389542E-03
   maximum displ.:     0.2830673 α      in ANC's #3, #5, #7, ...

........................................................................
.............................. CYCLE   41 ..............................
........................................................................

 iter      E             dE          RMSdq      gap      omega  full diag
   1   -100.7908314 -0.100791E+03  0.988E-02    1.65       0.0  T
   2   -100.7907758  0.556293E-04  0.635E-02    1.71       1.0  T
   3   -100.7902793  0.496498E-03  0.762E-02    1.58       1.0  T
   4   -100.7908757 -0.596446E-03  0.712E-03    1.68       1.7  T
   5   -100.7908785 -0.278697E-05  0.269E-03    1.68       4.4  T
   6   -100.7908786 -0.122294E-06  0.134E-03    1.68       8.8  T
   7   -100.7908787 -0.880217E-07  0.275E-04    1.67      42.8  T
   8   -100.7908787 -0.286792E-08  0.127E-04    1.67      92.8  T
     SCC iter.                  ...        0 min,  0.065 sec
     gradient                   ...        0 min,  0.069 sec
 * total energy  :  -100.8120783 Eh     change       -0.4046826E-03 Eh
   gradient norm :     0.0201218 Eh/α   predicted    -0.4357611E-03 (   7.68%)
   displ. norm   :     0.3329257 α      lambda       -0.4721889E-03
   maximum displ.:     0.1463534 α      in ANC's #3, #4, #5, ...

........................................................................
.............................. CYCLE   42 ..............................
........................................................................

 iter      E             dE          RMSdq      gap      omega  full diag
   1   -100.7943809 -0.100794E+03  0.557E-02    1.69       0.0  T
   2   -100.7943686  0.123352E-04  0.364E-02    1.66       1.0  T
   3   -100.7942294  0.139157E-03  0.397E-02    1.73       1.0  T
   4   -100.7943950 -0.165573E-03  0.534E-03    1.68       2.2  T
   5   -100.7943969 -0.185755E-05  0.139E-03    1.68       8.5  T
   6   -100.7943969 -0.185209E-07  0.792E-04    1.68      14.9  T
   7   -100.7943969 -0.232111E-07  0.175E-04    1.68      67.5  T
     SCC iter.                  ...        0 min,  0.057 sec
     gradient                   ...        0 min,  0.069 sec
 * total energy  :  -100.8124462 Eh     change       -0.3679096E-03 Eh
   gradient norm :     0.0113665 Eh/α   predicted    -0.2622638E-03 ( -28.72%)
   displ. norm   :     0.5355971 α      lambda       -0.5789454E-03
   maximum displ.:     0.2354365 α      in ANC's #3, #4, #5, ...
 * RMSD in coord.:     1.1238313 α      energy gain  -0.2751018E-01 Eh

generating ANC from model Hessian ...
Using Lindh-Hessian (1995)
 Shifting diagonal of input Hessian by    9.9551933936225523E-003
 Lowest  eigenvalues of input Hessian
    0.000000    0.000000    0.000000    0.000000    0.000000    0.000000
    0.010000    0.010018    0.010107    0.010196    0.010284    0.010611
    0.010735    0.010852    0.011302    0.011518    0.011795    0.012607
 Highest eigenvalues
    2.047538    2.063667    2.091381    2.138133    2.177777    2.183558


........................................................................
.............................. CYCLE   43 ..............................
........................................................................

 iter      E             dE          RMSdq      gap      omega  full diag
   1   -100.7957749 -0.100796E+03  0.890E-02    1.69       0.0  T
   2   -100.7957632  0.117111E-04  0.546E-02    1.66       1.0  T
   3   -100.7953949  0.368271E-03  0.587E-02    1.75       1.0  T
   4   -100.7957915 -0.396613E-03  0.480E-03    1.68       2.5  T
   5   -100.7957926 -0.100834E-05  0.214E-03    1.68       5.5  T
   6   -100.7957926 -0.264461E-07  0.964E-04    1.68      12.2  T
   7   -100.7957927 -0.712990E-07  0.214E-04    1.68      55.2  T
     SCC iter.                  ...        0 min,  0.058 sec
     gradient                   ...        0 min,  0.069 sec
 * total energy  :  -100.8128947 Eh     change       -0.4484590E-03 Eh
   gradient norm :     0.0066271 Eh/α   predicted     0.0000000E+00 (-100.00%)
   displ. norm   :     0.0952217 α      lambda       -0.1890987E-03
   maximum displ.:     0.0543894 α      in ANC's #4, #22, #9, ...

........................................................................
.............................. CYCLE   44 ..............................
........................................................................

 iter      E             dE          RMSdq      gap      omega  full diag
   1   -100.7971875 -0.100797E+03  0.191E-02    1.69       0.0  T
   2   -100.7971866  0.945984E-06  0.120E-02    1.68       1.0  T
   3   -100.7971687  0.178448E-04  0.136E-02    1.70       1.0  T
   4   -100.7971888 -0.200397E-04  0.164E-03    1.68       7.2  T
   5   -100.7971889 -0.165788E-06  0.525E-04    1.68      22.4  T
   6   -100.7971889 -0.323257E-08  0.272E-04    1.68      43.3  T
     SCC iter.                  ...        0 min,  0.050 sec
     gradient                   ...        0 min,  0.069 sec
 * total energy  :  -100.8130481 Eh     change       -0.1533647E-03 Eh
   gradient norm :     0.0029398 Eh/α   predicted    -0.9543726E-04 ( -37.77%)
   displ. norm   :     0.2497600 α      lambda       -0.3032669E-03
   maximum displ.:     0.1435333 α      in ANC's #4, #9, #22, ...

........................................................................
.............................. CYCLE   45 ..............................
........................................................................

 iter      E             dE          RMSdq      gap      omega  full diag
   1   -100.7986291 -0.100799E+03  0.411E-02    1.69       0.0  T
   2   -100.7986281  0.992820E-06  0.248E-02    1.68       1.0  T
   3   -100.7985716  0.565245E-04  0.229E-02    1.72       1.0  T
   4   -100.7986311 -0.595098E-04  0.288E-03    1.68       4.1  T
   5   -100.7986317 -0.610374E-06  0.802E-04    1.69      14.7  T
   6   -100.7986317 -0.894299E-08  0.413E-04    1.69      28.5  T
     SCC iter.                  ...        0 min,  0.050 sec
     gradient                   ...        0 min,  0.069 sec
 * total energy  :  -100.8132641 Eh     change       -0.2160161E-03 Eh
   gradient norm :     0.0047790 Eh/α   predicted    -0.1610977E-03 ( -25.42%)
   displ. norm   :     0.2732111 α      lambda       -0.2116343E-03
   maximum displ.:     0.1612740 α      in ANC's #4, #9, #2, ...

........................................................................
.............................. CYCLE   46 ..............................
........................................................................

 iter      E             dE          RMSdq      gap      omega  full diag
   1   -100.7985186 -0.100799E+03  0.445E-02    1.69       0.0  T
   2   -100.7985195 -0.852257E-06  0.261E-02    1.69       1.0  T
   3   -100.7985179  0.154612E-05  0.460E-03    1.69       2.6  T
   4   -100.7985198 -0.188042E-05  0.126E-03    1.68       9.4  T
   5   -100.7985198  0.143673E-07  0.109E-03    1.69      10.9  T
   6   -100.7985199 -0.816056E-07  0.430E-04    1.69      27.4  T
   7   -100.7985199 -0.139547E-07  0.116E-04    1.69     101.2  T
     SCC iter.                  ...        0 min,  0.058 sec
     gradient                   ...        0 min,  0.069 sec
 * total energy  :  -100.8134354 Eh     change       -0.1713485E-03 Eh
   gradient norm :     0.0066965 Eh/α   predicted    -0.1137161E-03 ( -33.63%)
   displ. norm   :     0.3682705 α      lambda       -0.2697829E-03
   maximum displ.:     0.2177679 α      in ANC's #4, #9, #2, ...

........................................................................
.............................. CYCLE   47 ..............................
........................................................................

 iter      E             dE          RMSdq      gap      omega  full diag
   1   -100.7976407 -0.100798E+03  0.635E-02    1.68       0.0  T
   2   -100.7976421 -0.146458E-05  0.371E-02    1.69       1.0  T
   3   -100.7976115  0.306878E-04  0.169E-02    1.67       1.0  T
   4   -100.7976429 -0.314128E-04  0.387E-03    1.69       3.0  T
   5   -100.7976441 -0.124226E-05  0.144E-03    1.68       8.2  T
   6   -100.7976442 -0.594702E-07  0.464E-04    1.68      25.4  T
   7   -100.7976442 -0.902939E-08  0.156E-04    1.68      75.4  T
     SCC iter.                  ...        0 min,  0.057 sec
     gradient                   ...        0 min,  0.069 sec
 * total energy  :  -100.8136550 Eh     change       -0.2195592E-03 Eh
   gradient norm :     0.0065356 Eh/α   predicted    -0.1531880E-03 ( -30.23%)
   displ. norm   :     0.4392749 α      lambda       -0.3112252E-03
   maximum displ.:     0.2660121 α      in ANC's #4, #9, #2, ...

........................................................................
.............................. CYCLE   48 ..............................
........................................................................

 iter      E             dE          RMSdq      gap      omega  full diag
   1   -100.7961900 -0.100796E+03  0.781E-02    1.68       0.0  T
   2   -100.7961933 -0.335854E-05  0.454E-02    1.68       1.0  T
   3   -100.7961603  0.330743E-04  0.180E-02    1.66       1.0  T
   4   -100.7961936 -0.333741E-04  0.539E-03    1.69       2.2  T
   5   -100.7961960 -0.238031E-05  0.211E-03    1.68       5.6  T
   6   -100.7961962 -0.170241E-06  0.569E-04    1.68      20.7  T
   7   -100.7961962 -0.150299E-07  0.206E-04    1.68      57.3  T
     SCC iter.                  ...        0 min,  0.058 sec
     gradient                   ...        0 min,  0.074 sec
 * total energy  :  -100.8138844 Eh     change       -0.2294568E-03 Eh
   gradient norm :     0.0101194 Eh/α   predicted    -0.1856402E-03 ( -19.10%)
   displ. norm   :     0.4083924 α      lambda       -0.2679532E-03
   maximum displ.:     0.2564706 α      in ANC's #4, #2, #5, ...

........................................................................
.............................. CYCLE   49 ..............................
........................................................................

 iter      E             dE          RMSdq      gap      omega  full diag
   1   -100.7959214 -0.100796E+03  0.703E-02    1.68       0.0  T
   2   -100.7959252 -0.378933E-05  0.408E-02    1.68       1.0  T
   3   -100.7959208  0.441829E-05  0.872E-03    1.69       1.4  T
   4   -100.7959264 -0.566551E-05  0.274E-03    1.68       4.3  T
   5   -100.7959261  0.352485E-06  0.267E-03    1.68       4.4  T
   6   -100.7959267 -0.657954E-06  0.709E-04    1.68      16.6  T
   7   -100.7959268 -0.388587E-07  0.212E-04    1.68      55.6  T
     SCC iter.                  ...        0 min,  0.058 sec
     gradient                   ...        0 min,  0.069 sec
 * total energy  :  -100.8140897 Eh     change       -0.2052417E-03 Eh
   gradient norm :     0.0084015 Eh/α   predicted    -0.1563459E-03 ( -23.82%)
   displ. norm   :     0.3847049 α      lambda       -0.2487581E-03
   maximum displ.:     0.2505988 α      in ANC's #4, #2, #5, ...

........................................................................
.............................. CYCLE   50 ..............................
........................................................................

 iter      E             dE          RMSdq      gap      omega  full diag
   1   -100.7970750 -0.100797E+03  0.621E-02    1.69       0.0  T
   2   -100.7970761 -0.107913E-05  0.364E-02    1.68       1.0  T
   3   -100.7969997  0.763733E-04  0.266E-02    1.72       1.0  T
   4   -100.7970796 -0.799293E-04  0.424E-03    1.68       2.8  T
   5   -100.7970808 -0.115387E-05  0.170E-03    1.68       6.9  T
   6   -100.7970808 -0.585817E-07  0.609E-04    1.68      19.4  T
   7   -100.7970808 -0.200531E-07  0.175E-04    1.68      67.4  T
     SCC iter.                  ...        0 min,  0.058 sec
     gradient                   ...        0 min,  0.069 sec
 * total energy  :  -100.8143042 Eh     change       -0.2145335E-03 Eh
   gradient norm :     0.0086894 Eh/α   predicted    -0.1428043E-03 ( -33.43%)
   displ. norm   :     0.4627942 α      lambda       -0.3397211E-03
   maximum displ.:     0.3117681 α      in ANC's #4, #2, #5, ...

........................................................................
.............................. CYCLE   51 ..............................
........................................................................

 iter      E             dE          RMSdq      gap      omega  full diag
   1   -100.7990205 -0.100799E+03  0.684E-02    1.70       0.0  T
   2   -100.7990161  0.432355E-05  0.412E-02    1.68       1.0  T
   3   -100.7988226  0.193528E-03  0.425E-02    1.74       1.0  T
   4   -100.7990297 -0.207046E-03  0.385E-03    1.69       3.1  T
   5   -100.7990303 -0.661462E-06  0.169E-03    1.69       7.0  T
   6   -100.7990304 -0.272016E-07  0.685E-04    1.69      17.2  T
   7   -100.7990304 -0.253532E-07  0.179E-04    1.69      65.9  T
     SCC iter.                  ...        0 min,  0.058 sec
     gradient                   ...        0 min,  0.069 sec
 * total energy  :  -100.8145925 Eh     change       -0.2882895E-03 Eh
   gradient norm :     0.0074165 Eh/α   predicted    -0.2062437E-03 ( -28.46%)
   displ. norm   :     0.5403001 α      lambda       -0.3635866E-03
   maximum displ.:     0.3748595 α      in ANC's #4, #2, #5, ...

........................................................................
.............................. CYCLE   52 ..............................
........................................................................

 iter      E             dE          RMSdq      gap      omega  full diag
   1   -100.7993616 -0.100799E+03  0.790E-02    1.70       0.0  T
   2   -100.7993580  0.361842E-05  0.473E-02    1.68       1.0  T
   3   -100.7991409  0.217078E-03  0.444E-02    1.75       1.0  T
   4   -100.7993707 -0.229845E-03  0.348E-03    1.69       3.4  T
   5   -100.7993711 -0.336921E-06  0.179E-03    1.69       6.6  T
   6   -100.7993711 -0.498902E-07  0.573E-04    1.69      20.6  T
   7   -100.7993711 -0.241848E-07  0.186E-04    1.69      63.5  T
     SCC iter.                  ...        0 min,  0.058 sec
     gradient                   ...        0 min,  0.070 sec
 * total energy  :  -100.8148995 Eh     change       -0.3069863E-03 Eh
   gradient norm :     0.0062337 Eh/α   predicted    -0.2348676E-03 ( -23.49%)
   displ. norm   :     0.5321301 α      lambda       -0.3380973E-03
   maximum displ.:     0.3810287 α      in ANC's #4, #2, #5, ...

........................................................................
.............................. CYCLE   53 ..............................
........................................................................

 iter      E             dE          RMSdq      gap      omega  full diag
   1   -100.7995501 -0.100800E+03  0.750E-02    1.70       0.0  T
   2   -100.7995499  0.141894E-06  0.443E-02    1.69       1.0  T
   3   -100.7994367  0.113215E-03  0.319E-02    1.74       1.0  T
   4   -100.7995555 -0.118828E-03  0.335E-03    1.69       3.5  T
   5   -100.7995559 -0.409395E-06  0.179E-03    1.70       6.6  T
   6   -100.7995560 -0.990628E-07  0.508E-04    1.70      23.2  T
   7   -100.7995561 -0.177665E-07  0.200E-04    1.70      59.1  T
     SCC iter.                  ...        0 min,  0.058 sec
     gradient                   ...        0 min,  0.069 sec
 * total energy  :  -100.8151903 Eh     change       -0.2908427E-03 Eh
   gradient norm :     0.0061301 Eh/α   predicted    -0.2169592E-03 ( -25.40%)
   displ. norm   :     0.5126861 α      lambda       -0.3287510E-03
   maximum displ.:     0.3736509 α      in ANC's #4, #5, #2, ...

........................................................................
.............................. CYCLE   54 ..............................
........................................................................

 iter      E             dE          RMSdq      gap      omega  full diag
   1   -100.7996397 -0.100800E+03  0.718E-02    1.70       0.0  T
   2   -100.7996423 -0.254356E-05  0.421E-02    1.69       1.0  T
   3   -100.7996219  0.203715E-04  0.144E-02    1.71       1.0  T
   4   -100.7996421 -0.201879E-04  0.477E-03    1.69       2.5  T
   5   -100.7996441 -0.197254E-05  0.191E-03    1.70       6.2  T
[...]
         :: HOMO-LUMO gap              1.803859402377 eV    ::
         ::.................................................::
         :: SCC energy              -100.816759306216 Eh    ::
         :: -> isotropic ES            0.111441151330 Eh    ::
         :: -> anisotropic ES          0.002342301933 Eh    ::
         :: -> anisotropic XC          0.043333911659 Eh    ::
         :: -> dispersion             -0.075950590732 Eh    ::
         :: repulsion energy           1.515332249382 Eh    ::
         :: add. restraining          -1.529969956113 Eh    ::
         :: total charge               1.000000000000 e     ::
         :::::::::::::::::::::::::::::::::::::::::::::::::::::

           -------------------------------------------------
          |                Property Printout                |
           -------------------------------------------------

    * Orbital Energies and Occupations

         #    Occupation            Energy/Eh            Energy/eV
      -------------------------------------------------------------
         1        2.0000           -0.8086490             -22.0045
       ...           ...                  ...                  ...
        78        1.9989           -0.5361932             -14.5906
        79        1.9985           -0.5303486             -14.4315
        80        1.9983           -0.5284355             -14.3795
        81        1.9979           -0.5253608             -14.2958
        82        1.9975           -0.5228674             -14.2279
        83        1.9968           -0.5187437             -14.1157
        84        1.9959           -0.5148703             -14.0103
        85        1.9943           -0.5093809             -13.8610
        86        1.9816           -0.4908439             -13.3565
        87        1.9802           -0.4897032             -13.3255
        88        1.9479           -0.4741031             -12.9010
        89        1.8720           -0.4592369             -12.4965
        90        1.8687           -0.4588037             -12.4847 (HOMO)
        91        0.3556           -0.3925131             -10.6808 (LUMO)
        92        0.0115           -0.3351684              -9.1204
        93        0.0034           -0.3159816              -8.5983
        94        0.0033           -0.3152494              -8.5784
        95        0.0028           -0.3127958              -8.5116
        96        0.0026           -0.3117153              -8.4822
        97        0.0000           -0.1900870              -5.1725
        98        0.0000           -0.1888443              -5.1387
        99                         -0.1385212              -3.7694
       100                         -0.0715564              -1.9471
       101                         -0.0645356              -1.7561
       ...                                ...                  ...
       171                          1.1246899              30.6044
      -------------------------------------------------------------
                  HL-Gap            0.0662906 Eh            1.8039 eV
             Fermi-level           -0.4167578 Eh          -11.3406 eV

     #   Z          covCN         q      C6AA      α(0)
     1   7 N        1.775    -0.311    28.868     7.956
     2   6 C        2.826     0.102    25.733     8.312
     3   6 C        3.907     0.003    20.466     6.430
     4   6 C        2.972     0.004    27.919     8.667
     5   6 C        2.921    -0.079    29.964     8.977
     6   6 C        2.862     0.129    25.166     8.223
     7   8 O        1.706    -0.231    17.822     5.700
     8   6 C        3.645     0.028    20.445     6.499
     9   6 C        2.864     0.128    25.200     8.229
    10   8 O        1.706    -0.230    17.818     5.699
    11   6 C        3.645     0.027    20.447     6.499
    12   6 C        2.914    -0.076    29.890     8.965
    13   6 C        2.921    -0.055    29.360     8.886
    14   6 C        3.806    -0.071    21.859     6.656
    15   6 C        3.799    -0.065    21.756     6.641
    16   6 C        3.753    -0.054    21.602     6.628
    17   7 N        2.728     0.026    20.797     6.773
    18   6 C        2.845     0.017    27.634     8.615
    19   6 C        3.809    -0.072    21.866     6.656
    20   6 C        2.973     0.004    27.934     8.669
    21   6 C        2.920    -0.050    29.240     8.867
    22   6 C        2.915    -0.068    29.701     8.937
    23   6 C        2.864     0.133    25.084     8.209
    24   8 O        1.706    -0.223    17.697     5.680
    25   6 C        3.645     0.025    20.493     6.506
    26   6 C        2.863     0.133    25.084     8.210
    27   8 O        1.706    -0.225    17.739     5.686
    28   6 C        3.645     0.027    20.456     6.501
    29   6 C        2.919    -0.081    30.028     8.986
    30   6 C        3.708    -0.076    22.103     6.720
    31   6 C        3.856    -0.013    20.768     6.481
    32   6 C        3.754    -0.110    22.665     6.789
    33   6 C        3.755    -0.112    22.696     6.793
    34   1 H        0.926     0.054     2.272     2.357
    35   1 H        0.924     0.054     2.276     2.359
    36   1 H        0.925     0.081     1.973     2.196
    37   1 H        0.924     0.048     2.346     2.395
    38   1 H        0.924     0.055     2.264     2.353
    39   1 H        0.925     0.081     1.972     2.196
    40   1 H        0.924     0.047     2.357     2.401
    41   1 H        0.926     0.050     2.317     2.380
    42   1 H        0.926     0.036     2.499     2.472
    43   1 H        0.924     0.053     2.288     2.365
    44   1 H        0.925     0.071     2.079     2.255
    45   1 H        0.924     0.046     2.372     2.409
    46   1 H        0.924     0.046     2.374     2.409
    47   1 H        0.924     0.025     2.666     2.553
    48   1 H        0.923     0.083     1.944     2.180
    49   1 H        0.926     0.072     2.062     2.245
    50   1 H        0.930     0.130     1.537     1.939
    51   1 H        0.925     0.072     2.059     2.244
    52   1 H        0.924     0.079     1.990     2.206
    53   1 H        0.926     0.046     2.367     2.406
    54   1 H        0.926     0.060     2.202     2.320
    55   1 H        0.924     0.054     2.274     2.358
    56   1 H        0.924     0.056     2.247     2.344
    57   1 H        0.925     0.083     1.952     2.185
    58   1 H        0.925     0.082     1.955     2.187
    59   1 H        0.924     0.048     2.344     2.394
    60   1 H        0.924     0.053     2.281     2.362
    61   1 H        0.926     0.049     2.326     2.385
    62   1 H        0.925     0.079     1.994     2.208
    63   1 H        0.924     0.085     1.931     2.173
    64   1 H        0.924     0.082     1.956     2.187
    65   1 H        0.924     0.041     2.442     2.444
    66   1 H        0.925     0.043     2.413     2.429
    67   1 H        0.925     0.039     2.463     2.454
    68   1 H        0.925     0.049     2.328     2.386
    69   1 H        0.925     0.039     2.462     2.454
    70   1 H        0.925     0.043     2.413     2.429
    71   1 H        0.925     0.053     2.280     2.361
    72   1 H        0.860     0.151     1.391     1.848

 Mol. C6AA /au·bohr⁶  :      47422.104790
 Mol. C8AA /au·bohr⁸  :    1081777.148259
 Mol. α(0) /au        :        334.277498


Wiberg/Mayer (AO) data.
largest (>0.10) Wiberg bond orders for each atom

 ---------------------------------------------------------------------------
     #   Z sym  total        # sym  WBO       # sym  WBO       # sym  WBO
 ---------------------------------------------------------------------------
     1   7 N    2.997 --     2 C    1.939    72 H    0.946
     2   6 C    3.938 --     1 N    1.939     3 C    0.998    47 H    0.935
     3   6 C    3.980 --     2 C    0.998     4 C    0.973    14 C    0.967
                            31 C    0.933
     4   6 C    3.950 --    13 C    1.418     5 C    1.365     3 C    0.973
     5   6 C    3.962 --     6 C    1.403     4 C    1.365    34 H    0.958
     6   6 C    3.906 --     5 C    1.403     9 C    1.221     7 O    1.099
     7   8 O    2.254 --     6 C    1.099     8 C    0.978
     8   6 C    3.932 --     7 O    0.978    36 H    0.977    37 H    0.973
                            35 H    0.973
     9   6 C    3.901 --    12 C    1.394     6 C    1.221    10 O    1.099
    10   8 O    2.250 --     9 C    1.099    11 C    0.978
    11   6 C    3.932 --    10 O    0.978    39 H    0.977    40 H    0.974
                            38 H    0.973
    12   6 C    3.962 --    13 C    1.402     9 C    1.394    41 H    0.964
    13   6 C    3.954 --     4 C    1.418    12 C    1.402    42 H    0.963
    14   6 C    3.983 --    15 C    1.006    43 H    0.970    44 H    0.968
                             3 C    0.967
    15   6 C    3.978 --    14 C    1.006    46 H    0.976    16 C    0.976
                            45 H    0.969
    16   6 C    3.936 --    15 C    0.976    17 N    0.966    50 H    0.963
                            48 H    0.960
    17   7 N    3.513 --    18 C    1.473    30 C    1.002    16 C    0.966
    18   6 C    3.618 --    17 N    1.473    19 C    1.046    49 H    0.957
    19   6 C    3.986 --    18 C    1.046    51 H    0.960    20 C    0.954
                            52 H    0.951
    20   6 C    3.924 --    21 C    1.418    29 C    1.372    19 C    0.954
    21   6 C    3.952 --    20 C    1.418    22 C    1.406    53 H    0.965
    22   6 C    3.961 --    21 C    1.406    23 C    1.389    54 H    0.963
    23   6 C    3.901 --    22 C    1.389    26 C    1.218    24 O    1.110
    24   8 O    2.258 --    23 C    1.110    25 C    0.975
    25   6 C    3.928 --    57 H    0.977    24 O    0.975    56 H    0.973
                            55 H    0.973
    26   6 C    3.906 --    29 C    1.401    23 C    1.218    27 O    1.104
    27   8 O    2.258 --    26 C    1.104    28 C    0.978
    28   6 C    3.932 --    27 O    0.978    58 H    0.977    59 H    0.974
                            60 H    0.973
    29   6 C    3.960 --    26 C    1.401    20 C    1.372    61 H    0.963
    30   6 C    3.956 --    17 N    1.002    62 H    0.977    63 H    0.964
                            64 H    0.963
    31   6 C    3.983 --    33 C    1.009    32 C    1.009    65 H    0.960
                             3 C    0.933
    32   6 C    3.989 --    31 C    1.009    68 H    0.983    67 H    0.981
                            66 H    0.981
    33   6 C    3.989 --    31 C    1.009    70 H    0.983    71 H    0.982
                            69 H    0.982
    34   1 H    0.996 --     5 C    0.958
    35   1 H    0.993 --     8 C    0.973
    36   1 H    0.993 --     8 C    0.977
    37   1 H    0.994 --     8 C    0.973
    38   1 H    0.993 --    11 C    0.973
    39   1 H    0.993 --    11 C    0.977
    40   1 H    0.994 --    11 C    0.974
    41   1 H    0.996 --    12 C    0.964
    42   1 H    0.998 --    13 C    0.963
    43   1 H    0.996 --    14 C    0.970
    44   1 H    0.994 --    14 C    0.968
    45   1 H    0.997 --    15 C    0.969
    46   1 H    0.997 --    15 C    0.976
    47   1 H    0.987 --     2 C    0.935
    48   1 H    0.990 --    16 C    0.960
    49   1 H    0.994 --    18 C    0.957
    50   1 H    0.982 --    16 C    0.963
    51   1 H    0.991 --    19 C    0.960
    52   1 H    0.985 --    19 C    0.951
    53   1 H    0.997 --    21 C    0.965
    54   1 H    0.994 --    22 C    0.963
    55   1 H    0.992 --    25 C    0.973
    56   1 H    0.992 --    25 C    0.973
    57   1 H    0.992 --    25 C    0.977
    58   1 H    0.993 --    28 C    0.977
    59   1 H    0.994 --    28 C    0.974
    60   1 H    0.993 --    28 C    0.973
    61   1 H    0.996 --    29 C    0.963
    62   1 H    0.993 --    30 C    0.977
    63   1 H    0.987 --    30 C    0.964
    64   1 H    0.984 --    30 C    0.963
    65   1 H    0.996 --    31 C    0.960
    66   1 H    0.997 --    32 C    0.981
    67   1 H    0.998 --    32 C    0.981
    68   1 H    0.996 --    32 C    0.983
    69   1 H    0.997 --    33 C    0.982
    70   1 H    0.997 --    33 C    0.983
    71   1 H    0.995 --    33 C    0.982
    72   1 H    0.972 --     1 N    0.946
 ---------------------------------------------------------------------------

Topologies differ in total number of bonds
Writing topology from bond orders to xtbtopo.mol

molecular dipole:
                 x           y           z       tot (Debye)
 q only:        0.798      -0.748      -0.386
   full:        0.493      -0.674      -0.035       2.125
molecular quadrupole (traceless):
                xx          xy          yy          xz          yz          zz
 q only:       35.910      -0.081      -7.539      -1.023      -1.861     -28.371
  q+dip:       30.991      -3.190      -6.977      -4.019       1.230     -24.014
   full:       30.215      -3.689      -6.634      -5.534       0.511     -23.581

           -------------------------------------------------
          |                Geometry Summary                 |
           -------------------------------------------------

      molecular mass/u    :      455.6105846
   center of mass at/Å    :        0.0026226      -0.0014011      -0.0227307
  moments of inertia/u·Å² :        0.2418840E+04   0.9452082E+04   0.1072961E+05
rotational constants/cm⁻¹ :        0.6969304E-02   0.1783484E-02   0.1571132E-02

 * 66 selected distances

     #   Z          #   Z                                           value/Å
     1   7 N        2   6 C                                       1.2549484
     4   6 C        5   6 C                                       1.3971292
     5   6 C        6   6 C                                       1.3842248
     6   6 C        7   8 O                                       1.3488962
     7   8 O        8   6 C                                       1.4083979
     6   6 C        9   6 C                                       1.4215361
     9   6 C       10   8 O                                       1.3490961
    10   8 O       11   6 C                                       1.4080915
     9   6 C       12   6 C                                       1.3852352
     4   6 C       13   6 C                                       1.3858154
    12   6 C       13   6 C                                       1.3898027
    14   6 C       15   6 C                                       1.5300560 (max)
    16   6 C       17   7 N                                       1.4637983
    17   7 N       18   6 C                                       1.3135283
    18   6 C       19   6 C                                       1.4811828
    20   6 C       21   6 C                                       1.3830469
    21   6 C       22   6 C                                       1.3879832
    22   6 C       23   6 C                                       1.3865450
    23   6 C       24   8 O                                       1.3455470
    24   8 O       25   6 C                                       1.4099638
    23   6 C       26   6 C                                       1.4229361
    26   6 C       27   8 O                                       1.3478534
    27   8 O       28   6 C                                       1.4076761
    20   6 C       29   6 C                                       1.3938331
    26   6 C       29   6 C                                       1.3850454
    17   7 N       30   6 C                                       1.4419161
    31   6 C       32   6 C                                       1.5297230
    31   6 C       33   6 C                                       1.5279511
     5   6 C       34   1 H                                       1.0768773
     8   6 C       35   1 H                                       1.0943878
     8   6 C       36   1 H                                       1.0882130
     8   6 C       37   1 H                                       1.0950472
    11   6 C       38   1 H                                       1.0939147
    11   6 C       39   1 H                                       1.0879624
    11   6 C       40   1 H                                       1.0946388
    12   6 C       41   1 H                                       1.0779654
    13   6 C       42   1 H                                       1.0793205
    14   6 C       43   1 H                                       1.0904614
    14   6 C       44   1 H                                       1.0892725
    15   6 C       45   1 H                                       1.0914986
    15   6 C       46   1 H                                       1.0909323
     2   6 C       47   1 H                                       1.0951289
    16   6 C       48   1 H                                       1.0987875
    18   6 C       49   1 H                                       1.0798482
    16   6 C       50   1 H                                       0.7860948 (min)
    19   6 C       51   1 H                                       1.0881850
    19   6 C       52   1 H                                       1.0922409
    21   6 C       53   1 H                                       1.0795807
    22   6 C       54   1 H                                       1.0774951
    25   6 C       55   1 H                                       1.0941803
    25   6 C       56   1 H                                       1.0939377
    25   6 C       57   1 H                                       1.0881256
    28   6 C       58   1 H                                       1.0882826
    28   6 C       59   1 H                                       1.0949394
    28   6 C       60   1 H                                       1.0944256
    29   6 C       61   1 H                                       1.0782069
    30   6 C       62   1 H                                       1.0873209
    30   6 C       63   1 H                                       1.0911928
    30   6 C       64   1 H                                       1.0927901
    31   6 C       65   1 H                                       1.0938343
    32   6 C       66   1 H                                       1.0874964
    32   6 C       67   1 H                                       1.0877371
    32   6 C       68   1 H                                       1.0877430
    33   6 C       69   1 H                                       1.0877904
    33   6 C       70   1 H                                       1.0866612
    33   6 C       71   1 H                                       1.0878710

 * 4 distinct bonds (by element types)

   Z      Z             #   av. dist./Å        max./Å        min./Å
   1 H    6 C          38     1.0807997     1.0987875     0.7860948
   6 C    6 C          16     1.4245029     1.5300560     1.3830469
   6 C    7 N           4     1.3685478     1.4637983     1.2549484
   6 C    8 O           8     1.3781903     1.4099638     1.3455470


optimized geometry written to: xtbopt.xyz


           -------------------------------------------------
          | TOTAL ENERGY             -100.829696549253 Eh   |
          | GRADIENT NORM               0.003133444373 Eh/α |
          | HOMO-LUMO GAP               1.803859402377 eV   |
           -------------------------------------------------

------------------------------------------------------------------------
 * finished run on 2024/04/06 at 11:16:49.698     
------------------------------------------------------------------------
 total:
 * wall-time:     0 d,  0 h,  0 min, 17.030 sec
 *  cpu-time:     0 d,  0 h,  0 min, 17.009 sec
 * ratio c/w:     0.999 speedup
 SCF:
 * wall-time:     0 d,  0 h,  0 min,  0.191 sec
 *  cpu-time:     0 d,  0 h,  0 min,  0.191 sec
 * ratio c/w:     0.999 speedup
 ANC optimizer:
 * wall-time:     0 d,  0 h,  0 min, 16.797 sec
 *  cpu-time:     0 d,  0 h,  0 min, 16.792 sec
 * ratio c/w:     1.000 speedup

