      -----------------------------------------------------------      
     |                   =====================                   |     
     |                           x T B                           |     
     |                   =====================                   |     
     |                         S. Grimme                         |     
     |          Mulliken Center for Theoretical Chemistry        |     
     |                    University of Bonn                     |     
      -----------------------------------------------------------      

   * xtb version 6.6.1 (8d0f1dd) compiled by 'conda@1efc2f54142f' on 2023-08-01

   xtb is free software: you can redistribute it and/or modify it under
   the terms of the GNU Lesser General Public License as published by
   the Free Software Foundation, either version 3 of the License, or
   (at your option) any later version.
   
   xtb is distributed in the hope that it will be useful,
   but WITHOUT ANY WARRANTY; without even the implied warranty of
   MERCHANTABILITY or FITNESS FOR A PARTICULAR PURPOSE.  See the
   GNU Lesser General Public License for more details.
   
   Cite this work as:
   * C. Bannwarth, E. Caldeweyher, S. Ehlert, A. Hansen, P. Pracht,
     J. Seibert, S. Spicher, S. Grimme, WIREs Comput. Mol. Sci., 2020, 11,
     e01493. DOI: 10.1002/wcms.1493
   
   for GFN2-xTB:
   * C. Bannwarth, S. Ehlert and S. Grimme., J. Chem. Theory Comput., 2019,
     15, 1652-1671. DOI: 10.1021/acs.jctc.8b01176
   for GFN1-xTB:
   * S. Grimme, C. Bannwarth, P. Shushkov, J. Chem. Theory Comput., 2017,
     13, 1989-2009. DOI: 10.1021/acs.jctc.7b00118
   for GFN0-xTB:
   * P. Pracht, E. Caldeweyher, S. Ehlert, S. Grimme, ChemRxiv, 2019, preprint.
     DOI: 10.26434/chemrxiv.8326202.v1
   for GFN-FF:
   * S. Spicher and S. Grimme, Angew. Chem. Int. Ed., 2020, 59, 15665-15673.
     DOI: 10.1002/anie.202004239
   
   for ALPB and GBSA implicit solvation:
   * S. Ehlert, M. Stahn, S. Spicher, S. Grimme, J. Chem. Theory Comput.,
     2021, 17, 4250-4261. DOI: 10.1021/acs.jctc.1c00471
   
   for DFT-D4:
   * E. Caldeweyher, C. Bannwarth and S. Grimme, J. Chem. Phys., 2017,
     147, 034112. DOI: 10.1063/1.4993215
   * E. Caldeweyher, S. Ehlert, A. Hansen, H. Neugebauer, S. Spicher,
     C. Bannwarth and S. Grimme, J. Chem. Phys., 2019, 150, 154122.
     DOI: 10.1063/1.5090222
   * E. Caldeweyher, J.-M. Mewes, S. Ehlert and S. Grimme, Phys. Chem. Chem. Phys.
     2020, 22, 8499-8512. DOI: 10.1039/D0CP00502A
   
   for sTDA-xTB:
   * S. Grimme and C. Bannwarth, J. Chem. Phys., 2016, 145, 054103.
     DOI: 10.1063/1.4959605
   
   in the mass-spec context:
   * V. Asgeirsson, C. Bauer and S. Grimme, Chem. Sci., 2017, 8, 4879.
     DOI: 10.1039/c7sc00601b
   * J. Koopman and S. Grimme, ACS Omega 2019, 4, 12, 15120-15133.
     DOI: 10.1021/acsomega.9b02011
   
   for metadynamics refer to:
   * S. Grimme, J. Chem. Theory Comput., 2019, 155, 2847-2862
     DOI: 10.1021/acs.jctc.9b00143
   
   for SPH calculations refer to:
   * S. Spicher and S. Grimme, J. Chem. Theory Comput., 2021, 17, 1701-1714
     DOI: 10.1021/acs.jctc.0c01306
   
   with help from (in alphabetical order)
   P. Atkinson, C. Bannwarth, F. Bohle, G. Brandenburg, E. Caldeweyher
   M. Checinski, S. Dohm, S. Ehlert, S. Ehrlich, I. Gerasimov, C. Hölzer
   A. Katbashev, J. Koopman, C. Lavigne, S. Lehtola, F. März, M. Müller,
   F. Musil, H. Neugebauer, J. Pisarek, C. Plett, P. Pracht, F. Pultar,
   J. Seibert, P. Shushkov, S. Spicher, M. Stahn, M. Steiner, T. Strunk,
   J. Stückrath, T. Rose, and J. Unsleber
   
 * started run on 2024/06/05 at 20:00:05.099     

           -------------------------------------------------
          |                Calculation Setup                |
           -------------------------------------------------

          program call               : xtb struc.xyz --opt loose --input .xc1 --gfn2
          hostname                   : n-62-11-66
          coordinate file            : struc.xyz
          omp threads                :                     1

   ID    Z sym.   atoms
    1    6 C      1, 3, 5-7, 10, 11, 14
    2    7 N      2, 4, 9, 13
    3    8 O      8, 12
    4    1 H      15-25
constraining bond 1 18 to    5.1400000 Å, actual value:    2.8227330 Å

           -------------------------------------------------
          |                 G F N 2 - x T B                 |
           -------------------------------------------------

        Reference                      10.1021/acs.jctc.8b01176
      * Hamiltonian:
        H0-scaling (s, p, d)           1.850000    2.230000    2.230000
        zeta-weighting                 0.500000
      * Dispersion:
        s8                             2.700000
        a1                             0.520000
        a2                             5.000000
        s9                             5.000000
      * Repulsion:
        kExp                           1.500000    1.000000
        rExp                           1.000000
      * Coulomb:
        alpha                          2.000000
        third order                    shell-resolved
        anisotropic                    true
        a3                             3.000000
        a5                             4.000000
        cn-shift                       1.200000
        cn-exp                         4.000000
        max-rad                        5.000000


          ...................................................
          :                      SETUP                      :
          :.................................................:
          :  # basis functions                  67          :
          :  # atomic orbitals                  67          :
          :  # shells                           39          :
          :  # electrons                        74          :
          :  max. iterations                   250          :
          :  Hamiltonian                  GFN2-xTB          :
          :  restarted?                      false          :
          :  GBSA solvation                  false          :
          :  PC potential                    false          :
          :  electronic temp.         5000.0000000     K    :
          :  accuracy                    1.0000000          :
          :  -> integral cutoff          0.2500000E+02      :
          :  -> integral neglect         0.1000000E-07      :
          :  -> SCF convergence          0.1000000E-05 Eh   :
          :  -> wf. convergence          0.1000000E-03 e    :
          :  Broyden damping             0.4000000          :
          ...................................................

 iter      E             dE          RMSdq      gap      omega  full diag
   1    -42.5894031 -0.425894E+02  0.445E+00    3.52       0.0  T
   2    -42.7683054 -0.178902E+00  0.251E+00    3.36       1.0  T
   3    -42.7759211 -0.761567E-02  0.147E+00    3.35       1.0  T
   4    -42.7728404  0.308066E-02  0.553E-01    3.33       1.0  T
   5    -42.7789548 -0.611444E-02  0.112E-01    3.35       1.0  T
   6    -42.7790473 -0.924914E-04  0.614E-02    3.33       1.0  T
   7    -42.7790721 -0.247928E-04  0.258E-02    3.34       1.0  T
   8    -42.7790772 -0.508996E-05  0.938E-03    3.34       2.1  T
   9    -42.7790779 -0.669422E-06  0.448E-03    3.34       4.5  T
  10    -42.7790780 -0.821510E-07  0.115E-03    3.34      17.4  T
  11    -42.7790780 -0.322663E-08  0.553E-04    3.34      36.2  T
  12    -42.7790780 -0.287051E-08  0.180E-04    3.34     111.1  T

   *** convergence criteria satisfied after 12 iterations ***

         #    Occupation            Energy/Eh            Energy/eV
      -------------------------------------------------------------
         1        2.0000           -0.9185990             -24.9964
       ...           ...                  ...                  ...
        31        1.9996           -0.6230278             -16.9534
        32        1.9995           -0.6194601             -16.8564
        33        1.9979           -0.5974976             -16.2587
        34        1.9932           -0.5789629             -15.7544
        35        1.9817           -0.5631863             -15.3251
        36        1.9779           -0.5602245             -15.2445
        37        1.9748           -0.5581234             -15.1873 (HOMO)
        38        0.0652           -0.4353579             -11.8467 (LUMO)
        39        0.0099           -0.4050467             -11.0219
        40        0.0013           -0.3732218             -10.1559
        41        0.0000           -0.2886859              -7.8555
        42                         -0.2065804              -5.6213
       ...                                ...                  ...
        67                          0.5625656              15.3082
      -------------------------------------------------------------
                  HL-Gap            0.1227656 Eh            3.3406 eV
             Fermi-level           -0.4890455 Eh          -13.3076 eV

 SCC (total)                   0 d,  0 h,  0 min,  0.035 sec
 SCC setup                      ...        0 min,  0.000 sec (  1.214%)
 Dispersion                     ...        0 min,  0.000 sec (  1.246%)
 classical contributions        ...        0 min,  0.000 sec (  0.375%)
 integral evaluation            ...        0 min,  0.006 sec ( 18.135%)
 iterations                     ...        0 min,  0.016 sec ( 45.473%)
 molecular gradient             ...        0 min,  0.012 sec ( 33.074%)
 printout                       ...        0 min,  0.000 sec (  0.456%)

         :::::::::::::::::::::::::::::::::::::::::::::::::::::
         ::                     SUMMARY                     ::
         :::::::::::::::::::::::::::::::::::::::::::::::::::::
         :: total energy              -3.896583873269 Eh    ::
         :: gradient norm             24.771239744594 Eh/a0 ::
         :: HOMO-LUMO gap              3.340621582928 eV    ::
         ::.................................................::
         :: SCC energy               -42.779077977399 Eh    ::
         :: -> isotropic ES            0.141123876439 Eh    ::
         :: -> anisotropic ES         -0.005230418907 Eh    ::
         :: -> anisotropic XC          0.011966818540 Eh    ::
         :: -> dispersion             -0.022657731803 Eh    ::
         :: repulsion energy           0.531105277918 Eh    ::
         :: add. restraining          38.351274667202 Eh    ::
         :: total charge               1.000000000002 e     ::
         :::::::::::::::::::::::::::::::::::::::::::::::::::::

      ----------------------------------------------------------- 
     |                   =====================                   |
     |                        A N C O P T                        |
     |                   =====================                   |
     |               Approximate Normal Coordinate               |
     |                Rational Function Optimizer                |
      ----------------------------------------------------------- 

          ...................................................
          :                      SETUP                      :
          :.................................................:
          :   optimization level             loose          :
          :   max. optcycles                   200          :
          :   ANC micro-cycles                  20          :
          :   degrees of freedom                69          :
          :.................................................:
          :   RF solver                   davidson          :
          :   write xtbopt.log                true          :
          :   linear?                        false          :
          :   energy convergence         0.5000000E-04 Eh   :
          :   grad. convergence          0.4000000E-02 Eh/α :
          :   maxmium RF displ.          1.0000000          :
          :   Hlow (freq-cutoff)         0.1000000E-01      :
          :   Hmax (freq-cutoff)         5.0000000          :
          :   S6 in model hess.         20.0000000          :
          ...................................................

generating ANC from model Hessian ...
Using Lindh-Hessian (1995)
 Shifting diagonal of input Hessian by    5.9259718167533535     
 Lowest  eigenvalues of input Hessian
    0.010000    0.061915    0.000000    0.000000    0.000000    0.000000
    0.000000    0.000000    5.930051    5.931557    5.933090    5.936325
    5.937185    5.938053    5.940402    5.943796    5.949623    5.954383
 Highest eigenvalues
    8.022307    8.131293    8.206564    8.340151    8.467868   14.500655


........................................................................
.............................. CYCLE    1 ..............................
........................................................................

 iter      E             dE          RMSdq      gap      omega  full diag
   1    -42.7790780 -0.427791E+02  0.626E-05    3.34       0.0  T
   2    -42.7790780 -0.124416E-10  0.329E-05    3.34     607.4  T
   3    -42.7790780  0.127898E-12  0.193E-05    3.34    1034.2  T
     SCC iter.                  ...        0 min,  0.005 sec
     gradient                   ...        0 min,  0.012 sec
 * total energy  :    -3.8965839 Eh     change       -0.6650680E-10 Eh
   gradient norm :    24.7712399 Eh/α   predicted     0.0000000E+00 (-100.00%)
   displ. norm   :     0.9041591 α      lambda       -0.2239713E+02
   maximum displ.:     0.9015047 α      in ANC's #3, #21, #10, ...

........................................................................
.............................. CYCLE    2 ..............................
........................................................................

 iter      E             dE          RMSdq      gap      omega  full diag
   1    -42.6947923 -0.426948E+02  0.118E+00    3.33       0.0  T
   2    -42.6996453 -0.485306E-02  0.650E-01    3.40       1.0  T
   3    -42.6999550 -0.309682E-03  0.329E-01    3.37       1.0  T
   4    -42.7002306 -0.275632E-03  0.525E-02    3.37       1.0  T
   5    -42.7002803 -0.496601E-04  0.204E-02    3.38       1.0  T
   6    -42.7002814 -0.111158E-05  0.973E-03    3.37       2.1  T
   7    -42.7002828 -0.142607E-05  0.282E-03    3.38       7.1  T
   8    -42.7002829 -0.746807E-07  0.124E-03    3.37      16.2  T
   9    -42.7002829 -0.171802E-07  0.398E-04    3.38      50.2  T
  10    -42.7002829 -0.953818E-09  0.176E-04    3.38     113.9  T
     SCC iter.                  ...        0 min,  0.013 sec
     gradient                   ...        0 min,  0.011 sec
 * total energy  :   -22.8593964 Eh     change       -0.1896281E+02 Eh
   gradient norm :    17.1290883 Eh/α   predicted    -0.2035343E+02 (   7.33%)
   displ. norm   :     0.7864488 α      lambda       -0.1343961E+02
   maximum displ.:     0.7774194 α      in ANC's #3, #21, #19, ...

........................................................................
.............................. CYCLE    3 ..............................
........................................................................

 iter      E             dE          RMSdq      gap      omega  full diag
   1    -42.5594422 -0.425594E+02  0.958E-01    2.73       0.0  T
   2    -42.5627170 -0.327477E-02  0.590E-01    2.62       1.0  T
   3    -42.5647989 -0.208193E-02  0.408E-01    2.87       1.0  T
   4    -42.5655715 -0.772557E-03  0.148E-01    2.63       1.0  T
   5    -42.5662288 -0.657345E-03  0.300E-02    2.75       1.0  T
   6    -42.5662475 -0.186481E-04  0.120E-02    2.75       1.7  T
   7    -42.5662481 -0.639588E-06  0.511E-03    2.74       3.9  T
   8    -42.5662483 -0.225475E-06  0.197E-03    2.75      10.2  T
   9    -42.5662484 -0.626952E-07  0.699E-04    2.74      28.6  T
  10    -42.5662484 -0.350472E-08  0.230E-04    2.74      87.0  T
     SCC iter.                  ...        0 min,  0.013 sec
     gradient                   ...        0 min,  0.011 sec
 * total energy  :   -33.7248638 Eh     change       -0.1086547E+02 Eh
   gradient norm :    10.6366212 Eh/α   predicted    -0.1088699E+02 (   0.20%)
   displ. norm   :     0.7492845 α      lambda       -0.7730153E+01
   maximum displ.:     0.6642323 α      in ANC's #3, #2, #21, ...

........................................................................
.............................. CYCLE    4 ..............................
........................................................................

 iter      E             dE          RMSdq      gap      omega  full diag
   1    -42.4367745 -0.424368E+02  0.694E-01    1.50       0.0  T
   2    -42.4417223 -0.494775E-02  0.650E-01    2.03       1.0  T
   3    -42.4488908 -0.716853E-02  0.295E-01    1.71       1.0  T
   4    -42.4444206  0.447018E-02  0.448E-01    1.99       1.0  T
   5    -42.4491945 -0.477392E-02  0.132E-01    1.74       1.0  T
   6    -42.4496779 -0.483379E-03  0.306E-02    1.77       1.0  T
   7    -42.4497042 -0.262525E-04  0.143E-02    1.78       1.4  T
   8    -42.4497025  0.170246E-05  0.110E-02    1.78       1.8  T
   9    -42.4497054 -0.293615E-05  0.363E-03    1.78       5.5  T
  10    -42.4497057 -0.327698E-06  0.626E-04    1.78      31.9  T
  11    -42.4497057 -0.661579E-09  0.279E-04    1.78      71.6  T
     SCC iter.                  ...        0 min,  0.014 sec
     gradient                   ...        0 min,  0.011 sec
 * total energy  :   -39.6657984 Eh     change       -0.5940935E+01 Eh
   gradient norm :     5.6099887 Eh/α   predicted    -0.6035050E+01 (   1.58%)
   displ. norm   :     0.5738322 α      lambda       -0.3141371E+01
   maximum displ.:     0.5184067 α      in ANC's #3, #2, #1, ...

........................................................................
.............................. CYCLE    5 ..............................
........................................................................

 iter      E             dE          RMSdq      gap      omega  full diag
   1    -42.3534370 -0.423534E+02  0.692E-01    1.12       0.0  T
   2    -42.3509225  0.251451E-02  0.570E-01    1.14       1.0  T
   3    -42.3468153  0.410726E-02  0.574E-01    1.30       1.0  T
   4    -42.3476045 -0.789258E-03  0.464E-01    0.98       1.0  T
   5    -42.3573252 -0.972066E-02  0.227E-01    1.23       1.0  T
   6    -42.3588538 -0.152859E-02  0.701E-02    1.21       1.0  T
   7    -42.3589988 -0.144995E-03  0.333E-02    1.20       1.0  T
   8    -42.3590265 -0.277644E-04  0.103E-02    1.19       1.9  T
   9    -42.3590295 -0.301042E-05  0.237E-03    1.19       8.5  T
  10    -42.3590296 -0.668592E-07  0.109E-03    1.19      18.4  T
  11    -42.3590296 -0.285509E-08  0.413E-04    1.19      48.5  T
  12    -42.3590296 -0.261524E-08  0.157E-04    1.19     127.4  T
     SCC iter.                  ...        0 min,  0.015 sec
     gradient                   ...        0 min,  0.011 sec
 * total energy  :   -41.6683070 Eh     change       -0.2002509E+01 Eh
   gradient norm :     1.4818591 Eh/α   predicted    -0.2087913E+01 (   4.26%)
   displ. norm   :     0.4417963 α      lambda       -0.3541393E+00
   maximum displ.:     0.3787623 α      in ANC's #2, #1, #3, ...

........................................................................
.............................. CYCLE    6 ..............................
........................................................................

 iter      E             dE          RMSdq      gap      omega  full diag
   1    -42.3239921 -0.423240E+02  0.575E-01    0.86       0.0  T
   2    -42.3224998  0.149228E-02  0.411E-01    0.92       1.0  T
   3    -42.2841451  0.383547E-01  0.842E-01    0.63       1.0  T
   4    -42.3225965 -0.384514E-01  0.233E-01    0.93       1.0  T
   5    -42.3244135 -0.181706E-02  0.818E-02    0.91       1.0  T
   6    -42.3245392 -0.125691E-03  0.583E-02    0.91       1.0  T
   7    -42.3246484 -0.109234E-03  0.216E-02    0.90       1.0  T
   8    -42.3246606 -0.121575E-04  0.819E-03    0.90       2.4  T
   9    -42.3246623 -0.166596E-05  0.266E-03    0.90       7.5  T
  10    -42.3246624 -0.109291E-06  0.123E-03    0.90      16.2  T
  11    -42.3246624 -0.330824E-07  0.478E-04    0.90      41.9  T
  12    -42.3246624 -0.162623E-08  0.248E-04    0.90      80.6  T
     SCC iter.                  ...        0 min,  0.015 sec
     gradient                   ...        0 min,  0.012 sec
 * total energy  :   -41.8528180 Eh     change       -0.1845110E+00 Eh
   gradient norm :     0.1370344 Eh/α   predicted    -0.2116364E+00 (  14.70%)
   displ. norm   :     0.3859580 α      lambda       -0.1413003E-01
   maximum displ.:     0.2844129 α      in ANC's #2, #1, #3, ...

........................................................................
.............................. CYCLE    7 ..............................
........................................................................

 iter      E             dE          RMSdq      gap      omega  full diag
   1    -42.3180752 -0.423181E+02  0.355E-01    0.81       0.0  T
   2    -42.3149280  0.314727E-02  0.338E-01    0.86       1.0  T
   3    -42.3097415  0.518647E-02  0.410E-01    0.75       1.0  T
   4    -42.3180633 -0.832176E-02  0.107E-01    0.84       1.0  T
   5    -42.3184365 -0.373197E-03  0.291E-02    0.83       1.0  T
   6    -42.3184488 -0.123166E-04  0.190E-02    0.83       1.1  T
   7    -42.3184571 -0.833260E-05  0.103E-02    0.83       1.9  T
   8    -42.3184597 -0.260616E-05  0.490E-03    0.83       4.1  T
   9    -42.3184606 -0.897329E-06  0.120E-03    0.83      16.6  T
  10    -42.3184606 -0.313983E-08  0.468E-04    0.83      42.7  T
  11    -42.3184606 -0.249558E-08  0.195E-04    0.83     102.8  T
     SCC iter.                  ...        0 min,  0.014 sec
     gradient                   ...        0 min,  0.012 sec
 * total energy  :   -41.8575815 Eh     change       -0.4763444E-02 Eh
   gradient norm :     0.1286474 Eh/α   predicted    -0.8144942E-02 (  70.99%)
   displ. norm   :     0.4109264 α      lambda       -0.7869374E-02
   maximum displ.:     0.3869195 α      in ANC's #1, #2, #51, ...

........................................................................
.............................. CYCLE    8 ..............................
........................................................................

 iter      E             dE          RMSdq      gap      omega  full diag
   1    -42.3202158 -0.423202E+02  0.393E-01    0.90       0.0  T
   2    -42.3046929  0.155229E-01  0.578E-01    1.03       1.0  T
   3    -42.3188580 -0.141651E-01  0.285E-01    0.87       1.0  T
   4    -42.3215616 -0.270361E-02  0.532E-02    0.93       1.0  T
   5    -42.3216485 -0.868973E-04  0.166E-02    0.94       1.2  T
   6    -42.3216549 -0.641961E-05  0.864E-03    0.94       2.3  T
   7    -42.3216561 -0.114667E-05  0.505E-03    0.94       4.0  T
   8    -42.3216563 -0.237860E-06  0.227E-03    0.94       8.8  T
   9    -42.3216566 -0.233841E-06  0.468E-04    0.94      42.8  T
  10    -42.3216566 -0.121617E-08  0.272E-04    0.94      73.5  T
     SCC iter.                  ...        0 min,  0.013 sec
     gradient                   ...        0 min,  0.011 sec
 * total energy  :   -41.8634580 Eh     change       -0.5876481E-02 Eh
   gradient norm :     0.1567632 Eh/α   predicted    -0.4627231E-02 ( -21.26%)
   displ. norm   :     0.2951902 α      lambda       -0.1595120E-01
   maximum displ.:     0.2722088 α      in ANC's #1, #51, #54, ...

........................................................................
.............................. CYCLE    9 ..............................
........................................................................

 iter      E             dE          RMSdq      gap      omega  full diag
   1    -42.3360878 -0.423361E+02  0.328E-01    1.01       0.0  T
   2    -42.3301291  0.595871E-02  0.393E-01    1.17       1.0  T
   3    -42.3333159 -0.318677E-02  0.286E-01    0.95       1.0  T
   4    -42.3363277 -0.301179E-02  0.109E-01    1.06       1.0  T
   5    -42.3367027 -0.375061E-03  0.231E-02    1.05       1.0  T
   6    -42.3367127 -0.996950E-05  0.145E-02    1.05       1.4  T
   7    -42.3367175 -0.482520E-05  0.534E-03    1.05       3.7  T
   8    -42.3367180 -0.440712E-06  0.154E-03    1.05      13.0  T
   9    -42.3367180 -0.433273E-07  0.712E-04    1.05      28.1  T
  10    -42.3367180 -0.706547E-08  0.302E-04    1.05      66.2  T
     SCC iter.                  ...        0 min,  0.013 sec
     gradient                   ...        0 min,  0.012 sec
 * total energy  :   -41.8777509 Eh     change       -0.1429290E-01 Eh
   gradient norm :     0.1883199 Eh/α   predicted    -0.8671161E-02 ( -39.33%)
   displ. norm   :     0.5729553 α      lambda       -0.6875055E-01
   maximum displ.:     0.2380050 α      in ANC's #1, #51, #54, ...

........................................................................
.............................. CYCLE   10 ..............................
........................................................................

 iter      E             dE          RMSdq      gap      omega  full diag
   1    -42.4060020 -0.424060E+02  0.811E-01    1.21       0.0  T
   2    -42.3992213  0.678068E-02  0.699E-01    1.51       1.0  T
   3    -42.3831099  0.161114E-01  0.797E-01    0.91       1.0  T
   4    -42.4015233 -0.184134E-01  0.418E-01    1.42       1.0  T
   5    -42.4076800 -0.615667E-02  0.945E-02    1.25       1.0  T
   6    -42.4079901 -0.310120E-03  0.425E-02    1.25       1.0  T
   7    -42.4080331 -0.429863E-04  0.203E-02    1.26       1.0  T
   8    -42.4080392 -0.608398E-05  0.909E-03    1.27       2.2  T
   9    -42.4080413 -0.208468E-05  0.241E-03    1.27       8.3  T
  10    -42.4080413 -0.549169E-07  0.114E-03    1.27      17.5  T
  11    -42.4080413 -0.312824E-07  0.271E-04    1.27      73.9  T
  12    -42.4080413 -0.584784E-09  0.101E-04    1.27     198.1  T
     SCC iter.                  ...        0 min,  0.015 sec
     gradient                   ...        0 min,  0.011 sec
 * total energy  :   -41.9302884 Eh     change       -0.5253750E-01 Eh
   gradient norm :     0.1586009 Eh/α   predicted    -0.4566033E-01 ( -13.09%)
   displ. norm   :     0.6038713 α      lambda       -0.5550154E-01
   maximum displ.:     0.2474480 α      in ANC's #51, #2, #54, ...

........................................................................
.............................. CYCLE   11 ..............................
........................................................................

 iter      E             dE          RMSdq      gap      omega  full diag
   1    -42.4550490 -0.424550E+02  0.597E-01    1.29       0.0  T
   2    -42.4531074  0.194158E-02  0.432E-01    1.46       1.0  T
   3    -42.4407917  0.123157E-01  0.690E-01    1.02       1.0  T
   4    -42.4541439 -0.133521E-01  0.219E-01    1.40       1.0  T
   5    -42.4556570 -0.151314E-02  0.729E-02    1.31       1.0  T
   6    -42.4558282 -0.171168E-03  0.335E-02    1.31       1.0  T
   7    -42.4558515 -0.233486E-04  0.182E-02    1.32       1.1  T
   8    -42.4558577 -0.623522E-05  0.735E-03    1.32       2.7  T
   9    -42.4558593 -0.156135E-05  0.184E-03    1.32      10.9  T
  10    -42.4558594 -0.610408E-07  0.428E-04    1.32      46.7  T
  11    -42.4558594 -0.152703E-08  0.146E-04    1.32     137.1  T
     SCC iter.                  ...        0 min,  0.014 sec
     gradient                   ...        0 min,  0.011 sec
 * total energy  :   -41.9386912 Eh     change       -0.8402797E-02 Eh
   gradient norm :     0.2930252 Eh/α   predicted    -0.3787028E-01 ( 350.69%)
   displ. norm   :     0.4776654 α      lambda       -0.5539903E-01
   maximum displ.:     0.4443637 α      in ANC's #1, #2, #51, ...

........................................................................
.............................. CYCLE   12 ..............................
........................................................................

 iter      E             dE          RMSdq      gap      omega  full diag
   1    -42.4640729 -0.424641E+02  0.359E-01    1.36       0.0  T
   2    -42.4638711  0.201789E-03  0.226E-01    1.30       1.0  T
   3    -42.4602409  0.363025E-02  0.345E-01    1.51       1.0  T
   4    -42.4637217 -0.348085E-02  0.112E-01    1.30       1.0  T
   5    -42.4641766 -0.454841E-03  0.342E-02    1.35       1.0  T
   6    -42.4642168 -0.402360E-04  0.952E-03    1.34       2.1  T
   7    -42.4642184 -0.161085E-05  0.449E-03    1.34       4.5  T
   8    -42.4642187 -0.304714E-06  0.126E-03    1.34      15.9  T
   9    -42.4642187 -0.422122E-07  0.404E-04    1.34      49.5  T
  10    -42.4642188 -0.854186E-09  0.220E-04    1.34      91.0  T
     SCC iter.                  ...        0 min,  0.013 sec
     gradient                   ...        0 min,  0.011 sec
 * total energy  :   -41.9577588 Eh     change       -0.1906760E-01 Eh
   gradient norm :     0.2529000 Eh/α   predicted    -0.3402072E-01 (  78.42%)
   displ. norm   :     0.2710174 α      lambda       -0.1615836E-01
   maximum displ.:     0.2066202 α      in ANC's #1, #51, #35, ...

........................................................................
.............................. CYCLE   13 ..............................
........................................................................

 iter      E             dE          RMSdq      gap      omega  full diag
   1    -42.4428035 -0.424428E+02  0.262E-01    1.29       0.0  T
   2    -42.4428622 -0.587054E-04  0.167E-01    1.27       1.0  T
   3    -42.4423956  0.466603E-03  0.174E-01    1.36       1.0  T
   4    -42.4420731  0.322515E-03  0.154E-01    1.22       1.0  T
   5    -42.4430140 -0.940881E-03  0.490E-02    1.31       1.0  T
   6    -42.4430896 -0.756432E-04  0.177E-02    1.30       1.1  T
   7    -42.4430964 -0.678653E-05  0.995E-03    1.30       2.0  T
   8    -42.4430983 -0.194725E-05  0.345E-03    1.30       5.8  T
   9    -42.4430987 -0.355731E-06  0.101E-03    1.30      19.8  T
  10    -42.4430987 -0.153969E-07  0.313E-04    1.30      63.9  T
  11    -42.4430987 -0.940062E-09  0.828E-05    1.30     241.4  T
     SCC iter.                  ...        0 min,  0.014 sec
     gradient                   ...        0 min,  0.011 sec
 * total energy  :   -41.9581108 Eh     change       -0.3520724E-03 Eh
   gradient norm :     0.1570059 Eh/α   predicted    -0.8673066E-02 (2363.43%)
   displ. norm   :     0.1878754 α      lambda       -0.1204015E-01
   maximum displ.:     0.0997619 α      in ANC's #1, #51, #54, ...

........................................................................
.............................. CYCLE   14 ..............................
........................................................................

 iter      E             dE          RMSdq      gap      omega  full diag
   1    -42.4635186 -0.424635E+02  0.168E-01    1.33       0.0  T
   2    -42.4635304 -0.118513E-04  0.104E-01    1.32       1.0  T
   3    -42.4633072  0.223225E-03  0.762E-02    1.37       1.0  T
   4    -42.4633557 -0.484595E-04  0.752E-02    1.29       1.0  T
   5    -42.4635435 -0.187837E-03  0.127E-02    1.32       1.6  T
   6    -42.4635453 -0.183462E-05  0.833E-03    1.32       2.4  T
   7    -42.4635468 -0.143072E-05  0.341E-03    1.32       5.9  T
   8    -42.4635470 -0.261645E-06  0.137E-03    1.33      14.6  T
   9    -42.4635471 -0.547010E-07  0.466E-04    1.33      42.9  T
  10    -42.4635471 -0.382869E-08  0.821E-05    1.33     243.5  T
     SCC iter.                  ...        0 min,  0.013 sec
     gradient                   ...        0 min,  0.011 sec
 * total energy  :   -41.9663751 Eh     change       -0.8264304E-02 Eh
   gradient norm :     0.0982364 Eh/α   predicted    -0.6232553E-02 ( -24.58%)
   displ. norm   :     0.1222718 α      lambda       -0.5293379E-02
   maximum displ.:     0.0554655 α      in ANC's #51, #54, #46, ...

........................................................................
.............................. CYCLE   15 ..............................
........................................................................

 iter      E             dE          RMSdq      gap      omega  full diag
   1    -42.4783931 -0.424784E+02  0.118E-01    1.37       0.0  T
   2    -42.4781592  0.233847E-03  0.117E-01    1.30       1.0  T
   3    -42.4782325 -0.733256E-04  0.911E-02    1.39       1.0  T
   4    -42.4783268 -0.943086E-04  0.626E-02    1.33       1.0  T
   5    -42.4784578 -0.130916E-03  0.143E-02    1.35       1.4  T
   6    -42.4784629 -0.515956E-05  0.662E-03    1.35       3.0  T
   7    -42.4784639 -0.991584E-06  0.227E-03    1.35       8.8  T
   8    -42.4784640 -0.744698E-07  0.491E-04    1.35      40.8  T
   9    -42.4784640 -0.435985E-08  0.218E-04    1.35      91.6  T
     SCC iter.                  ...        0 min,  0.012 sec
     gradient                   ...        0 min,  0.011 sec
 * total energy  :   -41.9702217 Eh     change       -0.3846532E-02 Eh
   gradient norm :     0.0962816 Eh/α   predicted    -0.2686451E-02 ( -30.16%)
   displ. norm   :     0.1396234 α      lambda       -0.6724110E-02
   maximum displ.:     0.0602900 α      in ANC's #51, #54, #27, ...

........................................................................
.............................. CYCLE   16 ..............................
........................................................................

 iter      E             dE          RMSdq      gap      omega  full diag
   1    -42.4943559 -0.424944E+02  0.177E-01    1.43       0.0  T
   2    -42.4932510  0.110486E-02  0.224E-01    1.28       1.0  T
   3    -42.4944058 -0.115481E-02  0.118E-01    1.43       1.0  T
   4    -42.4944893 -0.835128E-04  0.865E-02    1.36       1.0  T
   5    -42.4947081 -0.218814E-03  0.262E-02    1.38       1.0  T
   6    -42.4947313 -0.231470E-04  0.611E-03    1.38       3.3  T
   7    -42.4947318 -0.485480E-06  0.343E-03    1.38       5.8  T
   8    -42.4947319 -0.156968E-06  0.104E-03    1.38      19.2  T
   9    -42.4947320 -0.309431E-07  0.284E-04    1.38      70.4  T
  10    -42.4947320 -0.129880E-08  0.129E-04    1.38     155.5  T
     SCC iter.                  ...        0 min,  0.013 sec
     gradient                   ...        0 min,  0.011 sec
 * total energy  :   -41.9755291 Eh     change       -0.5307384E-02 Eh
   gradient norm :     0.0927923 Eh/α   predicted    -0.3427635E-02 ( -35.42%)
   displ. norm   :     0.2157720 α      lambda       -0.1010177E-01
   maximum displ.:     0.0794120 α      in ANC's #51, #2, #25, ...

........................................................................
.............................. CYCLE   17 ..............................
........................................................................

 iter      E             dE          RMSdq      gap      omega  full diag
   1    -42.5103501 -0.425104E+02  0.315E-01    1.52       0.0  T
   2    -42.5070051  0.334503E-02  0.394E-01    1.26       1.0  T
   3    -42.5106936 -0.368850E-02  0.210E-01    1.53       1.0  T
   4    -42.5111714 -0.477792E-03  0.130E-01    1.41       1.0  T
   5    -42.5116359 -0.464492E-03  0.455E-02    1.44       1.0  T
   6    -42.5117011 -0.652241E-04  0.950E-03    1.44       2.1  T
   7    -42.5117024 -0.128005E-05  0.515E-03    1.44       3.9  T
   8    -42.5117024 -0.264662E-07  0.256E-03    1.44       7.8  T
   9    -42.5117026 -0.205613E-06  0.485E-04    1.44      41.3  T
  10    -42.5117026 -0.246406E-08  0.253E-04    1.44      79.1  T
     SCC iter.                  ...        0 min,  0.013 sec
     gradient                   ...        0 min,  0.011 sec
 * total energy  :   -41.9823820 Eh     change       -0.6852916E-02 Eh
   gradient norm :     0.0989828 Eh/α   predicted    -0.5286110E-02 ( -22.86%)
   displ. norm   :     0.1499967 α      lambda       -0.4660284E-02
   maximum displ.:     0.0627687 α      in ANC's #2, #51, #25, ...

........................................................................
.............................. CYCLE   18 ..............................
........................................................................

 iter      E             dE          RMSdq      gap      omega  full diag
   1    -42.5146093 -0.425146E+02  0.200E-01    1.54       0.0  T
   2    -42.5130450  0.156426E-02  0.259E-01    1.35       1.0  T
   3    -42.5147707 -0.172567E-02  0.131E-01    1.53       1.0  T
   4    -42.5148656 -0.949012E-04  0.879E-02    1.47       1.0  T
   5    -42.5151182 -0.252595E-03  0.158E-02    1.48       1.3  T
   6    -42.5151246 -0.643842E-05  0.554E-03    1.48       3.6  T
   7    -42.5151250 -0.399864E-06  0.306E-03    1.48       6.5  T
   8    -42.5151250 -0.442688E-07  0.113E-03    1.48      17.7  T
   9    -42.5151251 -0.436805E-07  0.288E-04    1.48      69.5  T
  10    -42.5151251 -0.755044E-09  0.151E-04    1.48     132.6  T
     SCC iter.                  ...        0 min,  0.013 sec
     gradient                   ...        0 min,  0.011 sec
 * total energy  :   -41.9858666 Eh     change       -0.3484643E-02 Eh
   gradient norm :     0.1084477 Eh/α   predicted    -0.2382626E-02 ( -31.62%)
   displ. norm   :     0.1913203 α      lambda       -0.6116463E-02
   maximum displ.:     0.0698152 α      in ANC's #51, #2, #25, ...

........................................................................
.............................. CYCLE   19 ..............................
........................................................................

 iter      E             dE          RMSdq      gap      omega  full diag
   1    -42.5096979 -0.425097E+02  0.222E-01    1.61       0.0  T
   2    -42.5078809  0.181694E-02  0.274E-01    1.39       1.0  T
   3    -42.5097883 -0.190740E-02  0.153E-01    1.60       1.0  T
   4    -42.5099047 -0.116369E-03  0.993E-02    1.53       1.0  T
   5    -42.5102508 -0.346058E-03  0.157E-02    1.54       1.3  T
   6    -42.5102553 -0.451112E-05  0.559E-03    1.54       3.6  T
   7    -42.5102554 -0.108218E-06  0.256E-03    1.54       7.8  T
   8    -42.5102555 -0.767712E-07  0.493E-04    1.54      40.5  T
   9    -42.5102555 -0.984606E-09  0.290E-04    1.54      68.9  T
     SCC iter.                  ...        0 min,  0.011 sec
     gradient                   ...        0 min,  0.011 sec
 * total energy  :   -41.9905503 Eh     change       -0.4683715E-02 Eh
   gradient norm :     0.1079143 Eh/α   predicted    -0.3170188E-02 ( -32.31%)
   displ. norm   :     0.2200786 α      lambda       -0.8027771E-02
   maximum displ.:     0.0849430 α      in ANC's #51, #25, #27, ...

........................................................................
.............................. CYCLE   20 ..............................
........................................................................

 iter      E             dE          RMSdq      gap      omega  full diag
   1    -42.4936003 -0.424936E+02  0.237E-01    1.66       0.0  T
   2    -42.4923579  0.124240E-02  0.240E-01    1.46       1.0  T
   3    -42.4933461 -0.988179E-03  0.191E-01    1.68       1.0  T
   4    -42.4940886 -0.742562E-03  0.666E-02    1.60       1.0  T
   5    -42.4941232 -0.345419E-04  0.448E-02    1.60       1.0  T
   6    -42.4941884 -0.652365E-04  0.789E-03    1.59       2.5  T
   7    -42.4941889 -0.508575E-06  0.409E-03    1.59       4.9  T
   8    -42.4941889 -0.315725E-07  0.172E-03    1.59      11.6  T
   9    -42.4941890 -0.885497E-07  0.477E-04    1.59      41.9  T
  10    -42.4941890 -0.223797E-08  0.232E-04    1.59      86.4  T
     SCC iter.                  ...        0 min,  0.013 sec
     gradient                   ...        0 min,  0.012 sec
 * total energy  :   -41.9960609 Eh     change       -0.5510522E-02 Eh
   gradient norm :     0.0860464 Eh/α   predicted    -0.4208319E-02 ( -23.63%)
   displ. norm   :     0.0983176 α      lambda       -0.4745109E-02
   maximum displ.:     0.0348215 α      in ANC's #51, #25, #27, ...
 * RMSD in coord.:     0.7595099 α      energy gain  -0.3809948E+02 Eh

generating ANC from model Hessian ...
Using Lindh-Hessian (1995)
 Shifting diagonal of input Hessian by    1.6842507649074273E-002
 Lowest  eigenvalues of input Hessian
    0.010000    0.012407    0.000000    0.000000    0.000000    0.000000
    0.000000    0.000000    0.016947    0.017590    0.018880    0.019854
    0.020863    0.021161    0.022156    0.023686    0.027284    0.028503
 Highest eigenvalues
    1.955343    2.148543    2.251151    2.314370    2.515095    8.172511


........................................................................
.............................. CYCLE   21 ..............................
........................................................................

 iter      E             dE          RMSdq      gap      omega  full diag
   1    -42.4819568 -0.424820E+02  0.146E-01    1.62       0.0  T
   2    -42.4818544  0.102336E-03  0.123E-01    1.56       1.0  T
   3    -42.4820020 -0.147586E-03  0.986E-02    1.64       1.0  T
   4    -42.4822268 -0.224786E-03  0.421E-02    1.59       1.0  T
   5    -42.4822371 -0.103576E-04  0.280E-02    1.61       1.0  T
   6    -42.4822578 -0.206184E-04  0.602E-03    1.60       3.3  T
   7    -42.4822587 -0.974056E-06  0.284E-03    1.60       7.0  T
   8    -42.4822588 -0.126187E-07  0.158E-03    1.60      12.7  T
   9    -42.4822588 -0.573236E-07  0.294E-04    1.60      68.0  T
  10    -42.4822588 -0.815241E-09  0.144E-04    1.60     139.4  T
     SCC iter.                  ...        0 min,  0.013 sec
     gradient                   ...        0 min,  0.011 sec
 * total energy  :   -41.9993166 Eh     change       -0.3255718E-02 Eh
   gradient norm :     0.0614620 Eh/α   predicted     0.0000000E+00 (-100.00%)
   displ. norm   :     0.5259792 α      lambda       -0.1255950E-01
   maximum displ.:     0.3680483 α      in ANC's #8, #5, #16, ...

........................................................................
.............................. CYCLE   22 ..............................
........................................................................

 iter      E             dE          RMSdq      gap      omega  full diag
   1    -42.4993366 -0.424993E+02  0.404E-01    1.43       0.0  T
   2    -42.4958090  0.352760E-02  0.467E-01    1.73       1.0  T
   3    -42.4998961 -0.408707E-02  0.221E-01    1.44       1.0  T
   4    -42.5003735 -0.477397E-03  0.109E-01    1.56       1.0  T
   5    -42.5005710 -0.197525E-03  0.246E-02    1.53       1.0  T
   6    -42.5005891 -0.181013E-04  0.105E-02    1.52       1.9  T
   7    -42.5005902 -0.107385E-05  0.481E-03    1.52       4.2  T
   8    -42.5005906 -0.384836E-06  0.284E-03    1.52       7.0  T
   9    -42.5005908 -0.205257E-06  0.651E-04    1.52      30.7  T
  10    -42.5005908 -0.167271E-08  0.355E-04    1.52      56.3  T
     SCC iter.                  ...        0 min,  0.013 sec
     gradient                   ...        0 min,  0.012 sec
 * total energy  :   -42.0113818 Eh     change       -0.1206521E-01 Eh
   gradient norm :     0.0569994 Eh/α   predicted    -0.8056680E-02 ( -33.22%)
   displ. norm   :     0.9206664 α      lambda       -0.2579482E-01
   maximum displ.:     0.5803430 α      in ANC's #8, #16, #5, ...

........................................................................
.............................. CYCLE   23 ..............................
........................................................................

 iter      E             dE          RMSdq      gap      omega  full diag
   1    -42.5421380 -0.425421E+02  0.556E-01    1.19       0.0  T
   2    -42.5358099  0.632817E-02  0.683E-01    1.62       1.0  T
   3    -42.5440692 -0.825935E-02  0.279E-01    1.26       1.0  T
   4    -42.5426437  0.142556E-02  0.268E-01    1.42       1.0  T
   5    -42.5444545 -0.181084E-02  0.522E-02    1.33       1.0  T
   6    -42.5444983 -0.437864E-04  0.202E-02    1.33       1.0  T
   7    -42.5445054 -0.706077E-05  0.675E-03    1.32       3.0  T
   8    -42.5445057 -0.377867E-06  0.277E-03    1.32       7.2  T
   9    -42.5445059 -0.123564E-06  0.110E-03    1.32      18.1  T
  10    -42.5445059 -0.216078E-07  0.422E-04    1.32      47.4  T
  11    -42.5445059 -0.189751E-08  0.167E-04    1.32     119.5  T
     SCC iter.                  ...        0 min,  0.014 sec
     gradient                   ...        0 min,  0.011 sec
 * total energy  :   -42.0349225 Eh     change       -0.2354070E-01 Eh
   gradient norm :     0.2332830 Eh/α   predicted    -0.2382973E-01 (   1.23%)
   displ. norm   :     0.8340208 α      lambda       -0.3057134E-01
   maximum displ.:     0.5486778 α      in ANC's #16, #2, #5, ...

........................................................................
.............................. CYCLE   24 ..............................
........................................................................

 iter      E             dE          RMSdq      gap      omega  full diag
   1    -42.5901635 -0.425902E+02  0.672E-01    1.05       0.0  T
   2    -42.5781953  0.119682E-01  0.851E-01    1.52       1.0  T
   3    -42.5922467 -0.140514E-01  0.395E-01    0.99       1.0  T
   4    -42.5907742  0.147249E-02  0.447E-01    1.37       1.0  T
   5    -42.5957357 -0.496146E-02  0.493E-02    1.17       1.0  T
   6    -42.5957872 -0.515221E-04  0.144E-02    1.15       1.4  T
   7    -42.5957887 -0.153500E-05  0.739E-03    1.16       2.7  T
   8    -42.5957890 -0.249437E-06  0.264E-03    1.16       7.6  T
   9    -42.5957891 -0.189181E-06  0.110E-03    1.16      18.2  T
  10    -42.5957892 -0.238251E-07  0.467E-04    1.16      42.8  T
  11    -42.5957892 -0.336596E-08  0.152E-04    1.16     131.5  T
     SCC iter.                  ...        0 min,  0.014 sec
     gradient                   ...        0 min,  0.011 sec
 * total energy  :   -42.0511603 Eh     change       -0.1623784E-01 Eh
   gradient norm :     0.2615263 Eh/α   predicted    -0.2591831E-01 (  59.62%)
   displ. norm   :     0.5697558 α      lambda       -0.3082839E-01
   maximum displ.:     0.3619446 α      in ANC's #5, #8, #16, ...

........................................................................
.............................. CYCLE   25 ..............................
........................................................................

 iter      E             dE          RMSdq      gap      omega  full diag
   1    -42.6019782 -0.426020E+02  0.483E-01    1.26       0.0  T
   2    -42.5954438  0.653444E-02  0.496E-01    0.93       1.0  T
   3    -42.5957049 -0.261095E-03  0.547E-01    1.45       1.0  T
   4    -42.6027695 -0.706458E-02  0.108E-01    1.21       1.0  T
   5    -42.6029571 -0.187683E-03  0.302E-02    1.18       1.0  T
   6    -42.6029752 -0.181057E-04  0.147E-02    1.18       1.4  T
   7    -42.6029782 -0.295016E-05  0.473E-03    1.17       4.2  T
   8    -42.6029787 -0.500486E-06  0.209E-03    1.17       9.6  T
   9    -42.6029788 -0.135130E-06  0.594E-04    1.17      33.6  T
  10    -42.6029788 -0.181071E-08  0.335E-04    1.17      59.7  T
     SCC iter.                  ...        0 min,  0.013 sec
     gradient                   ...        0 min,  0.011 sec
 * total energy  :   -42.0714082 Eh     change       -0.2024791E-01 Eh
   gradient norm :     0.1856552 Eh/α   predicted    -0.2041843E-01 (   0.84%)
   displ. norm   :     0.6159010 α      lambda       -0.7488133E-01
   maximum displ.:     0.2513644 α      in ANC's #2, #39, #8, ...

........................................................................
.............................. CYCLE   26 ..............................
........................................................................

 iter      E             dE          RMSdq      gap      omega  full diag
   1    -42.5440061 -0.425440E+02  0.926E-01    1.47       0.0  T
   2    -42.5053002  0.387058E-01  0.133E+00    0.77       1.0  T
   3    -42.5411853 -0.358851E-01  0.743E-01    1.70       1.0  T
   4    -42.5545638 -0.133784E-01  0.259E-01    1.26       1.0  T
   5    -42.5551465 -0.582778E-03  0.751E-02    1.32       1.0  T
   6    -42.5552740 -0.127449E-03  0.181E-02    1.29       1.1  T
   7    -42.5552731  0.860499E-06  0.135E-02    1.30       1.5  T
   8    -42.5552754 -0.229338E-05  0.598E-03    1.29       3.3  T
   9    -42.5552764 -0.932889E-06  0.148E-03    1.29      13.5  T
  10    -42.5552764 -0.316476E-08  0.919E-04    1.29      21.8  T
  11    -42.5552764 -0.127790E-07  0.368E-04    1.29      54.4  T
     SCC iter.                  ...        0 min,  0.014 sec
     gradient                   ...        0 min,  0.011 sec
 * total energy  :   -42.0759956 Eh     change       -0.4587331E-02 Eh
   gradient norm :     0.3196337 Eh/α   predicted    -0.5164453E-01 (1025.81%)
   displ. norm   :     0.4537002 α      lambda       -0.5381805E-01
   maximum displ.:     0.2949678 α      in ANC's #16, #15, #10, ...

........................................................................
.............................. CYCLE   27 ..............................
........................................................................

 iter      E             dE          RMSdq      gap      omega  full diag
   1    -42.5980745 -0.425981E+02  0.432E-01    1.15       0.0  T
   2    -42.5902011  0.787339E-02  0.600E-01    1.54       1.0  T
   3    -42.5986175 -0.841640E-02  0.255E-01    1.14       1.0  T
   4    -42.5990181 -0.400648E-03  0.156E-01    1.31       1.0  T
   5    -42.5996328 -0.614624E-03  0.209E-02    1.23       1.0  T
   6    -42.5996384 -0.566243E-05  0.995E-03    1.24       2.0  T
   7    -42.5996386 -0.225524E-06  0.336E-03    1.23       6.0  T
   8    -42.5996388 -0.148405E-06  0.127E-03    1.23      15.7  T
   9    -42.5996388 -0.118284E-07  0.708E-04    1.23      28.3  T
  10    -42.5996388 -0.107239E-07  0.229E-04    1.23      87.2  T
     SCC iter.                  ...        0 min,  0.013 sec
     gradient                   ...        0 min,  0.011 sec
 * total energy  :   -42.1096968 Eh     change       -0.3370128E-01 Eh
   gradient norm :     0.1332959 Eh/α   predicted    -0.3244732E-01 (  -3.72%)
   displ. norm   :     0.6004932 α      lambda       -0.2093990E-01
   maximum displ.:     0.3028260 α      in ANC's #5, #10, #8, ...

........................................................................
.............................. CYCLE   28 ..............................
........................................................................

 iter      E             dE          RMSdq      gap      omega  full diag
   1    -42.6489836 -0.426490E+02  0.418E-01    1.12       0.0  T
   2    -42.6437742  0.520940E-02  0.492E-01    1.43       1.0  T
   3    -42.6468913 -0.311714E-02  0.360E-01    1.03       1.0  T
   4    -42.6497298 -0.283852E-02  0.116E-01    1.24       1.0  T
   5    -42.6500641 -0.334313E-03  0.222E-02    1.18       1.0  T
   6    -42.6500751 -0.109521E-04  0.712E-03    1.19       2.8  T
   7    -42.6500752 -0.109352E-06  0.302E-03    1.19       6.6  T
   8    -42.6500753 -0.916493E-07  0.105E-03    1.19      19.1  T
   9    -42.6500753 -0.139240E-07  0.455E-04    1.19      43.9  T
  10    -42.6500753 -0.149440E-08  0.199E-04    1.19     100.3  T
     SCC iter.                  ...        0 min,  0.013 sec
     gradient                   ...        0 min,  0.011 sec
 * total energy  :   -42.1221488 Eh     change       -0.1245198E-01 Eh
   gradient norm :     0.0576987 Eh/α   predicted    -0.1424531E-01 (  14.40%)
   displ. norm   :     0.5499560 α      lambda       -0.1097147E-01
   maximum displ.:     0.2951696 α      in ANC's #5, #15, #10, ...

........................................................................
.............................. CYCLE   29 ..............................
........................................................................

 iter      E             dE          RMSdq      gap      omega  full diag
   1    -42.6551535 -0.426552E+02  0.391E-01    1.17       0.0  T
   2    -42.6551987 -0.451329E-04  0.229E-01    1.17       1.0  T
   3    -42.6546224  0.576230E-03  0.148E-01    1.22       1.0  T
   4    -42.6546186  0.384463E-05  0.134E-01    1.10       1.0  T
   5    -42.6552463 -0.627654E-03  0.112E-02    1.18       1.8  T
   6    -42.6552484 -0.210233E-05  0.511E-03    1.18       3.9  T
   7    -42.6552488 -0.404370E-06  0.115E-03    1.17      17.3  T
   8    -42.6552488 -0.306054E-07  0.440E-04    1.17      45.5  T
   9    -42.6552488 -0.278676E-08  0.220E-04    1.17      90.7  T
     SCC iter.                  ...        0 min,  0.011 sec
     gradient                   ...        0 min,  0.012 sec
 * total energy  :   -42.1287394 Eh     change       -0.6590599E-02 Eh
   gradient norm :     0.0432535 Eh/α   predicted    -0.7144901E-02 (   8.41%)
   displ. norm   :     0.4555483 α      lambda       -0.5253797E-02
   maximum displ.:     0.2806086 α      in ANC's #15, #5, #10, ...

........................................................................
.............................. CYCLE   30 ..............................
........................................................................

 iter      E             dE          RMSdq      gap      omega  full diag
   1    -42.6615063 -0.426615E+02  0.183E-01    1.17       0.0  T
   2    -42.6614821  0.242181E-04  0.122E-01    1.14       1.0  T
   3    -42.6600403  0.144181E-02  0.214E-01    1.28       1.0  T
   4    -42.6614476 -0.140733E-02  0.547E-02    1.14       1.0  T
   5    -42.6615566 -0.108962E-03  0.111E-02    1.17       1.8  T
   6    -42.6615586 -0.202078E-05  0.551E-03    1.16       3.6  T
   7    -42.6615591 -0.541754E-06  0.998E-04    1.16      20.0  T
   8    -42.6615592 -0.173789E-07  0.366E-04    1.16      54.7  T
     SCC iter.                  ...        0 min,  0.010 sec
     gradient                   ...        0 min,  0.011 sec
 * total energy  :   -42.1320856 Eh     change       -0.3346200E-02 Eh
   gradient norm :     0.0247164 Eh/α   predicted    -0.3172060E-02 (  -5.20%)
   displ. norm   :     0.4575460 α      lambda       -0.3513288E-02
   maximum displ.:     0.2789640 α      in ANC's #10, #5, #15, ...

........................................................................
.............................. CYCLE   31 ..............................
........................................................................

 iter      E             dE          RMSdq      gap      omega  full diag
   1    -42.6622237 -0.426622E+02  0.219E-01    1.11       0.0  T
   2    -42.6615763  0.647446E-03  0.187E-01    1.21       1.0  T
   3    -42.6601065  0.146974E-02  0.283E-01    1.00       1.0  T
   4    -42.6622601 -0.215361E-02  0.596E-02    1.16       1.0  T
   5    -42.6623806 -0.120436E-03  0.110E-02    1.13       1.8  T
   6    -42.6623822 -0.160090E-05  0.551E-03    1.13       3.6  T
   7    -42.6623824 -0.250826E-06  0.155E-03    1.13      12.9  T
   8    -42.6623825 -0.422226E-07  0.588E-04    1.13      34.0  T
   9    -42.6623825 -0.815369E-08  0.221E-04    1.13      90.7  T
     SCC iter.                  ...        0 min,  0.012 sec
     gradient                   ...        0 min,  0.011 sec
 * total energy  :   -42.1342176 Eh     change       -0.2131981E-02 Eh
   gradient norm :     0.0137876 Eh/α   predicted    -0.2124402E-02 (  -0.36%)
   displ. norm   :     0.2886154 α      lambda       -0.9739632E-03
   maximum displ.:     0.1595968 α      in ANC's #10, #15, #5, ...

........................................................................
.............................. CYCLE   32 ..............................
........................................................................

 iter      E             dE          RMSdq      gap      omega  full diag
   1    -42.6593565 -0.426594E+02  0.158E-01    1.10       0.0  T
   2    -42.6592052  0.151267E-03  0.109E-01    1.15       1.0  T
   3    -42.6574916  0.171365E-02  0.245E-01    0.99       1.0  T
   4    -42.6593615 -0.186995E-02  0.227E-02    1.13       1.0  T
   5    -42.6593784 -0.168927E-04  0.564E-03    1.12       3.5  T
   6    -42.6593790 -0.607099E-06  0.210E-03    1.12       9.5  T
   7    -42.6593791 -0.363638E-07  0.739E-04    1.12      27.1  T
   8    -42.6593791 -0.155236E-07  0.252E-04    1.12      79.3  T
     SCC iter.                  ...        0 min,  0.010 sec
     gradient                   ...        0 min,  0.011 sec
 * total energy  :   -42.1345941 Eh     change       -0.3764883E-03 Eh
   gradient norm :     0.0110569 Eh/α   predicted    -0.5275485E-03 (  40.12%)
   displ. norm   :     0.1939277 α      lambda       -0.6310092E-03
   maximum displ.:     0.0978149 α      in ANC's #10, #1, #15, ...

........................................................................
.............................. CYCLE   33 ..............................
........................................................................

 iter      E             dE          RMSdq      gap      omega  full diag
   1    -42.6589998 -0.426590E+02  0.126E-01    1.10       0.0  T
   2    -42.6589985  0.125319E-05  0.740E-02    1.12       1.0  T
   3    -42.6585257  0.472801E-03  0.118E-01    1.05       1.0  T
   4    -42.6589926 -0.466877E-03  0.223E-02    1.12       1.0  T
   5    -42.6590074 -0.148112E-04  0.428E-03    1.11       4.7  T
   6    -42.6590079 -0.465374E-06  0.192E-03    1.11      10.4  T
   7    -42.6590080 -0.658086E-07  0.324E-04    1.11      61.7  T
   8    -42.6590080 -0.249140E-08  0.111E-04    1.11     180.1  T
     SCC iter.                  ...        0 min,  0.010 sec
     gradient                   ...        0 min,  0.011 sec
 * total energy  :   -42.1348174 Eh     change       -0.2233403E-03 Eh
   gradient norm :     0.0107118 Eh/α   predicted    -0.3273747E-03 (  46.58%)
   displ. norm   :     0.0578774 α      lambda       -0.1798029E-03
   maximum displ.:     0.0289070 α      in ANC's #5, #8, #15, ...

........................................................................
.............................. CYCLE   34 ..............................
........................................................................

 iter      E             dE          RMSdq      gap      omega  full diag
   1    -42.6609718 -0.426610E+02  0.471E-02    1.10       0.0  T
   2    -42.6609241  0.476591E-04  0.446E-02    1.13       1.0  T
   3    -42.6608740  0.500890E-04  0.597E-02    1.08       1.0  T
   4    -42.6609772 -0.103155E-03  0.425E-03    1.11       4.7  T
   5    -42.6609775 -0.322094E-06  0.107E-03    1.11      18.7  T
   6    -42.6609775 -0.482378E-08  0.628E-04    1.11      31.8  T
   7    -42.6609775 -0.277607E-08  0.211E-04    1.11      94.8  T
     SCC iter.                  ...        0 min,  0.009 sec
     gradient                   ...        0 min,  0.011 sec
 * total energy  :   -42.1349362 Eh     change       -0.1187633E-03 Eh
   gradient norm :     0.0033780 Eh/α   predicted    -0.9020453E-04 ( -24.05%)
   displ. norm   :     0.0737162 α      lambda       -0.7311474E-04
   maximum displ.:     0.0368266 α      in ANC's #8, #10, #4, ...

........................................................................
.............................. CYCLE   35 ..............................
........................................................................

 iter      E             dE          RMSdq      gap      omega  full diag
   1    -42.6613878 -0.426614E+02  0.594E-02    1.10       0.0  T
   2    -42.6613660  0.217146E-04  0.402E-02    1.12       1.0  T
   3    -42.6611181  0.247929E-03  0.926E-02    1.06       1.0  T
   4    -42.6613910 -0.272874E-03  0.504E-03    1.11       4.0  T
   5    -42.6613915 -0.559527E-06  0.107E-03    1.11      18.7  T
   6    -42.6613916 -0.232527E-07  0.462E-04    1.11      43.3  T
   7    -42.6613916 -0.135383E-08  0.187E-04    1.11     107.2  T
     SCC iter.                  ...        0 min,  0.009 sec
     gradient                   ...        0 min,  0.011 sec
 * total energy  :   -42.1349819 Eh     change       -0.4566617E-04 Eh
   gradient norm :     0.0028453 Eh/α   predicted    -0.3676335E-04 ( -19.50%)
   displ. norm   :     0.0657364 α      lambda       -0.2626730E-04
   maximum displ.:     0.0343210 α      in ANC's #10, #8, #4, ...

   *** GEOMETRY OPTIMIZATION CONVERGED AFTER 35 ITERATIONS ***

------------------------------------------------------------------------
 total energy gain   :       -38.2383980 Eh   -23994.9570 kcal/mol
 total RMSD          :         1.3265783 a0        0.7020 Å
 total power (kW/mol):     -2868.4257192 (step)********** (real)
------------------------------------------------------------------------

 ANCopt (total)                0 d,  0 h,  0 min,  1.027 sec
 optimizer setup                ...        0 min,  0.000 sec (  0.034%)
 model hessian                  ...        0 min,  0.011 sec (  1.089%)
 ANC generation                 ...        0 min,  0.002 sec (  0.152%)
 coordinate transformation      ...        0 min,  0.000 sec (  0.038%)
 single point calculation       ...        0 min,  1.003 sec ( 97.655%)
 optimization log               ...        0 min,  0.003 sec (  0.336%)
 hessian update                 ...        0 min,  0.000 sec (  0.048%)
 rational function              ...        0 min,  0.005 sec (  0.483%)

================
 final structure:
================
25
 xtb: 6.6.1 (8d0f1dd)
C            3.68150796626786        2.75081395104257        0.03363611060111
N            2.25173451844711       -0.53708752087555       -0.01014387482082
C            2.34797021762707       -1.83245425835546       -0.00714964399559
N            1.12252290389713       -2.44336676287050       -0.00547222884617
C            0.20152622853443       -1.44745708149819       -0.00652933619974
C            0.92747089560685       -0.24842636739550       -0.01012824713262
C            0.24598635415759        1.02524647076466       -0.01583886979362
O            0.76841248939515        2.11685204341545       -0.02998164507670
N           -1.14256908066761        0.87556662744998       -0.00308513014730
C           -1.94837326363668        2.08592751144233        0.00193311976934
C           -1.86705653527648       -0.30347095112034        0.00194027357914
O           -3.06915726235940       -0.31279692733139        0.01055800367742
N           -1.14049985937215       -1.50683703840384       -0.00354367309208
C           -1.86114616761954       -2.76191350619272       -0.00535256607974
H            3.97689100784775        2.46622987910466        1.02503205366655
H            4.32355268843721        2.52920058277816       -0.79734917475014
H            2.73511741578683        3.23147108948350       -0.12497350424488
H            3.27357807330865       -2.37299977945999       -0.00956162076923
H           -1.27551097992606        2.93983628024911        0.01117170107615
H           -2.58382742180879        2.11495796179746       -0.88365146077010
H           -2.59213292017338        2.10053645516593        0.88176477194610
H           -1.61313284468547       -3.34467264597019        0.88269009736547
H           -1.62343730092881       -3.33537254369884       -0.90234865050359
H           -2.92668479160514       -2.53446735407270        0.00205270373128
H            0.94768918284554       -3.43707757384853       -0.00449759129010

 Bond Distances (Angstroems)
 ---------------------------
C1-H15=1.0729        C1-H16=1.0733        C1-H17=1.0732        N2-C3=1.2989         N2-C6=1.3554         C3-N2=1.2989         
C3-N4=1.3693         C3-H18=1.0719        N4-C3=1.3693         N4-C5=1.3565         N4-H25=1.0090        C5-N4=1.3565         
C5-C6=1.4017         C5-N13=1.3433        C6-N2=1.3554         C6-C5=1.4017         C6-C7=1.4445         C7-C6=1.4445         
C7-O8=1.2103         C7-N9=1.3967         O8-C7=1.2103         N9-C7=1.3967         N9-C10=1.4541        N9-C11=1.3838        
C10-N9=1.4541        C10-H19=1.0872       C10-H20=1.0904       C10-H21=1.0903       C11-N9=1.3838        C11-O12=1.2022       
C11-N13=1.4057       O12-C11=1.2022       N13-C5=1.3433        N13-C11=1.4057       N13-C14=1.4473       C14-N13=1.4473       
C14-H22=1.0908       C14-H23=1.0909       C14-H24=1.0896       H15-C1=1.0729        H16-C1=1.0733        H17-C1=1.0732        
H18-C3=1.0719        H19-C10=1.0872       H20-C10=1.0904       H21-C10=1.0903       H22-C14=1.0908       H23-C14=1.0909       
H24-C14=1.0896       H25-N4=1.0090        
 C  H  Rav=1.0830 sigma=0.0084  Rmin=1.0719  Rmax=1.0909    10
 C  C  Rav=1.4231 sigma=0.0214  Rmin=1.4017  Rmax=1.4445     2
 N  H  Rav=1.0090 sigma=0.0000  Rmin=1.0090  Rmax=1.0090     1
 N  C  Rav=1.3811 sigma=0.0449  Rmin=1.2989  Rmax=1.4541    10
 O  C  Rav=1.2062 sigma=0.0040  Rmin=1.2022  Rmax=1.2103     2

 selected bond angles (degree)
 --------------------
H16-C1-H15=119.73              H17-C1-H15=119.88              H17-C1-H16=120.37              C6-N2-C3=106.55                
N4-C3-N2=112.25                H18-C3-N2=124.53               H18-C3-N4=123.22               C5-N4-C3=106.26                
H25-N4-C3=126.48               H25-N4-C5=127.26               C6-C5-N4=106.05                N13-C5-N4=130.23               
N13-C5-C6=123.73               C5-C6-N2=108.90                C7-C6-N2=130.45                C7-C6-C5=120.66                
O8-C7-C6=126.28                N9-C7-C6=111.99                N9-C7-O8=121.73                C10-N9-C7=117.50               
C11-N9-C7=127.72               C11-N9-C10=114.78              H19-C10-N9=108.11              H20-C10-N9=110.02              
H20-C10-H19=110.28             H21-C10-N9=109.95              H21-C10-H19=110.37             H21-C10-H20=108.12             

 selected dihedral angles (degree)
 ---------------------------------
N4-C3-N2-C6=  0.00            H18-C3-N2-C6=179.79           C5-N4-C3-N2=359.95            C5-N4-C3-H18=180.18           
H25-N4-C3-N2=179.90           H25-N4-C3-H18=  0.13          C6-C5-N4-C3=  0.05            C6-C5-N4-H25=180.10           
N13-C5-N4-C3=180.12           N13-C5-N4-H25=  0.17          C5-C6-N2-C3=  0.00            C7-C6-N2-C3=180.16            
N2-C6-C5-N4=359.95            N2-C6-C5-N13=179.90           C7-C6-C5-N4=179.83            C7-C6-C5-N13=359.77           
O8-C7-C6-N2=  0.47            O8-C7-C6-C5=180.63            N9-C7-C6-N2=180.46            N9-C7-C6-C5=  0.62            
C10-N9-C7-C6=179.59           C10-N9-C7-O8=359.59           C11-N9-C7-C6=359.40           C11-N9-C7-O8=179.39           
H19-C10-N9-C7=359.07          H19-C10-N9-C11=179.23         H20-C10-N9-C7=119.55          H20-C10-N9-C11=299.72         
H21-C10-N9-C7=238.52          H21-C10-N9-C11= 58.69         
           -------------------------------------------------
          |                Final Singlepoint                |
           -------------------------------------------------

          ...................................................
          :                      SETUP                      :
          :.................................................:
          :  # basis functions                  67          :
          :  # atomic orbitals                  67          :
          :  # shells                           39          :
          :  # electrons                        74          :
          :  max. iterations                   250          :
          :  Hamiltonian                  GFN2-xTB          :
          :  restarted?                      false          :
          :  GBSA solvation                  false          :
          :  PC potential                    false          :
          :  electronic temp.         5000.0000000     K    :
          :  accuracy                    1.0000000          :
          :  -> integral cutoff          0.2500000E+02      :
          :  -> integral neglect         0.1000000E-07      :
          :  -> SCF convergence          0.1000000E-05 Eh   :
          :  -> wf. convergence          0.1000000E-03 e    :
          :  Broyden damping             0.4000000          :
          ...................................................

 iter      E             dE          RMSdq      gap      omega  full diag
   1    -42.6613916 -0.426614E+02  0.585E-05    1.11       0.0  T
   2    -42.6613916  0.863025E-10  0.683E-05    1.11     292.9  T
   3    -42.6613916 -0.335589E-10  0.579E-05    1.11     345.7  T

   *** convergence criteria satisfied after 3 iterations ***

         #    Occupation            Energy/Eh            Energy/eV
      -------------------------------------------------------------
         1        2.0000           -0.8873463             -24.1459
       ...           ...                  ...                  ...
        31        1.9930           -0.6098435             -16.5947
        32        1.9923           -0.6083146             -16.5531
        33        1.9735           -0.5886310             -16.0175
        34        1.9230           -0.5713002             -15.5459
        35        1.9124           -0.5691745             -15.4880
        36        1.8796           -0.5638683             -15.3436
        37        1.7113           -0.5485361             -14.9264 (HOMO)
        38        0.6240           -0.5078329             -13.8188 (LUMO)
        39        0.0021           -0.4115683             -11.1993
        40        0.0006           -0.3923828             -10.6773
        41        0.0001           -0.3631162              -9.8809
        42        0.0000           -0.2819386              -7.6719
       ...           ...                  ...                  ...
        67                          0.5477620              14.9054
      -------------------------------------------------------------
                  HL-Gap            0.0407032 Eh            1.1076 eV
             Fermi-level           -0.5203553 Eh          -14.1596 eV

 SCC (total)                   0 d,  0 h,  0 min,  0.020 sec
 SCC setup                      ...        0 min,  0.000 sec (  0.912%)
 Dispersion                     ...        0 min,  0.000 sec (  0.865%)
 classical contributions        ...        0 min,  0.000 sec (  0.319%)
 integral evaluation            ...        0 min,  0.004 sec ( 20.259%)
 iterations                     ...        0 min,  0.004 sec ( 21.535%)
 molecular gradient             ...        0 min,  0.011 sec ( 55.434%)
 printout                       ...        0 min,  0.000 sec (  0.638%)

         :::::::::::::::::::::::::::::::::::::::::::::::::::::
         ::                     SUMMARY                     ::
         :::::::::::::::::::::::::::::::::::::::::::::::::::::
         :: total energy             -42.134981864100 Eh    ::
         :: gradient norm              0.002845314071 Eh/a0 ::
         :: HOMO-LUMO gap              1.107589904178 eV    ::
         ::.................................................::
         :: SCC energy               -42.661391573146 Eh    ::
         :: -> isotropic ES            0.132363644429 Eh    ::
         :: -> anisotropic ES         -0.007093281661 Eh    ::
         :: -> anisotropic XC          0.020562607037 Eh    ::
         :: -> dispersion             -0.021275088609 Eh    ::
         :: repulsion energy           0.526312017502 Eh    ::
         :: add. restraining           0.000000310909 Eh    ::
         :: total charge               1.000000000000 e     ::
         :::::::::::::::::::::::::::::::::::::::::::::::::::::

           -------------------------------------------------
          |                Property Printout                |
           -------------------------------------------------

    * Orbital Energies and Occupations

         #    Occupation            Energy/Eh            Energy/eV
      -------------------------------------------------------------
         1        2.0000           -0.8873463             -24.1459
       ...           ...                  ...                  ...
        25        1.9996           -0.6558779             -17.8473
        26        1.9988           -0.6378759             -17.3575
        27        1.9980           -0.6298503             -17.1391
        28        1.9979           -0.6287569             -17.1093
        29        1.9973           -0.6250929             -17.0096
        30        1.9971           -0.6237869             -16.9741
        31        1.9930           -0.6098435             -16.5947
        32        1.9923           -0.6083146             -16.5531
        33        1.9735           -0.5886310             -16.0175
        34        1.9230           -0.5713002             -15.5459
        35        1.9124           -0.5691745             -15.4880
        36        1.8796           -0.5638683             -15.3436
        37        1.7113           -0.5485361             -14.9264 (HOMO)
        38        0.6240           -0.5078329             -13.8188 (LUMO)
        39        0.0021           -0.4115683             -11.1993
        40        0.0006           -0.3923828             -10.6773
        41        0.0001           -0.3631162              -9.8809
        42        0.0000           -0.2819386              -7.6719
        43                         -0.2003129              -5.4508
        44                         -0.1577118              -4.2916
        45                         -0.1329464              -3.6177
        46                         -0.0701111              -1.9078
        47                         -0.0463741              -1.2619
        48                         -0.0303545              -0.8260
       ...                                ...                  ...
        67                          0.5477620              14.9054
      -------------------------------------------------------------
                  HL-Gap            0.0407032 Eh            1.1076 eV
             Fermi-level           -0.5203553 Eh          -14.1596 eV

     #   Z          covCN         q      C6AA      α(0)
     1   6 C        2.779    -0.064    29.567     8.906
     2   7 N        1.904    -0.167    25.415     7.474
     3   6 C        3.157     0.106    25.379     8.237
     4   7 N        2.789    -0.080    22.784     7.089
     5   6 C        3.055     0.115    25.415     8.268
     6   6 C        3.204     0.023    26.908     8.449
     7   6 C        2.765     0.274    22.367     7.745
     8   8 O        0.858    -0.339    20.495     6.070
     9   7 N        2.745    -0.074    22.678     7.073
    10   6 C        3.710    -0.062    21.829     6.677
    11   6 C        2.731     0.319    21.581     7.605
    12   8 O        0.860    -0.343    20.581     6.082
    13   7 N        2.737    -0.042    22.062     6.976
    14   6 C        3.697    -0.070    22.024     6.713
    15   1 H        0.926     0.137     1.482     1.904
    16   1 H        0.926     0.138     1.478     1.901
    17   1 H        0.926     0.159     1.330     1.803
    18   1 H        0.926     0.109     1.703     2.041
    19   1 H        0.925     0.117     1.640     2.003
    20   1 H        0.924     0.108     1.711     2.045
    21   1 H        0.924     0.109     1.709     2.044
    22   1 H        0.924     0.092     1.863     2.135
    23   1 H        0.924     0.092     1.862     2.134
    24   1 H        0.925     0.128     1.550     1.947
    25   1 H        0.860     0.216     1.028     1.588

 Mol. C6AA /au·bohr⁶  :       6622.978703
 Mol. C8AA /au·bohr⁸  :     152465.189724
 Mol. α(0) /au        :        124.910374


Wiberg/Mayer (AO) data.
largest (>0.10) Wiberg bond orders for each atom

 ---------------------------------------------------------------------------
     #   Z sym  total        # sym  WBO       # sym  WBO       # sym  WBO
 ---------------------------------------------------------------------------
     1   6 C    2.936 --    15 H    0.978    16 H    0.978    17 H    0.966
     2   7 N    3.002 --     3 C    1.559     6 C    1.269
     3   6 C    3.850 --     2 N    1.559     4 N    1.214    18 H    0.955
     4   7 N    3.577 --     5 C    1.223     3 C    1.214    25 H    0.924
     5   6 C    3.897 --     6 C    1.277     4 N    1.223    13 N    1.213
     6   6 C    3.834 --     5 C    1.277     2 N    1.269     7 C    1.070
     7   6 C    3.946 --     8 O    1.675     9 N    1.099     6 C    1.070
     8   8 O    1.972 --     7 C    1.675     9 N    0.126
     9   7 N    3.514 --    11 C    1.121     7 C    1.099    10 C    0.975
                             8 O    0.126    12 O    0.123
    10   6 C    3.884 --     9 N    0.975    19 H    0.962    21 H    0.951
                            20 H    0.951
    11   6 C    3.954 --    12 O    1.688     9 N    1.121    13 N    1.052
    12   8 O    1.995 --    11 C    1.688     9 N    0.123    13 N    0.108
    13   7 N    3.495 --     5 C    1.213    11 C    1.052    14 C    0.978
                            12 O    0.108
    14   6 C    3.910 --    13 N    0.978    24 H    0.962    22 H    0.962
                            23 H    0.962
    15   1 H    0.980 --     1 C    0.978
    16   1 H    0.980 --     1 C    0.978
    17   1 H    0.972 --     1 C    0.966
    18   1 H    0.986 --     3 C    0.955
    19   1 H    0.981 --    10 C    0.962
    20   1 H    0.969 --    10 C    0.951
    21   1 H    0.969 --    10 C    0.951
    22   1 H    0.979 --    14 C    0.962
    23   1 H    0.978 --    14 C    0.962
    24   1 H    0.981 --    14 C    0.962
    25   1 H    0.952 --     4 N    0.924
 ---------------------------------------------------------------------------

Topologies differ in total number of bonds
Writing topology from bond orders to xtbtopo.mol

molecular dipole:
                 x           y           z       tot (Debye)
 q only:        1.888      -1.048       0.019
   full:        1.795      -1.761       0.020       6.391
molecular quadrupole (traceless):
                xx          xy          yy          xz          yz          zz
 q only:        6.104       8.389      19.009       0.196       0.158     -25.113
  q+dip:        0.903       4.965      20.846       0.183       0.050     -21.749
   full:       -0.396       5.502      20.645       0.275       0.224     -20.249

           -------------------------------------------------
          |                Geometry Summary                 |
           -------------------------------------------------

      molecular mass/u    :      195.1988581
   center of mass at/Å    :        0.0096807      -0.1544719      -0.0032343
  moments of inertia/u·Å² :        0.5488421E+03   0.7998759E+03   0.1338864E+04
rotational constants/cm⁻¹ :        0.3071490E-01   0.2107531E-01   0.1259100E-01

 * 25 selected distances

     #   Z          #   Z                                           value/Å
     2   7 N        3   6 C                                       1.2989402
     3   6 C        4   7 N                                       1.3692839
     4   7 N        5   6 C                                       1.3564927
     2   7 N        6   6 C                                       1.3553596
     5   6 C        6   6 C                                       1.4016717
     6   6 C        7   6 C                                       1.4445403
     7   6 C        8   8 O                                       1.2102612
     7   6 C        9   7 N                                       1.3966579
     9   7 N       10   6 C                                       1.4540700 (max)
     9   7 N       11   6 C                                       1.3838487
    11   6 C       12   8 O                                       1.2021679
     5   6 C       13   7 N                                       1.3433426
    11   6 C       13   7 N                                       1.4057044
    13   7 N       14   6 C                                       1.4472566
     1   6 C       15   1 H                                       1.0728958
     1   6 C       16   1 H                                       1.0732524
     1   6 C       17   1 H                                       1.0732398
     3   6 C       18   1 H                                       1.0718887
    10   6 C       19   1 H                                       1.0871934
    10   6 C       20   1 H                                       1.0903692
    10   6 C       21   1 H                                       1.0902953
    14   6 C       22   1 H                                       1.0907515
    14   6 C       23   1 H                                       1.0908542
    14   6 C       24   1 H                                       1.0895684
     4   7 N       25   1 H                                       1.0089743 (min)

 * 5 distinct bonds (by element types)

   Z      Z             #   av. dist./Å        max./Å        min./Å
   1 H    6 C          10     1.0830309     1.0908542     1.0718887
   6 C    6 C           2     1.4231060     1.4445403     1.4016717
   1 H    7 N           1     1.0089743     1.0089743     1.0089743
   6 C    7 N          10     1.3810957     1.4540700     1.2989402
   6 C    8 O           2     1.2062145     1.2102612     1.2021679


optimized geometry written to: xtbopt.xyz


           -------------------------------------------------
          | TOTAL ENERGY              -42.134981864100 Eh   |
          | GRADIENT NORM               0.002845314071 Eh/α |
          | HOMO-LUMO GAP               1.107589904178 eV   |
           -------------------------------------------------

------------------------------------------------------------------------
 * finished run on 2024/06/05 at 20:00:06.217     
------------------------------------------------------------------------
 total:
 * wall-time:     0 d,  0 h,  0 min,  1.118 sec
 *  cpu-time:     0 d,  0 h,  0 min,  1.098 sec
 * ratio c/w:     0.983 speedup
 SCF:
 * wall-time:     0 d,  0 h,  0 min,  0.035 sec
 *  cpu-time:     0 d,  0 h,  0 min,  0.035 sec
 * ratio c/w:     1.000 speedup
 ANC optimizer:
 * wall-time:     0 d,  0 h,  0 min,  1.052 sec
 *  cpu-time:     0 d,  0 h,  0 min,  1.048 sec
 * ratio c/w:     0.996 speedup

