25
 energy: -42.134982175109 gnorm: 0.001741003692 xtb: 6.6.1 (8d0f1dd)
C            3.68150796626786        2.75081395104257        0.03363611060111
N            2.25173451844711       -0.53708752087555       -0.01014387482082
C            2.34797021762707       -1.83245425835546       -0.00714964399559
N            1.12252290389713       -2.44336676287050       -0.00547222884617
C            0.20152622853443       -1.44745708149819       -0.00652933619974
C            0.92747089560685       -0.24842636739550       -0.01012824713262
C            0.24598635415759        1.02524647076466       -0.01583886979362
O            0.76841248939515        2.11685204341545       -0.02998164507670
N           -1.14256908066761        0.87556662744998       -0.00308513014730
C           -1.94837326363668        2.08592751144233        0.00193311976934
C           -1.86705653527648       -0.30347095112034        0.00194027357914
O           -3.06915726235940       -0.31279692733139        0.01055800367742
N           -1.14049985937215       -1.50683703840384       -0.00354367309208
C           -1.86114616761954       -2.76191350619272       -0.00535256607974
H            3.97689100784775        2.46622987910466        1.02503205366655
H            4.32355268843721        2.52920058277816       -0.79734917475014
H            2.73511741578683        3.23147108948350       -0.12497350424488
H            3.27357807330865       -2.37299977945999       -0.00956162076923
H           -1.27551097992606        2.93983628024911        0.01117170107615
H           -2.58382742180879        2.11495796179746       -0.88365146077010
H           -2.59213292017338        2.10053645516593        0.88176477194610
H           -1.61313284468547       -3.34467264597019        0.88269009736547
H           -1.62343730092881       -3.33537254369884       -0.90234865050359
H           -2.92668479160514       -2.53446735407270        0.00205270373128
H            0.94768918284554       -3.43707757384853       -0.00449759129010
