      -----------------------------------------------------------      
     |                   =====================                   |     
     |                           x T B                           |     
     |                   =====================                   |     
     |                         S. Grimme                         |     
     |          Mulliken Center for Theoretical Chemistry        |     
     |                    University of Bonn                     |     
      -----------------------------------------------------------      

   * xtb version 6.6.1 (8d0f1dd) compiled by 'conda@1efc2f54142f' on 2023-08-01

   xtb is free software: you can redistribute it and/or modify it under
   the terms of the GNU Lesser General Public License as published by
   the Free Software Foundation, either version 3 of the License, or
   (at your option) any later version.
   
   xtb is distributed in the hope that it will be useful,
   but WITHOUT ANY WARRANTY; without even the implied warranty of
   MERCHANTABILITY or FITNESS FOR A PARTICULAR PURPOSE.  See the
   GNU Lesser General Public License for more details.
   
   Cite this work as:
   * C. Bannwarth, E. Caldeweyher, S. Ehlert, A. Hansen, P. Pracht,
     J. Seibert, S. Spicher, S. Grimme, WIREs Comput. Mol. Sci., 2020, 11,
     e01493. DOI: 10.1002/wcms.1493
   
   for GFN2-xTB:
   * C. Bannwarth, S. Ehlert and S. Grimme., J. Chem. Theory Comput., 2019,
     15, 1652-1671. DOI: 10.1021/acs.jctc.8b01176
   for GFN1-xTB:
   * S. Grimme, C. Bannwarth, P. Shushkov, J. Chem. Theory Comput., 2017,
     13, 1989-2009. DOI: 10.1021/acs.jctc.7b00118
   for GFN0-xTB:
   * P. Pracht, E. Caldeweyher, S. Ehlert, S. Grimme, ChemRxiv, 2019, preprint.
     DOI: 10.26434/chemrxiv.8326202.v1
   for GFN-FF:
   * S. Spicher and S. Grimme, Angew. Chem. Int. Ed., 2020, 59, 15665-15673.
     DOI: 10.1002/anie.202004239
   
   for ALPB and GBSA implicit solvation:
   * S. Ehlert, M. Stahn, S. Spicher, S. Grimme, J. Chem. Theory Comput.,
     2021, 17, 4250-4261. DOI: 10.1021/acs.jctc.1c00471
   
   for DFT-D4:
   * E. Caldeweyher, C. Bannwarth and S. Grimme, J. Chem. Phys., 2017,
     147, 034112. DOI: 10.1063/1.4993215
   * E. Caldeweyher, S. Ehlert, A. Hansen, H. Neugebauer, S. Spicher,
     C. Bannwarth and S. Grimme, J. Chem. Phys., 2019, 150, 154122.
     DOI: 10.1063/1.5090222
   * E. Caldeweyher, J.-M. Mewes, S. Ehlert and S. Grimme, Phys. Chem. Chem. Phys.
     2020, 22, 8499-8512. DOI: 10.1039/D0CP00502A
   
   for sTDA-xTB:
   * S. Grimme and C. Bannwarth, J. Chem. Phys., 2016, 145, 054103.
     DOI: 10.1063/1.4959605
   
   in the mass-spec context:
   * V. Asgeirsson, C. Bauer and S. Grimme, Chem. Sci., 2017, 8, 4879.
     DOI: 10.1039/c7sc00601b
   * J. Koopman and S. Grimme, ACS Omega 2019, 4, 12, 15120-15133.
     DOI: 10.1021/acsomega.9b02011
   
   for metadynamics refer to:
   * S. Grimme, J. Chem. Theory Comput., 2019, 155, 2847-2862
     DOI: 10.1021/acs.jctc.9b00143
   
   for SPH calculations refer to:
   * S. Spicher and S. Grimme, J. Chem. Theory Comput., 2021, 17, 1701-1714
     DOI: 10.1021/acs.jctc.0c01306
   
   with help from (in alphabetical order)
   P. Atkinson, C. Bannwarth, F. Bohle, G. Brandenburg, E. Caldeweyher
   M. Checinski, S. Dohm, S. Ehlert, S. Ehrlich, I. Gerasimov, C. Hölzer
   A. Katbashev, J. Koopman, C. Lavigne, S. Lehtola, F. März, M. Müller,
   F. Musil, H. Neugebauer, J. Pisarek, C. Plett, P. Pracht, F. Pultar,
   J. Seibert, P. Shushkov, S. Spicher, M. Stahn, M. Steiner, T. Strunk,
   J. Stückrath, T. Rose, and J. Unsleber
   
 * started run on 2024/06/05 at 19:57:58.632     

           -------------------------------------------------
          |                Calculation Setup                |
           -------------------------------------------------

          program call               : xtb struc.xyz --opt loose --input .xc1 --gfn2
          hostname                   : n-62-21-71
          coordinate file            : struc.xyz
          omp threads                :                     1

   ID    Z sym.   atoms
    1    6 C      1, 3, 5-7, 10, 11, 14
    2    7 N      2, 4, 9, 13
    3    8 O      8, 12
    4    1 H      15-25
constraining bond 6 9 to    4.9200000 Å, actual value:    2.3455329 Å

           -------------------------------------------------
          |                 G F N 2 - x T B                 |
           -------------------------------------------------

        Reference                      10.1021/acs.jctc.8b01176
      * Hamiltonian:
        H0-scaling (s, p, d)           1.850000    2.230000    2.230000
        zeta-weighting                 0.500000
      * Dispersion:
        s8                             2.700000
        a1                             0.520000
        a2                             5.000000
        s9                             5.000000
      * Repulsion:
        kExp                           1.500000    1.000000
        rExp                           1.000000
      * Coulomb:
        alpha                          2.000000
        third order                    shell-resolved
        anisotropic                    true
        a3                             3.000000
        a5                             4.000000
        cn-shift                       1.200000
        cn-exp                         4.000000
        max-rad                        5.000000


          ...................................................
          :                      SETUP                      :
          :.................................................:
          :  # basis functions                  67          :
          :  # atomic orbitals                  67          :
          :  # shells                           39          :
          :  # electrons                        74          :
          :  max. iterations                   250          :
          :  Hamiltonian                  GFN2-xTB          :
          :  restarted?                      false          :
          :  GBSA solvation                  false          :
          :  PC potential                    false          :
          :  electronic temp.         2500.0000000     K    :
          :  accuracy                    1.0000000          :
          :  -> integral cutoff          0.2500000E+02      :
          :  -> integral neglect         0.1000000E-07      :
          :  -> SCF convergence          0.1000000E-05 Eh   :
          :  -> wf. convergence          0.1000000E-03 e    :
          :  Broyden damping             0.4000000          :
          ...................................................

 iter      E             dE          RMSdq      gap      omega  full diag
   1    -42.5894761 -0.425895E+02  0.446E+00    3.52       0.0  T
   2    -42.7660496 -0.176573E+00  0.253E+00    3.37       1.0  T
   3    -42.7736311 -0.758158E-02  0.147E+00    3.27       1.0  T
   4    -42.7712089  0.242228E-02  0.522E-01    3.20       1.0  T
   5    -42.7763755 -0.516665E-02  0.115E-01    3.24       1.0  T
   6    -42.7764786 -0.103096E-03  0.599E-02    3.22       1.0  T
   7    -42.7764977 -0.190557E-04  0.265E-02    3.24       1.0  T
   8    -42.7765022 -0.458752E-05  0.826E-03    3.24       2.4  T
   9    -42.7765028 -0.511866E-06  0.435E-03    3.24       4.6  T
  10    -42.7765028 -0.741126E-07  0.110E-03    3.24      18.2  T
  11    -42.7765028 -0.615289E-08  0.514E-04    3.24      38.9  T
  12    -42.7765028 -0.131732E-08  0.162E-04    3.24     123.6  T

   *** convergence criteria satisfied after 12 iterations ***

         #    Occupation            Energy/Eh            Energy/eV
      -------------------------------------------------------------
         1        2.0000           -0.9218663             -25.0853
       ...           ...                  ...                  ...
        31        2.0000           -0.6245728             -16.9955
        32        2.0000           -0.6188521             -16.8398
        33        2.0000           -0.5946289             -16.1807
        34        1.9999           -0.5766508             -15.6915
        35        1.9996           -0.5616187             -15.2824
        36        1.9994           -0.5584494             -15.1962
        37        1.9993           -0.5575820             -15.1726 (HOMO)
        38        0.0017           -0.4385664             -11.9340 (LUMO)
        39        0.0000           -0.4059970             -11.0477
        40        0.0000           -0.3720875             -10.1250
        41                         -0.2883077              -7.8453
        42                         -0.2064013              -5.6165
       ...                                ...                  ...
        67                          0.5638960              15.3444
      -------------------------------------------------------------
                  HL-Gap            0.1190156 Eh            3.2386 eV
             Fermi-level           -0.4943591 Eh          -13.4522 eV

 SCC (total)                   0 d,  0 h,  0 min,  0.036 sec
 SCC setup                      ...        0 min,  0.000 sec (  0.736%)
 Dispersion                     ...        0 min,  0.000 sec (  0.908%)
 classical contributions        ...        0 min,  0.000 sec (  0.245%)
 integral evaluation            ...        0 min,  0.005 sec ( 15.085%)
 iterations                     ...        0 min,  0.017 sec ( 47.078%)
 molecular gradient             ...        0 min,  0.013 sec ( 35.482%)
 printout                       ...        0 min,  0.000 sec (  0.429%)

         :::::::::::::::::::::::::::::::::::::::::::::::::::::
         ::                     SUMMARY                     ::
         :::::::::::::::::::::::::::::::::::::::::::::::::::::
         :: total energy             -30.410989932605 Eh    ::
         :: gradient norm              6.880194937577 Eh/a0 ::
         :: HOMO-LUMO gap              3.238579380711 eV    ::
         ::.................................................::
         :: SCC energy               -42.776502838750 Eh    ::
         :: -> isotropic ES            0.143394945287 Eh    ::
         :: -> anisotropic ES         -0.005231236584 Eh    ::
         :: -> anisotropic XC          0.012162721064 Eh    ::
         :: -> dispersion             -0.022660936007 Eh    ::
         :: repulsion energy           0.531105277918 Eh    ::
         :: add. restraining          11.834293469218 Eh    ::
         :: total charge               1.000000000000 e     ::
         :::::::::::::::::::::::::::::::::::::::::::::::::::::

      ----------------------------------------------------------- 
     |                   =====================                   |
     |                        A N C O P T                        |
     |                   =====================                   |
     |               Approximate Normal Coordinate               |
     |                Rational Function Optimizer                |
      ----------------------------------------------------------- 

          ...................................................
          :                      SETUP                      :
          :.................................................:
          :   optimization level             loose          :
          :   max. optcycles                   200          :
          :   ANC micro-cycles                  20          :
          :   degrees of freedom                69          :
          :.................................................:
          :   RF solver                   davidson          :
          :   write xtbopt.log                true          :
          :   linear?                        false          :
          :   energy convergence         0.5000000E-04 Eh   :
          :   grad. convergence          0.4000000E-02 Eh/α :
          :   maxmium RF displ.          1.0000000          :
          :   Hlow (freq-cutoff)         0.1000000E-01      :
          :   Hmax (freq-cutoff)         5.0000000          :
          :   S6 in model hess.         20.0000000          :
          ...................................................

generating ANC from model Hessian ...
Using Lindh-Hessian (1995)
 Shifting diagonal of input Hessian by    1.9592311166597280     
 Lowest  eigenvalues of input Hessian
    0.010000    0.761254    0.000000    0.000000    0.000000    0.000000
    0.000000    0.000000    1.961993    1.963513    1.965088    1.969107
    1.969240    1.970810    1.971341    1.973481    1.977860    1.988256
 Highest eigenvalues
    4.054792    4.183407    4.216811    4.359277    4.483566    5.386349


........................................................................
.............................. CYCLE    1 ..............................
........................................................................

 iter      E             dE          RMSdq      gap      omega  full diag
   1    -42.7765028 -0.427765E+02  0.540E-05    3.24       0.0  T
   2    -42.7765028 -0.643041E-11  0.289E-05    3.24     692.1  T
   3    -42.7765028  0.881073E-12  0.138E-05    3.24    1448.6  T
     SCC iter.                  ...        0 min,  0.005 sec
     gradient                   ...        0 min,  0.013 sec
 * total energy  :   -30.4109899 Eh     change       -0.6633627E-10 Eh
   gradient norm :     6.8801943 Eh/α   predicted     0.0000000E+00 (-100.00%)
   displ. norm   :     0.7114161 α      lambda       -0.4882485E+01
   maximum displ.:     0.6620328 α      in ANC's #69, #48, #60, ...

........................................................................
.............................. CYCLE    2 ..............................
........................................................................

 iter      E             dE          RMSdq      gap      omega  full diag
   1    -42.6661645 -0.426662E+02  0.165E+00    2.56       0.0  T
   2    -42.6817827 -0.156182E-01  0.955E-01    2.85       1.0  T
   3    -42.6876423 -0.585959E-02  0.539E-01    2.68       1.0  T
   4    -42.6885636 -0.921276E-03  0.106E-01    2.76       1.0  T
   5    -42.6887079 -0.144339E-03  0.324E-02    2.73       1.0  T
   6    -42.6887182 -0.102087E-04  0.177E-02    2.74       1.1  T
   7    -42.6887192 -0.109774E-05  0.669E-03    2.74       3.0  T
   8    -42.6887197 -0.412823E-06  0.205E-03    2.74       9.8  T
   9    -42.6887197 -0.176993E-07  0.107E-03    2.74      18.6  T
  10    -42.6887197  0.119392E-09  0.653E-04    2.74      30.6  T
  11    -42.6887197 -0.601899E-08  0.167E-04    2.74     119.9  T
     SCC iter.                  ...        0 min,  0.015 sec
     gradient                   ...        0 min,  0.013 sec
 * total energy  :   -34.6080157 Eh     change       -0.4197026E+01 Eh
   gradient norm :     4.8929737 Eh/α   predicted    -0.3677645E+01 ( -12.37%)
   displ. norm   :     0.7675351 α      lambda       -0.3735323E+01
   maximum displ.:     0.6860043 α      in ANC's #69, #48, #60, ...

........................................................................
.............................. CYCLE    3 ..............................
........................................................................

 iter      E             dE          RMSdq      gap      omega  full diag
   1    -42.3281470 -0.423281E+02  0.219E+00    1.24       0.0  T
   2    -42.2999283  0.282187E-01  0.229E+00    2.49       1.0  T
   3    -42.4359417 -0.136013E+00  0.746E-01    1.97       1.0  T
   4    -42.4330001  0.294158E-02  0.561E-01    1.73       1.0  T
   5    -42.4363442 -0.334411E-02  0.186E-01    1.88       1.0  T
   6    -42.4372309 -0.886654E-03  0.763E-02    1.83       1.0  T
   7    -42.4373482 -0.117320E-03  0.236E-02    1.85       1.0  T
   8    -42.4373512 -0.303923E-05  0.132E-02    1.85       1.5  T
   9    -42.4373539 -0.264283E-05  0.379E-03    1.85       5.3  T
  10    -42.4373540 -0.135760E-06  0.187E-03    1.85      10.7  T
  11    -42.4373541 -0.412047E-07  0.985E-04    1.85      20.3  T
  12    -42.4373541 -0.122344E-07  0.350E-04    1.85      57.1  T
     SCC iter.                  ...        0 min,  0.017 sec
     gradient                   ...        0 min,  0.014 sec
 * total energy  :   -37.4848806 Eh     change       -0.2876865E+01 Eh
   gradient norm :     2.8451484 Eh/α   predicted    -0.2967922E+01 (   3.17%)
   displ. norm   :     0.7584755 α      lambda       -0.2146996E+01
   maximum displ.:     0.4569997 α      in ANC's #69, #48, #60, ...

........................................................................
.............................. CYCLE    4 ..............................
........................................................................

 iter      E             dE          RMSdq      gap      omega  full diag
   1    -42.1204551 -0.421205E+02  0.135E+00    0.88       0.0  T
   2    -42.0118499  0.108605E+00  0.228E+00    1.63       1.0  T
   3    -42.1633814 -0.151532E+00  0.825E-01    0.95       1.0  T
   4    -42.1405667  0.228147E-01  0.956E-01    1.20       1.0  T
   5    -42.1700174 -0.294507E-01  0.277E-01    0.93       1.0  T
   6    -42.1718786 -0.186122E-02  0.105E-01    0.96       1.0  T
   7    -42.1721082 -0.229537E-03  0.550E-02    0.96       1.0  T
   8    -42.1721794 -0.712492E-04  0.186E-02    0.97       1.1  T
   9    -42.1721785  0.941466E-06  0.998E-03    0.96       2.0  T
  10    -42.1721813 -0.282353E-05  0.393E-03    0.97       5.1  T
  11    -42.1721816 -0.298505E-06  0.172E-03    0.97      11.6  T
  12    -42.1721816 -0.353889E-07  0.510E-04    0.97      39.2  T
  13    -42.1721816  0.110482E-08  0.375E-04    0.97      53.3  T
     SCC iter.                  ...        0 min,  0.018 sec
     gradient                   ...        0 min,  0.014 sec
 * total energy  :   -39.2784581 Eh     change       -0.1793577E+01 Eh
   gradient norm :     1.9873857 Eh/α   predicted    -0.1691192E+01 (  -5.71%)
   displ. norm   :     0.7939591 α      lambda       -0.1563436E+01
   maximum displ.:     0.4615018 α      in ANC's #69, #60, #48, ...

........................................................................
.............................. CYCLE    5 ..............................
........................................................................

 iter      E             dE          RMSdq      gap      omega  full diag
   1    -41.8111486 -0.418111E+02  0.268E+00    0.94       0.0  T
   2    -39.6864807  0.212467E+01  0.640E+00    1.35       1.0  T
   3    -41.8211937 -0.213471E+01  0.171E+00    0.94       1.0  T
   4    -41.9616553 -0.140462E+00  0.879E-01    0.49       1.0  T
   5    -41.9756612 -0.140059E-01  0.299E-01    0.55       1.0  T
   6    -41.9757878 -0.126584E-03  0.171E-01    0.59       1.0  T
   7    -41.9749339  0.853900E-03  0.168E-01    0.54       1.0  T
   8    -41.9762725 -0.133865E-02  0.484E-02    0.58       1.0  T
   9    -41.9763098 -0.373152E-04  0.217E-02    0.58       1.0  T
  10    -41.9763295 -0.196298E-04  0.103E-02    0.57       1.9  T
  11    -41.9763297 -0.226484E-06  0.580E-03    0.57       3.4  T
  12    -41.9763311 -0.138123E-05  0.205E-03    0.57       9.8  T
  13    -41.9763311 -0.283668E-07  0.109E-03    0.57      18.4  T
  14    -41.9763312 -0.393800E-07  0.286E-04    0.57      69.9  T
  15    -41.9763312  0.395048E-09  0.248E-04    0.57      80.5  T
     SCC iter.                  ...        0 min,  0.021 sec
     gradient                   ...        0 min,  0.013 sec
 * total energy  :   -40.4926433 Eh     change       -0.1214185E+01 Eh
   gradient norm :     1.2237122 Eh/α   predicted    -0.1274490E+01 (   4.97%)
   displ. norm   :     0.6816045 α      lambda       -0.8222567E+00
   maximum displ.:     0.3836591 α      in ANC's #69, #49, #63, ...

........................................................................
.............................. CYCLE    6 ..............................
........................................................................

 iter      E             dE          RMSdq      gap      omega  full diag
   1    -41.4328011 -0.414328E+02  0.328E+00    0.27       0.0  T
   2    -39.9314063  0.150139E+01  0.625E+00    1.06       1.0  T
   3    -41.5105504 -0.157914E+01  0.279E+00    1.17       1.0  T
   4    -41.8343785 -0.323828E+00  0.107E+00    0.12       1.0  T
   5    -41.8061642  0.282143E-01  0.108E+00    0.16       1.0  T
   6    -41.8416847 -0.355205E-01  0.593E-01    0.24       1.0  T
   7    -41.8447374 -0.305269E-02  0.470E-01    0.24       1.0  T
   8    -41.8542389 -0.950151E-02  0.150E-01    0.13       1.0  T
   9    -41.8497936  0.444530E-02  0.321E-01    0.21       1.0  T
  10    -41.8535431 -0.374945E-02  0.161E-01    0.17       1.0  T
  11    -41.8547894 -0.124638E-02  0.155E-02    0.14       1.3  T
  12    -41.8547698  0.196444E-04  0.231E-02    0.14       1.0  T
  13    -41.8547896 -0.198239E-04  0.880E-03    0.14       2.3  T
  14    -41.8547928 -0.314621E-05  0.833E-04    0.14      24.0  T
  15    -41.8547928  0.434992E-08  0.513E-04    0.14      39.0  T
  16    -41.8547928 -0.110946E-07  0.174E-04    0.14     115.1  T
     SCC iter.                  ...        0 min,  0.022 sec
     gradient                   ...        0 min,  0.013 sec
 * total energy  :   -41.0650128 Eh     change       -0.5723695E+00 Eh
   gradient norm :     0.5688476 Eh/α   predicted    -0.6021323E+00 (   5.20%)
   displ. norm   :     0.4773564 α      lambda       -0.2464641E+00
   maximum displ.:     0.2055932 α      in ANC's #69, #1, #40, ...

........................................................................
.............................. CYCLE    7 ..............................
........................................................................

 iter      E             dE          RMSdq      gap      omega  full diag
   1    -41.7826799 -0.417827E+02  0.133E+00    0.33       0.0  T
   2    -41.1982475  0.584432E+00  0.361E+00    1.40       1.0  T
   3    -41.8354447 -0.637197E+00  0.550E-01    0.08       1.0  T
   4    -41.8268147  0.863007E-02  0.602E-01    0.20       1.0  T
   5    -41.8349746 -0.815998E-02  0.366E-01    0.09       1.0  T
   6    -41.8412189 -0.624426E-02  0.202E-01    0.10       1.0  T
   7    -41.8407527  0.466225E-03  0.168E-01    0.10       1.0  T
   8    -41.8422857 -0.153304E-02  0.381E-02    0.06       1.0  T
   9    -41.8423661 -0.803784E-04  0.161E-02    0.07       1.2  T
  10    -41.8423692 -0.310385E-05  0.780E-03    0.07       2.6  T
  11    -41.8423708 -0.159049E-05  0.453E-03    0.07       4.4  T
  12    -41.8423717 -0.935354E-06  0.128E-03    0.07      15.7  T
  13    -41.8423717  0.145520E-07  0.988E-04    0.07      20.2  T
  14    -41.8423717 -0.408694E-07  0.502E-04    0.07      39.8  T
     SCC iter.                  ...        0 min,  0.019 sec
     gradient                   ...        0 min,  0.013 sec
 * total energy  :   -41.2401378 Eh     change       -0.1751250E+00 Eh
   gradient norm :     0.4043079 Eh/α   predicted    -0.1513129E+00 ( -13.60%)
   displ. norm   :     0.7115987 α      lambda       -0.1609939E+00
   maximum displ.:     0.6178702 α      in ANC's #1, #18, #36, ...

........................................................................
.............................. CYCLE    8 ..............................
........................................................................

 iter      E             dE          RMSdq      gap      omega  full diag
   1    -41.7763577 -0.417764E+02  0.206E+00    0.57       0.0  T
   2    -41.2162583  0.560099E+00  0.351E+00    1.57       1.0  T
   3    -41.7236462 -0.507388E+00  0.197E+00    0.88       1.0  T
   4    -41.8659569 -0.142311E+00  0.740E-01    0.04       1.0  T
   5    -41.8753330 -0.937606E-02  0.561E-01    0.31       1.0  T
   6    -41.8807176 -0.538461E-02  0.291E-01    0.27       1.0  T
   7    -41.8847442 -0.402660E-02  0.694E-02    0.16       1.0  T
   8    -41.8848564 -0.112151E-03  0.338E-02    0.17       1.0  T
   9    -41.8848779 -0.214964E-04  0.103E-02    0.17       1.9  T
  10    -41.8848752  0.260736E-05  0.959E-03    0.18       2.1  T
  11    -41.8848796 -0.431812E-05  0.254E-03    0.17       7.9  T
  12    -41.8848798 -0.209056E-06  0.988E-04    0.17      20.2  T
  13    -41.8848798 -0.574872E-09  0.689E-04    0.17      29.0  T
     SCC iter.                  ...        0 min,  0.018 sec
     gradient                   ...        0 min,  0.012 sec
 * total energy  :   -41.3714241 Eh     change       -0.1312863E+00 Eh
   gradient norm :     0.4153743 Eh/α   predicted    -0.1212587E+00 (  -7.64%)
   displ. norm   :     0.5540532 α      lambda       -0.1158248E+00
   maximum displ.:     0.4817435 α      in ANC's #1, #18, #36, ...

........................................................................
.............................. CYCLE    9 ..............................
........................................................................

 iter      E             dE          RMSdq      gap      omega  full diag
   1    -41.8661266 -0.418661E+02  0.141E+00    0.41       0.0  T
   2    -41.4620022  0.404124E+00  0.290E+00    1.14       1.0  T
   3    -41.8164630 -0.354461E+00  0.149E+00    0.70       1.0  T
   4    -41.9010118 -0.845488E-01  0.696E-01    0.06       1.0  T
   5    -41.9142680 -0.132561E-01  0.309E-01    0.23       1.0  T
   6    -41.9165205 -0.225255E-02  0.912E-02    0.20       1.0  T
   7    -41.9168024 -0.281913E-03  0.495E-02    0.16       1.0  T
   8    -41.9168582 -0.557317E-04  0.240E-02    0.17       1.0  T
   9    -41.9168634 -0.524841E-05  0.953E-03    0.17       2.1  T
  10    -41.9168641 -0.670127E-06  0.690E-03    0.17       2.9  T
  11    -41.9168660 -0.186595E-05  0.228E-03    0.17       8.8  T
  12    -41.9168661 -0.952251E-07  0.897E-04    0.17      22.3  T
  13    -41.9168661 -0.228732E-07  0.310E-04    0.17      64.5  T
     SCC iter.                  ...        0 min,  0.018 sec
     gradient                   ...        0 min,  0.012 sec
 * total energy  :   -41.4493613 Eh     change       -0.7793724E-01 Eh
   gradient norm :     0.3936962 Eh/α   predicted    -0.7569011E-01 (  -2.88%)
   displ. norm   :     0.6701697 α      lambda       -0.1698551E+00
   maximum displ.:     0.2687437 α      in ANC's #18, #1, #69, ...

........................................................................
.............................. CYCLE   10 ..............................
........................................................................

 iter      E             dE          RMSdq      gap      omega  full diag
   1    -41.9745228 -0.419745E+02  0.984E-01    0.03       0.0  T
   2    -41.9124641  0.620587E-01  0.118E+00    0.46       1.0  T
   3    -41.8106830  0.101781E+00  0.190E+00    0.62       1.0  T
   4    -41.9708518 -0.160169E+00  0.579E-01    0.04       1.0  T
   5    -41.9760457 -0.519393E-02  0.463E-01    0.01       1.0  T
   6    -41.9825644 -0.651871E-02  0.489E-02    0.08       1.0  T
   7    -41.9825350  0.293726E-04  0.393E-02    0.09       1.0  T
   8    -41.9825746 -0.395850E-04  0.183E-02    0.08       1.1  T
   9    -41.9825901 -0.154469E-04  0.508E-03    0.08       3.9  T
  10    -41.9825905 -0.452649E-06  0.329E-03    0.08       6.1  T
  11    -41.9825908 -0.340491E-06  0.985E-04    0.08      20.3  T
  12    -41.9825909 -0.162606E-07  0.390E-04    0.08      51.3  T
     SCC iter.                  ...        0 min,  0.017 sec
     gradient                   ...        0 min,  0.012 sec
 * total energy  :   -41.4991879 Eh     change       -0.4982651E-01 Eh
   gradient norm :     0.3675420 Eh/α   predicted    -0.1230710E+00 ( 147.00%)
   displ. norm   :     0.4533930 α      lambda       -0.6047334E-01
   maximum displ.:     0.4395699 α      in ANC's #1, #68, #40, ...

........................................................................
.............................. CYCLE   11 ..............................
........................................................................

 iter      E             dE          RMSdq      gap      omega  full diag
   1    -41.9388853 -0.419389E+02  0.989E-01    0.19       0.0  T
   2    -41.7528237  0.186062E+00  0.195E+00    0.60       1.0  T
   3    -41.8397799 -0.869561E-01  0.156E+00    0.59       1.0  T
   4    -41.9553666 -0.115587E+00  0.470E-01    0.05       1.0  T
   5    -41.9589698 -0.360326E-02  0.271E-01    0.15       1.0  T
   6    -41.9616748 -0.270494E-02  0.104E-01    0.09       1.0  T
   7    -41.9619369 -0.262162E-03  0.603E-02    0.09       1.0  T
   8    -41.9620619 -0.124995E-03  0.151E-02    0.07       1.3  T
   9    -41.9620602  0.177944E-05  0.116E-02    0.07       1.7  T
  10    -41.9620668 -0.667165E-05  0.347E-03    0.07       5.8  T
  11    -41.9620668 -0.102969E-07  0.194E-03    0.07      10.3  T
  12    -41.9620670 -0.153512E-06  0.464E-04    0.07      43.1  T
  13    -41.9620670 -0.126307E-08  0.254E-04    0.07      78.7  T
     SCC iter.                  ...        0 min,  0.018 sec
     gradient                   ...        0 min,  0.013 sec
 * total energy  :   -41.5428637 Eh     change       -0.4367587E-01 Eh
   gradient norm :     0.2137022 Eh/α   predicted    -0.3645242E-01 ( -16.54%)
   displ. norm   :     0.3319514 α      lambda       -0.3076246E-01
   maximum displ.:     0.2932898 α      in ANC's #1, #48, #49, ...

........................................................................
.............................. CYCLE   12 ..............................
........................................................................

 iter      E             dE          RMSdq      gap      omega  full diag
   1    -41.9510849 -0.419511E+02  0.651E-01    0.12       0.0  T
   2    -41.8521737  0.989113E-01  0.139E+00    0.42       1.0  T
   3    -41.9099407 -0.577670E-01  0.987E-01    0.34       1.0  T
   4    -41.9526654 -0.427247E-01  0.443E-01    0.08       1.0  T
   5    -41.9590905 -0.642513E-02  0.125E-01    0.07       1.0  T
   6    -41.9595770 -0.486547E-03  0.475E-02    0.04       1.0  T
   7    -41.9596182 -0.411683E-04  0.322E-02    0.05       1.0  T
   8    -41.9596374 -0.191799E-04  0.120E-02    0.04       1.7  T
   9    -41.9596356  0.180094E-05  0.904E-03    0.04       2.2  T
  10    -41.9596394 -0.378128E-05  0.289E-03    0.04       6.9  T
  11    -41.9596394 -0.796023E-07  0.128E-03    0.04      15.6  T
  12    -41.9596395 -0.560863E-07  0.409E-04    0.04      49.0  T
  13    -41.9596395 -0.619286E-08  0.196E-04    0.04     102.1  T
     SCC iter.                  ...        0 min,  0.018 sec
     gradient                   ...        0 min,  0.012 sec
 * total energy  :   -41.5650704 Eh     change       -0.2220666E-01 Eh
   gradient norm :     0.1840434 Eh/α   predicted    -0.1707613E-01 ( -23.10%)
   displ. norm   :     0.2829464 α      lambda       -0.3567604E-01
   maximum displ.:     0.1327911 α      in ANC's #1, #49, #48, ...

........................................................................
.............................. CYCLE   13 ..............................
........................................................................

 iter      E             dE          RMSdq      gap      omega  full diag
   1    -41.9806199 -0.419806E+02  0.501E-01    0.02       0.0  T
   2    -41.9772952  0.332466E-02  0.498E-01    0.06       1.0  T
   3    -41.9755389  0.175630E-02  0.424E-01    0.11       1.0  T
   4    -41.9545205  0.210184E-01  0.692E-01    0.23       1.0  T
   5    -41.9825214 -0.280009E-01  0.122E-01    0.03       1.0  T
   6    -41.9828700 -0.348527E-03  0.433E-02    0.02       1.0  T
   7    -41.9829684 -0.984673E-04  0.168E-02    0.02       1.2  T
   8    -41.9829706 -0.220284E-05  0.887E-03    0.02       2.3  T
   9    -41.9829724 -0.175691E-05  0.378E-03    0.02       5.3  T
  10    -41.9829726 -0.190998E-06  0.201E-03    0.02       9.9  T
  11    -41.9829726 -0.402011E-07  0.121E-03    0.02      16.5  T
  12    -41.9829727 -0.438880E-07  0.539E-04    0.02      37.1  T
  13    -41.9829727 -0.115756E-07  0.128E-04    0.02     156.1  T
     SCC iter.                  ...        0 min,  0.018 sec
     gradient                   ...        0 min,  0.012 sec
 * total energy  :   -41.5939902 Eh     change       -0.2891985E-01 Eh
   gradient norm :     0.1742806 Eh/α   predicted    -0.1926622E-01 ( -33.38%)
   displ. norm   :     0.4012952 α      lambda       -0.4944411E-01
   maximum displ.:     0.1384521 α      in ANC's #49, #48, #31, ...

........................................................................
.............................. CYCLE   14 ..............................
........................................................................

 iter      E             dE          RMSdq      gap      omega  full diag
   1    -42.0266729 -0.420267E+02  0.684E-01    0.11       0.0  T
   2    -41.9840543  0.426187E-01  0.998E-01    0.26       1.0  T
   3    -41.9550810  0.289732E-01  0.116E+00    0.47       1.0  T
   4    -42.0291761 -0.740951E-01  0.326E-01    0.04       1.0  T
   5    -42.0311803 -0.200416E-02  0.180E-01    0.06       1.0  T
   6    -42.0319337 -0.753400E-03  0.423E-02    0.05       1.0  T
   7    -42.0320005 -0.668677E-04  0.169E-02    0.06       1.2  T
   8    -42.0320083 -0.776092E-05  0.733E-03    0.06       2.7  T
   9    -42.0320085 -0.204190E-06  0.423E-03    0.06       4.7  T
  10    -42.0320089 -0.374948E-06  0.200E-03    0.06      10.0  T
  11    -42.0320090 -0.154014E-06  0.643E-04    0.06      31.1  T
  12    -42.0320090 -0.548829E-08  0.282E-04    0.06      71.0  T
     SCC iter.                  ...        0 min,  0.017 sec
     gradient                   ...        0 min,  0.013 sec
 * total energy  :   -41.6247564 Eh     change       -0.3076615E-01 Eh
   gradient norm :     0.1589227 Eh/α   predicted    -0.2870357E-01 (  -6.70%)
   displ. norm   :     0.1792775 α      lambda       -0.1208861E-01
   maximum displ.:     0.0757546 α      in ANC's #18, #31, #16, ...

........................................................................
.............................. CYCLE   15 ..............................
........................................................................

 iter      E             dE          RMSdq      gap      omega  full diag
   1    -42.0469104 -0.420469E+02  0.341E-01    0.04       0.0  T
   2    -41.9531609  0.937496E-01  0.132E+00    0.57       1.0  T
   3    -42.0503078 -0.971469E-01  0.144E-01    0.08       1.0  T
   4    -42.0490380  0.126985E-02  0.176E-01    0.13       1.0  T
   5    -42.0502729 -0.123489E-02  0.617E-02    0.07       1.0  T
   6    -42.0504578 -0.184903E-03  0.196E-02    0.08       1.0  T
   7    -42.0504721 -0.143049E-04  0.903E-03    0.08       2.2  T
   8    -42.0504721 -0.704424E-07  0.747E-03    0.08       2.7  T
   9    -42.0504748 -0.270610E-05  0.125E-03    0.08      16.0  T
  10    -42.0504749 -0.945005E-08  0.707E-04    0.08      28.3  T
  11    -42.0504749 -0.765816E-08  0.328E-04    0.08      60.9  T
     SCC iter.                  ...        0 min,  0.015 sec
     gradient                   ...        0 min,  0.012 sec
 * total energy  :   -41.6342968 Eh     change       -0.9540458E-02 Eh
   gradient norm :     0.1419505 Eh/α   predicted    -0.6238622E-02 ( -34.61%)
   displ. norm   :     0.2491844 α      lambda       -0.1940533E-01
   maximum displ.:     0.1094385 α      in ANC's #18, #16, #31, ...

........................................................................
.............................. CYCLE   16 ..............................
........................................................................

 iter      E             dE          RMSdq      gap      omega  full diag
   1    -42.0564123 -0.420564E+02  0.770E-01    0.11       0.0  T
   2    -41.7562931  0.300119E+00  0.246E+00    1.44       1.0  T
   3    -42.0764495 -0.320156E+00  0.460E-01    0.21       1.0  T
   4    -42.0815002 -0.505067E-02  0.242E-01    0.16       1.0  T
   5    -42.0784511  0.304905E-02  0.314E-01    0.02       1.0  T
   6    -42.0835168 -0.506565E-02  0.614E-02    0.08       1.0  T
   7    -42.0836327 -0.115943E-03  0.362E-02    0.11       1.0  T
   8    -42.0836928 -0.600381E-04  0.125E-02    0.10       1.6  T
   9    -42.0836990 -0.620525E-05  0.497E-03    0.10       4.0  T
  10    -42.0836992 -0.267604E-06  0.333E-03    0.10       6.0  T
  11    -42.0836996 -0.395582E-06  0.143E-03    0.10      14.0  T
  12    -42.0836998 -0.106776E-06  0.318E-04    0.10      63.0  T
  13    -42.0836997  0.367093E-08  0.315E-04    0.10      63.4  T
     SCC iter.                  ...        0 min,  0.018 sec
     gradient                   ...        0 min,  0.014 sec
 * total energy  :   -41.6475367 Eh     change       -0.1323985E-01 Eh
   gradient norm :     0.1375294 Eh/α   predicted    -0.1030516E-01 ( -22.17%)
   displ. norm   :     0.1890376 α      lambda       -0.1284337E-01
   maximum displ.:     0.0657780 α      in ANC's #18, #40, #20, ...

........................................................................
.............................. CYCLE   17 ..............................
........................................................................

 iter      E             dE          RMSdq      gap      omega  full diag
   1    -42.0899210 -0.420899E+02  0.689E-01    0.10       0.0  T
   2    -41.8121546  0.277766E+00  0.233E+00    1.28       1.0  T
   3    -42.1089211 -0.296766E+00  0.208E-01    0.12       1.0  T
   4    -42.1083872  0.533932E-03  0.180E-01    0.14       1.0  T
   5    -42.1084869 -0.997746E-04  0.160E-01    0.05       1.0  T
   6    -42.1096489 -0.116194E-02  0.445E-02    0.08       1.0  T
   7    -42.1096603 -0.114477E-04  0.417E-02    0.11       1.0  T
   8    -42.1097486 -0.882484E-04  0.656E-03    0.10       3.1  T
   9    -42.1097498 -0.124587E-05  0.244E-03    0.10       8.2  T
  10    -42.1097499 -0.563500E-07  0.142E-03    0.10      14.1  T
  11    -42.1097499 -0.551589E-07  0.689E-04    0.10      29.0  T
  12    -42.1097499 -0.228821E-07  0.203E-04    0.10      98.5  T
     SCC iter.                  ...        0 min,  0.016 sec
     gradient                   ...        0 min,  0.012 sec
 * total energy  :   -41.6581948 Eh     change       -0.1065813E-01 Eh
   gradient norm :     0.1780307 Eh/α   predicted    -0.6651234E-02 ( -37.59%)
   displ. norm   :     0.4248843 α      lambda       -0.3268753E-01
   maximum displ.:     0.1274204 α      in ANC's #40, #20, #18, ...

........................................................................
.............................. CYCLE   18 ..............................
........................................................................

 iter      E             dE          RMSdq      gap      omega  full diag
   1    -42.0934999 -0.420935E+02  0.137E+00    0.34       0.0  T
   2    -41.7096264  0.383874E+00  0.295E+00    1.12       1.0  T
   3    -42.1509838 -0.441357E+00  0.588E-01    0.21       1.0  T
   4    -42.1592853 -0.830154E-02  0.370E-01    0.02       1.0  T
   5    -42.1576558  0.162953E-02  0.322E-01    0.04       1.0  T
   6    -42.1612405 -0.358473E-02  0.176E-01    0.11       1.0  T
   7    -42.1626815 -0.144097E-02  0.228E-02    0.06       1.0  T
   8    -42.1626878 -0.637210E-05  0.118E-02    0.06       1.7  T
   9    -42.1626883 -0.448881E-06  0.845E-03    0.06       2.4  T
  10    -42.1626884 -0.735442E-07  0.747E-03    0.06       2.7  T
  11    -42.1626909 -0.253838E-05  0.315E-03    0.06       6.3  T
  12    -42.1626914 -0.512793E-06  0.347E-04    0.06      57.7  T
  13    -42.1626914  0.553248E-08  0.405E-04    0.06      49.4  T
     SCC iter.                  ...        0 min,  0.018 sec
     gradient                   ...        0 min,  0.013 sec
 * total energy  :   -41.6830365 Eh     change       -0.2484168E-01 Eh
   gradient norm :     0.2369316 Eh/α   predicted    -0.1929424E-01 ( -22.33%)
   displ. norm   :     0.3980757 α      lambda       -0.3101274E-01
   maximum displ.:     0.1289189 α      in ANC's #20, #36, #18, ...

........................................................................
.............................. CYCLE   19 ..............................
........................................................................

 iter      E             dE          RMSdq      gap      omega  full diag
   1    -42.1718586 -0.421719E+02  0.964E-01    0.24       0.0  T
   2    -41.8638421  0.308016E+00  0.246E+00    0.72       1.0  T
   3    -42.1972170 -0.333375E+00  0.378E-01    0.06       1.0  T
   4    -42.1986816 -0.146462E-02  0.259E-01    0.06       1.0  T
   5    -42.1998907 -0.120910E-02  0.159E-01    0.04       1.0  T
   6    -42.2010870 -0.119626E-02  0.432E-02    0.03       1.0  T
   7    -42.2010080  0.789356E-04  0.482E-02    0.04       1.0  T
   8    -42.2011219 -0.113878E-03  0.654E-03    0.03       3.1  T
   9    -42.2011208  0.110667E-05  0.724E-03    0.03       2.8  T
  10    -42.2011227 -0.189926E-05  0.162E-03    0.03      12.4  T
  11    -42.2011228 -0.454153E-07  0.105E-03    0.03      19.1  T
  12    -42.2011228  0.184805E-09  0.102E-03    0.03      19.6  T
  13    -42.2011228 -0.516100E-07  0.137E-04    0.03     145.7  T
  14    -42.2011228  0.143398E-08  0.186E-04    0.03     107.3  T
     SCC iter.                  ...        0 min,  0.019 sec
     gradient                   ...        0 min,  0.014 sec
 * total energy  :   -41.7049285 Eh     change       -0.2189198E-01 Eh
   gradient norm :     0.2359814 Eh/α   predicted    -0.1796377E-01 ( -17.94%)
   displ. norm   :     0.2513601 α      lambda       -0.2560442E-01
   maximum displ.:     0.0828540 α      in ANC's #20, #41, #2, ...

........................................................................
.............................. CYCLE   20 ..............................
........................................................................

 iter      E             dE          RMSdq      gap      omega  full diag
   1    -42.2146195 -0.422146E+02  0.442E-01    0.07       0.0  T
   2    -42.1731109  0.415086E-01  0.886E-01    0.30       1.0  T
   3    -42.1870512 -0.139403E-01  0.743E-01    0.26       1.0  T
   4    -42.2165638 -0.295126E-01  0.138E-01    0.03       1.0  T
   5    -42.2167166 -0.152870E-03  0.532E-02    0.03       1.0  T
   6    -42.2167539 -0.372938E-04  0.285E-02    0.03       1.0  T
   7    -42.2167831 -0.291913E-04  0.135E-02    0.03       1.5  T
   8    -42.2167875 -0.434988E-05  0.617E-03    0.03       3.2  T
   9    -42.2167888 -0.130204E-05  0.227E-03    0.03       8.8  T
  10    -42.2167888 -0.242777E-08  0.112E-03    0.03      17.9  T
  11    -42.2167888 -0.301241E-07  0.679E-04    0.03      29.5  T
  12    -42.2167888 -0.229406E-07  0.181E-04    0.03     110.7  T
     SCC iter.                  ...        0 min,  0.017 sec
     gradient                   ...        0 min,  0.013 sec
 * total energy  :   -41.7244305 Eh     change       -0.1950198E-01 Eh
   gradient norm :     0.1978569 Eh/α   predicted    -0.1361126E-01 ( -30.21%)
   displ. norm   :     0.2392746 α      lambda       -0.3133860E-01
   maximum displ.:     0.0768104 α      in ANC's #62, #41, #59, ...
 * RMSD in coord.:     0.9860740 α      energy gain  -0.1131344E+02 Eh

generating ANC from model Hessian ...
Using Lindh-Hessian (1995)
 Shifting diagonal of input Hessian by    1.0624124157043004E-002
 Lowest  eigenvalues of input Hessian
    0.010000    0.010483    0.000000    0.000000    0.000000    0.000000
    0.000000    0.000000    0.011051    0.011355    0.012253    0.012735
    0.012955    0.014366    0.016579    0.018483    0.020104    0.021831
 Highest eigenvalues
    1.830043    1.978533    2.066515    2.116550    2.129255    2.754015


........................................................................
.............................. CYCLE   21 ..............................
........................................................................

 iter      E             dE          RMSdq      gap      omega  full diag
   1    -42.2198101 -0.422198E+02  0.448E-01    0.07       0.0  T
   2    -42.1109071  0.108903E+00  0.138E+00    0.52       1.0  T
   3    -42.2240193 -0.113112E+00  0.251E-01    0.03       1.0  T
   4    -42.2240919 -0.726418E-04  0.177E-01    0.05       1.0  T
   5    -42.2243610 -0.269110E-03  0.761E-02    0.03       1.0  T
   6    -42.2245077 -0.146680E-03  0.260E-02    0.03       1.0  T
   7    -42.2245240 -0.162881E-04  0.960E-03    0.03       2.1  T
   8    -42.2245230  0.924875E-06  0.642E-03    0.03       3.1  T
   9    -42.2245248 -0.172993E-05  0.209E-03    0.03       9.6  T
  10    -42.2245248 -0.187456E-07  0.115E-03    0.03      17.4  T
  11    -42.2245248  0.147288E-07  0.986E-04    0.03      20.3  T
  12    -42.2245248 -0.570506E-07  0.187E-04    0.03     107.2  T
     SCC iter.                  ...        0 min,  0.016 sec
     gradient                   ...        0 min,  0.012 sec
 * total energy  :   -41.7456805 Eh     change       -0.2125002E-01 Eh
   gradient norm :     0.1582926 Eh/α   predicted     0.0000000E+00 (-100.00%)
   displ. norm   :     0.4927035 α      lambda       -0.4323554E-01
   maximum displ.:     0.2608765 α      in ANC's #20, #22, #9, ...

........................................................................
.............................. CYCLE   22 ..............................
........................................................................

 iter      E             dE          RMSdq      gap      omega  full diag
   1    -42.2410616 -0.422411E+02  0.626E-01    0.10       0.0  T
   2    -42.0935018  0.147560E+00  0.163E+00    0.60       1.0  T
   3    -42.2440000 -0.150498E+00  0.399E-01    0.08       1.0  T
   4    -42.2455180 -0.151803E-02  0.226E-01    0.05       1.0  T
   5    -42.2470109 -0.149287E-02  0.957E-02    0.03       1.0  T
   6    -42.2472613 -0.250438E-03  0.271E-02    0.03       1.0  T
   7    -42.2472741 -0.127760E-04  0.153E-02    0.03       1.3  T
   8    -42.2472770 -0.294288E-05  0.473E-03    0.03       4.2  T
   9    -42.2472773 -0.283031E-06  0.265E-03    0.03       7.5  T
  10    -42.2472775 -0.217708E-06  0.116E-03    0.03      17.3  T
  11    -42.2472775 -0.134005E-07  0.447E-04    0.03      44.8  T
  12    -42.2472775 -0.467720E-08  0.175E-04    0.03     114.1  T
     SCC iter.                  ...        0 min,  0.016 sec
     gradient                   ...        0 min,  0.012 sec
 * total energy  :   -41.7748880 Eh     change       -0.2920748E-01 Eh
   gradient norm :     0.0919431 Eh/α   predicted    -0.2693544E-01 (  -7.78%)
   displ. norm   :     0.5754840 α      lambda       -0.2674253E-01
   maximum displ.:     0.2332647 α      in ANC's #9, #3, #19, ...

........................................................................
.............................. CYCLE   23 ..............................
........................................................................

 iter      E             dE          RMSdq      gap      omega  full diag
   1    -42.2665364 -0.422665E+02  0.766E-01    0.14       0.0  T
   2    -42.1480420  0.118494E+00  0.148E+00    0.44       1.0  T
   3    -42.2208280 -0.727860E-01  0.992E-01    0.22       1.0  T
   4    -42.2696948 -0.488668E-01  0.315E-01    0.08       1.0  T
   5    -42.2713149 -0.162012E-02  0.902E-02    0.06       1.0  T
   6    -42.2714906 -0.175668E-03  0.326E-02    0.05       1.0  T
   7    -42.2715075 -0.168792E-04  0.163E-02    0.06       1.2  T
   8    -42.2715000  0.750419E-05  0.135E-02    0.05       1.5  T
   9    -42.2715104 -0.103947E-04  0.218E-03    0.06       9.2  T
  10    -42.2715103  0.722650E-07  0.186E-03    0.06      10.8  T
  11    -42.2715104 -0.123228E-06  0.635E-04    0.06      31.5  T
  12    -42.2715104 -0.781296E-08  0.341E-04    0.06      58.7  T
     SCC iter.                  ...        0 min,  0.016 sec
     gradient                   ...        0 min,  0.012 sec
 * total energy  :   -41.7928010 Eh     change       -0.1791306E-01 Eh
   gradient norm :     0.0990107 Eh/α   predicted    -0.1779960E-01 (  -0.63%)
   displ. norm   :     0.6285569 α      lambda       -0.2064970E-01
   maximum displ.:     0.2259021 α      in ANC's #6, #9, #2, ...

........................................................................
.............................. CYCLE   24 ..............................
........................................................................

 iter      E             dE          RMSdq      gap      omega  full diag
   1    -42.2699874 -0.422700E+02  0.107E+00    0.27       0.0  T
   2    -42.0601907  0.209797E+00  0.198E+00    0.53       1.0  T
   3    -42.2159187 -0.155728E+00  0.117E+00    0.31       1.0  T
   4    -42.2714936 -0.555749E-01  0.517E-01    0.26       1.0  T
   5    -42.2776783 -0.618468E-02  0.201E-01    0.19       1.0  T
   6    -42.2794772 -0.179894E-02  0.438E-02    0.15       1.0  T
   7    -42.2795121 -0.348554E-04  0.322E-02    0.14       1.0  T
   8    -42.2795305 -0.183602E-04  0.117E-02    0.14       1.7  T
   9    -42.2795329 -0.245827E-05  0.454E-03    0.15       4.4  T
  10    -42.2795335 -0.568092E-06  0.195E-03    0.15      10.3  T
  11    -42.2795334  0.100557E-06  0.153E-03    0.15      13.1  T
  12    -42.2795335 -0.128222E-06  0.315E-04    0.15      63.4  T
  13    -42.2795335 -0.801862E-09  0.202E-04    0.15      99.1  T
     SCC iter.                  ...        0 min,  0.018 sec
     gradient                   ...        0 min,  0.012 sec
 * total energy  :   -41.8073974 Eh     change       -0.1459637E-01 Eh
   gradient norm :     0.1524305 Eh/α   predicted    -0.1440403E-01 (  -1.32%)
   displ. norm   :     0.6808134 α      lambda       -0.3576932E-01
   maximum displ.:     0.2256496 α      in ANC's #19, #20, #14, ...

........................................................................
.............................. CYCLE   25 ..............................
........................................................................

 iter      E             dE          RMSdq      gap      omega  full diag
   1    -42.3430659 -0.423431E+02  0.118E+00    0.53       0.0  T
   2    -42.0190896  0.323976E+00  0.246E+00    0.56       1.0  T
   3    -42.3244189 -0.305329E+00  0.996E-01    0.47       1.0  T
   4    -42.3529214 -0.285025E-01  0.556E-01    0.47       1.0  T
   5    -42.3615311 -0.860974E-02  0.193E-01    0.37       1.0  T
   6    -42.3632420 -0.171093E-02  0.475E-02    0.33       1.0  T
   7    -42.3632566 -0.145455E-04  0.299E-02    0.32       1.0  T
   8    -42.3632552  0.134566E-05  0.177E-02    0.32       1.1  T
   9    -42.3632624 -0.718218E-05  0.487E-03    0.32       4.1  T
  10    -42.3632630 -0.577876E-06  0.217E-03    0.33       9.2  T
  11    -42.3632631 -0.918532E-07  0.879E-04    0.32      22.7  T
  12    -42.3632631 -0.340298E-08  0.409E-04    0.32      48.9  T
     SCC iter.                  ...        0 min,  0.016 sec
     gradient                   ...        0 min,  0.012 sec
 * total energy  :   -41.8290618 Eh     change       -0.2166445E-01 Eh
   gradient norm :     0.1446468 Eh/α   predicted    -0.2617434E-01 (  20.82%)
   displ. norm   :     0.5202326 α      lambda       -0.3302690E-01
   maximum displ.:     0.1743548 α      in ANC's #22, #19, #6, ...

........................................................................
.............................. CYCLE   26 ..............................
........................................................................

 iter      E             dE          RMSdq      gap      omega  full diag
   1    -42.4261604 -0.424262E+02  0.791E-01    0.54       0.0  T
   2    -42.2458069  0.180353E+00  0.184E+00    0.22       1.0  T
   3    -42.4214602 -0.175653E+00  0.608E-01    0.54       1.0  T
   4    -42.4333925 -0.119323E-01  0.326E-01    0.46       1.0  T
   5    -42.4357754 -0.238289E-02  0.932E-02    0.45       1.0  T
   6    -42.4360327 -0.257324E-03  0.457E-02    0.44       1.0  T
   7    -42.4361186 -0.858910E-04  0.205E-02    0.43       1.0  T
   8    -42.4361249 -0.634229E-05  0.711E-03    0.43       2.8  T
   9    -42.4361253 -0.357655E-06  0.282E-03    0.43       7.1  T
  10    -42.4361254 -0.133004E-06  0.154E-03    0.43      13.0  T
  11    -42.4361254 -0.379970E-07  0.939E-04    0.43      21.3  T
  12    -42.4361255 -0.447519E-07  0.168E-04    0.43     119.1  T
     SCC iter.                  ...        0 min,  0.016 sec
     gradient                   ...        0 min,  0.013 sec
 * total energy  :   -41.8533241 Eh     change       -0.2426231E-01 Eh
   gradient norm :     0.1276618 Eh/α   predicted    -0.2098268E-01 ( -13.52%)
   displ. norm   :     0.6603610 α      lambda       -0.3149724E-01
   maximum displ.:     0.2725957 α      in ANC's #16, #22, #9, ...

........................................................................
.............................. CYCLE   27 ..............................
........................................................................

 iter      E             dE          RMSdq      gap      omega  full diag
   1    -42.4244160 -0.424244E+02  0.933E-01    0.56       0.0  T
   2    -42.3333636  0.910524E-01  0.145E+00    0.16       1.0  T
   3    -42.4079174 -0.745537E-01  0.795E-01    0.65       1.0  T
   4    -42.4294600 -0.215426E-01  0.458E-01    0.48       1.0  T
   5    -42.4352410 -0.578105E-02  0.170E-01    0.53       1.0  T
   6    -42.4356524 -0.411393E-03  0.572E-02    0.49       1.0  T
   7    -42.4356894 -0.369281E-04  0.360E-02    0.50       1.0  T
   8    -42.4357247 -0.353276E-04  0.174E-02    0.51       1.2  T
   9    -42.4357352 -0.104827E-04  0.829E-03    0.51       2.4  T
  10    -42.4357375 -0.236631E-05  0.212E-03    0.50       9.5  T
  11    -42.4357376 -0.351360E-07  0.102E-03    0.50      19.6  T
  12    -42.4357376 -0.164838E-07  0.456E-04    0.50      43.9  T
  13    -42.4357376 -0.360922E-08  0.275E-04    0.50      72.7  T
     SCC iter.                  ...        0 min,  0.018 sec
     gradient                   ...        0 min,  0.012 sec
 * total energy  :   -41.8699498 Eh     change       -0.1662566E-01 Eh
   gradient norm :     0.1281042 Eh/α   predicted    -0.2261624E-01 (  36.03%)
   displ. norm   :     0.5822648 α      lambda       -0.1875715E-01
   maximum displ.:     0.2997668 α      in ANC's #16, #6, #19, ...

........................................................................
.............................. CYCLE   28 ..............................
........................................................................

 iter      E             dE          RMSdq      gap      omega  full diag
   1    -42.4135650 -0.424136E+02  0.557E-01    0.60       0.0  T
   2    -42.3899741  0.235909E-01  0.813E-01    0.35       1.0  T
   3    -42.4100405 -0.200664E-01  0.525E-01    0.63       1.0  T
   4    -42.4211806 -0.111401E-01  0.146E-01    0.54       1.0  T
   5    -42.4204582  0.722406E-03  0.116E-01    0.52       1.0  T
   6    -42.4211228 -0.664564E-03  0.430E-02    0.53       1.0  T
   7    -42.4211937 -0.709208E-04  0.156E-02    0.54       1.3  T
   8    -42.4212042 -0.104510E-04  0.519E-03    0.54       3.9  T
   9    -42.4212049 -0.764236E-06  0.301E-03    0.54       6.6  T
  10    -42.4212054 -0.450269E-06  0.979E-04    0.54      20.4  T
  11    -42.4212054 -0.261609E-07  0.313E-04    0.54      63.9  T
     SCC iter.                  ...        0 min,  0.015 sec
     gradient                   ...        0 min,  0.012 sec
 * total energy  :   -41.8788000 Eh     change       -0.8850241E-02 Eh
   gradient norm :     0.0966152 Eh/α   predicted    -0.1255822E-01 (  41.90%)
   displ. norm   :     0.4126227 α      lambda       -0.1370127E-01
   maximum displ.:     0.2285339 α      in ANC's #16, #12, #13, ...

........................................................................
.............................. CYCLE   29 ..............................
........................................................................

 iter      E             dE          RMSdq      gap      omega  full diag
   1    -42.4635742 -0.424636E+02  0.641E-01    0.45       0.0  T
   2    -42.4569900  0.658415E-02  0.574E-01    0.58       1.0  T
   3    -42.4471111  0.987897E-02  0.653E-01    0.38       1.0  T
   4    -42.4605004 -0.133894E-01  0.359E-01    0.51       1.0  T
   5    -42.4659451 -0.544471E-02  0.605E-02    0.50       1.0  T
   6    -42.4659864 -0.412786E-04  0.349E-02    0.49       1.0  T
   7    -42.4660435 -0.571238E-04  0.138E-02    0.49       1.4  T
   8    -42.4660461 -0.254020E-05  0.659E-03    0.49       3.0  T
   9    -42.4660463 -0.232749E-06  0.314E-03    0.49       6.4  T
  10    -42.4660466 -0.321065E-06  0.101E-03    0.49      19.9  T
  11    -42.4660466 -0.337725E-08  0.697E-04    0.49      28.7  T
  12    -42.4660466 -0.226792E-07  0.149E-04    0.49     134.5  T
     SCC iter.                  ...        0 min,  0.016 sec
     gradient                   ...        0 min,  0.012 sec
 * total energy  :   -41.8845121 Eh     change       -0.5712028E-02 Eh
   gradient norm :     0.0895670 Eh/α   predicted    -0.8017019E-02 (  40.35%)
   displ. norm   :     0.4535501 α      lambda       -0.8147869E-02
   maximum displ.:     0.2054000 α      in ANC's #16, #6, #7, ...

........................................................................
.............................. CYCLE   30 ..............................
........................................................................

 iter      E             dE          RMSdq      gap      omega  full diag
   1    -42.4465811 -0.424466E+02  0.674E-01    0.52       0.0  T
   2    -42.4457634  0.817692E-03  0.444E-01    0.53       1.0  T
   3    -42.4269523  0.188112E-01  0.660E-01    0.43       1.0  T
   4    -42.4404661 -0.135139E-01  0.414E-01    0.59       1.0  T
   5    -42.4476558 -0.718967E-02  0.800E-02    0.51       1.0  T
   6    -42.4478819 -0.226040E-03  0.284E-02    0.52       1.0  T
   7    -42.4479017 -0.198380E-04  0.135E-02    0.52       1.5  T
   8    -42.4479059 -0.416966E-05  0.753E-03    0.52       2.7  T
   9    -42.4479079 -0.205264E-05  0.192E-03    0.52      10.4  T
  10    -42.4479080 -0.607288E-07  0.968E-04    0.52      20.7  T
  11    -42.4479080 -0.138011E-07  0.439E-04    0.52      45.6  T
     SCC iter.                  ...        0 min,  0.015 sec
     gradient                   ...        0 min,  0.012 sec
 * total energy  :   -41.8885442 Eh     change       -0.4032137E-02 Eh
   gradient norm :     0.0767039 Eh/α   predicted    -0.4911977E-02 (  21.82%)
   displ. norm   :     0.4694680 α      lambda       -0.7298761E-02
   maximum displ.:     0.2225932 α      in ANC's #7, #16, #2, ...

........................................................................
.............................. CYCLE   31 ..............................
........................................................................

 iter      E             dE          RMSdq      gap      omega  full diag
   1    -42.4574019 -0.424574E+02  0.730E-01    0.54       0.0  T
   2    -42.4574519 -0.499958E-04  0.442E-01    0.54       1.0  T
   3    -42.4443232  0.131288E-01  0.548E-01    0.46       1.0  T
   4    -42.4518052 -0.748207E-02  0.348E-01    0.60       1.0  T
   5    -42.4578997 -0.609452E-02  0.324E-02    0.53       1.0  T
   6    -42.4579514 -0.516415E-04  0.101E-02    0.53       2.0  T
   7    -42.4579524 -0.103995E-05  0.594E-03    0.53       3.4  T
   8    -42.4579526 -0.175284E-06  0.340E-03    0.53       5.9  T
   9    -42.4579529 -0.340430E-06  0.988E-04    0.53      20.3  T
  10    -42.4579529 -0.561644E-08  0.648E-04    0.53      30.9  T
     SCC iter.                  ...        0 min,  0.014 sec
     gradient                   ...        0 min,  0.012 sec
 * total energy  :   -41.8914434 Eh     change       -0.2899205E-02 Eh
   gradient norm :     0.0566922 Eh/α   predicted    -0.4453709E-02 (  53.62%)
   displ. norm   :     0.3528867 α      lambda       -0.5331175E-02
   maximum displ.:     0.1682159 α      in ANC's #16, #2, #7, ...

........................................................................
.............................. CYCLE   32 ..............................
........................................................................

 iter      E             dE          RMSdq      gap      omega  full diag
   1    -42.4665113 -0.424665E+02  0.483E-01    0.45       0.0  T
   2    -42.4621911  0.432020E-02  0.449E-01    0.55       1.0  T
   3    -42.4569364  0.525465E-02  0.508E-01    0.41       1.0  T
   4    -42.4667064 -0.977003E-02  0.203E-01    0.49       1.0  T
   5    -42.4683152 -0.160875E-02  0.868E-02    0.49       1.0  T
   6    -42.4685833 -0.268101E-03  0.154E-02    0.48       1.3  T
   7    -42.4685880 -0.474317E-05  0.838E-03    0.48       2.4  T
   8    -42.4685893 -0.120838E-05  0.511E-03    0.48       3.9  T
   9    -42.4685900 -0.789244E-06  0.169E-03    0.48      11.8  T
  10    -42.4685901 -0.288027E-07  0.718E-04    0.48      27.9  T
  11    -42.4685901  0.657413E-08  0.585E-04    0.48      34.2  T
     SCC iter.                  ...        0 min,  0.015 sec
     gradient                   ...        0 min,  0.012 sec
 * total energy  :   -41.8935047 Eh     change       -0.2061275E-02 Eh
   gradient norm :     0.0619577 Eh/α   predicted    -0.2997520E-02 (  45.42%)
   displ. norm   :     0.3036475 α      lambda       -0.2972264E-02
   maximum displ.:     0.1596939 α      in ANC's #16, #6, #13, ...

........................................................................
.............................. CYCLE   33 ..............................
........................................................................

 iter      E             dE          RMSdq      gap      omega  full diag
   1    -42.4691216 -0.424691E+02  0.318E-01    0.47       0.0  T
   2    -42.4676703  0.145133E-02  0.255E-01    0.51       1.0  T
   3    -42.4608083  0.686190E-02  0.427E-01    0.43       1.0  T
   4    -42.4689647 -0.815633E-02  0.108E-01    0.48       1.0  T
   5    -42.4693788 -0.414168E-03  0.284E-02    0.48       1.0  T
   6    -42.4694099 -0.310147E-04  0.963E-03    0.48       2.1  T
   7    -42.4694144 -0.449050E-05  0.366E-03    0.48       5.5  T
   8    -42.4694143  0.359992E-07  0.267E-03    0.48       7.5  T
   9    -42.4694145 -0.196910E-06  0.118E-03    0.48      17.0  T
  10    -42.4694146 -0.715064E-07  0.351E-04    0.48      56.9  T
  11    -42.4694146 -0.100968E-10  0.234E-04    0.48      85.5  T
     SCC iter.                  ...        0 min,  0.015 sec
     gradient                   ...        0 min,  0.012 sec
 * total energy  :   -41.8954734 Eh     change       -0.1968731E-02 Eh
   gradient norm :     0.0286683 Eh/α   predicted    -0.1623157E-02 ( -17.55%)
   displ. norm   :     0.4500140 α      lambda       -0.2549172E-02
   maximum displ.:     0.1783756 α      in ANC's #2, #16, #4, ...

........................................................................
.............................. CYCLE   34 ..............................
........................................................................

 iter      E             dE          RMSdq      gap      omega  full diag
   1    -42.4698711 -0.424699E+02  0.246E-01    0.49       0.0  T
   2    -42.4636392  0.623192E-02  0.389E-01    0.54       1.0  T
   3    -42.4700021 -0.636294E-02  0.158E-01    0.48       1.0  T
   4    -42.4703348 -0.332692E-03  0.975E-02    0.51       1.0  T
   5    -42.4706804 -0.345632E-03  0.198E-02    0.49       1.0  T
   6    -42.4706912 -0.107754E-04  0.724E-03    0.49       2.8  T
   7    -42.4706926 -0.142690E-05  0.350E-03    0.49       5.7  T
   8    -42.4706930 -0.320839E-06  0.178E-03    0.49      11.2  T
   9    -42.4706930 -0.870866E-07  0.555E-04    0.49      36.1  T
  10    -42.4706930 -0.191221E-08  0.292E-04    0.49      68.6  T
     SCC iter.                  ...        0 min,  0.014 sec
     gradient                   ...        0 min,  0.012 sec
 * total energy  :   -41.8972081 Eh     change       -0.1734705E-02 Eh
   gradient norm :     0.0373813 Eh/α   predicted    -0.1532710E-02 ( -11.64%)
   displ. norm   :     0.5638935 α      lambda       -0.2620188E-02
   maximum displ.:     0.2295122 α      in ANC's #2, #4, #5, ...

........................................................................
.............................. CYCLE   35 ..............................
........................................................................

 iter      E             dE          RMSdq      gap      omega  full diag
   1    -42.4700400 -0.424700E+02  0.358E-01    0.49       0.0  T
   2    -42.4699166  0.123419E-03  0.222E-01    0.51       1.0  T
   3    -42.4643644  0.555223E-02  0.364E-01    0.48       1.0  T
   4    -42.4685875 -0.422312E-02  0.167E-01    0.51       1.0  T
   5    -42.4702005 -0.161296E-02  0.274E-02    0.50       1.0  T
   6    -42.4702238 -0.233774E-04  0.825E-03    0.50       2.4  T
   7    -42.4702250 -0.115483E-05  0.366E-03    0.50       5.5  T
   8    -42.4702250  0.200478E-07  0.190E-03    0.50      10.5  T
   9    -42.4702250 -0.531910E-07  0.121E-03    0.50      16.6  T
  10    -42.4702251 -0.686618E-07  0.321E-04    0.50      62.3  T
  11    -42.4702251  0.158713E-08  0.228E-04    0.50      87.8  T
     SCC iter.                  ...        0 min,  0.015 sec
     gradient                   ...        0 min,  0.012 sec
 * total energy  :   -41.8996417 Eh     change       -0.2433546E-02 Eh
   gradient norm :     0.0394842 Eh/α   predicted    -0.1726671E-02 ( -29.05%)
   displ. norm   :     0.8442337 α      lambda       -0.5179847E-02
   maximum displ.:     0.3061655 α      in ANC's #8, #2, #4, ...

........................................................................
.............................. CYCLE   36 ..............................
........................................................................

 iter      E             dE          RMSdq      gap      omega  full diag
   1    -42.4598118 -0.424598E+02  0.769E-01    0.52       0.0  T
   2    -42.4574066  0.240518E-02  0.525E-01    0.48       1.0  T
   3    -42.4454144  0.119922E-01  0.635E-01    0.57       1.0  T
   4    -42.4549813 -0.956691E-02  0.410E-01    0.52       1.0  T
   5    -42.4610144 -0.603309E-02  0.124E-01    0.50       1.0  T
   6    -42.4618949 -0.880496E-03  0.223E-02    0.51       1.0  T
   7    -42.4619050 -0.100433E-04  0.996E-03    0.51       2.0  T
   8    -42.4619036  0.142523E-05  0.735E-03    0.51       2.7  T
   9    -42.4619058 -0.227025E-05  0.378E-03    0.51       5.3  T
  10    -42.4619062 -0.404092E-06  0.100E-03    0.51      20.0  T
  11    -42.4619062 -0.151967E-07  0.524E-04    0.51      38.1  T
  12    -42.4619062 -0.192209E-08  0.179E-04    0.51     111.7  T
     SCC iter.                  ...        0 min,  0.016 sec
     gradient                   ...        0 min,  0.012 sec
 * total energy  :   -41.9049600 Eh     change       -0.5318342E-02 Eh
   gradient norm :     0.0623754 Eh/α   predicted    -0.4435843E-02 ( -16.59%)
   displ. norm   :     0.8097509 α      lambda       -0.8698808E-02
   maximum displ.:     0.4082441 α      in ANC's #8, #12, #15, ...

........................................................................
.............................. CYCLE   37 ..............................
........................................................................

 iter      E             dE          RMSdq      gap      omega  full diag
   1    -42.4425120 -0.424425E+02  0.110E+00    0.57       0.0  T
   2    -42.3949393  0.475726E-01  0.118E+00    0.42       1.0  T
   3    -42.4274277 -0.324884E-01  0.859E-01    0.61       1.0  T
   4    -42.4511905 -0.237628E-01  0.370E-01    0.61       1.0  T
   5    -42.4487376  0.245288E-02  0.333E-01    0.50       1.0  T
   6    -42.4538484 -0.511075E-02  0.437E-02    0.57       1.0  T
   7    -42.4539019 -0.535156E-04  0.218E-02    0.56       1.0  T
   8    -42.4539068 -0.492889E-05  0.144E-02    0.56       1.4  T
   9    -42.4539152 -0.834548E-05  0.450E-03    0.56       4.4  T
  10    -42.4539156 -0.420669E-06  0.199E-03    0.56      10.1  T
  11    -42.4539156 -0.520347E-07  0.111E-03    0.56      18.0  T
  12    -42.4539157 -0.173539E-07  0.426E-04    0.56      47.0  T
  13    -42.4539157 -0.689033E-08  0.137E-04    0.56     145.6  T
     SCC iter.                  ...        0 min,  0.017 sec
     gradient                   ...        0 min,  0.012 sec
 * total energy  :   -41.9089804 Eh     change       -0.4020346E-02 Eh
   gradient norm :     0.1935114 Eh/α   predicted    -0.7201311E-02 (  79.12%)
   displ. norm   :     0.4549574 α      lambda       -0.9819519E-02
   maximum displ.:     0.2067059 α      in ANC's #7, #8, #13, ...

........................................................................
.............................. CYCLE   38 ..............................
........................................................................

 iter      E             dE          RMSdq      gap      omega  full diag
   1    -42.4448824 -0.424449E+02  0.598E-01    0.70       0.0  T
   2    -42.3988485  0.460338E-01  0.112E+00    0.37       1.0  T
   3    -42.4493920 -0.505434E-01  0.298E-01    0.62       1.0  T
   4    -42.4466514  0.274055E-02  0.342E-01    0.57       1.0  T
   5    -42.4501059 -0.345445E-02  0.151E-01    0.58       1.0  T
   6    -42.4512989 -0.119304E-02  0.197E-02    0.61       1.0  T
   7    -42.4513058 -0.685404E-05  0.105E-02    0.61       1.9  T
   8    -42.4513052  0.559536E-06  0.876E-03    0.61       2.3  T
   9    -42.4513077 -0.252846E-05  0.330E-03    0.61       6.1  T
  10    -42.4513081 -0.316034E-06  0.730E-04    0.61      27.4  T
  11    -42.4513081 -0.632296E-08  0.394E-04    0.61      50.7  T
     SCC iter.                  ...        0 min,  0.015 sec
     gradient                   ...        0 min,  0.012 sec
 * total energy  :   -41.9180338 Eh     change       -0.9053466E-02 Eh
   gradient norm :     0.2215425 Eh/α   predicted    -0.5926034E-02 ( -34.54%)
   displ. norm   :     0.6924674 α      lambda       -0.3130654E-01
   maximum displ.:     0.4477621 α      in ANC's #7, #1, #6, ...

........................................................................
.............................. CYCLE   39 ..............................
........................................................................

 iter      E             dE          RMSdq      gap      omega  full diag
   1    -42.4520116 -0.424520E+02  0.116E+00    0.90       0.0  T
   2    -42.2799622  0.172049E+00  0.222E+00    0.31       1.0  T
   3    -42.4587789 -0.178817E+00  0.611E-01    0.74       1.0  T
   4    -42.4581575  0.621445E-03  0.561E-01    0.53       1.0  T
   5    -42.4662853 -0.812782E-02  0.198E-01    0.64       1.0  T
   6    -42.4683160 -0.203065E-02  0.483E-02    0.66       1.0  T
   7    -42.4683689 -0.529849E-04  0.262E-02    0.67       1.0  T
   8    -42.4683760 -0.711238E-05  0.199E-02    0.67       1.0  T
   9    -42.4683793 -0.324827E-05  0.134E-02    0.67       1.5  T
  10    -42.4683857 -0.637007E-05  0.303E-03    0.67       6.6  T
  11    -42.4683859 -0.269603E-06  0.117E-03    0.67      17.1  T
  12    -42.4683860 -0.348109E-07  0.320E-04    0.67      62.6  T
  13    -42.4683860 -0.811902E-09  0.974E-05    0.67     205.4  T
     SCC iter.                  ...        0 min,  0.017 sec
     gradient                   ...        0 min,  0.012 sec
 * total energy  :   -41.9397866 Eh     change       -0.2175276E-01 Eh
   gradient norm :     0.2015540 Eh/α   predicted    -0.2315928E-01 (   6.47%)
   displ. norm   :     0.6058032 α      lambda       -0.2918048E-01
   maximum displ.:     0.3288904 α      in ANC's #2, #3, #7, ...

........................................................................
.............................. CYCLE   40 ..............................
........................................................................

 iter      E             dE          RMSdq      gap      omega  full diag
   1    -42.4568767 -0.424569E+02  0.835E-01    0.54       0.0  T
   2    -42.4291021  0.277747E-01  0.103E+00    0.96       1.0  T
   3    -42.4600503 -0.309482E-01  0.467E-01    0.58       1.0  T
   4    -42.4617507 -0.170043E-02  0.377E-01    0.74       1.0  T
   5    -42.4650313 -0.328062E-02  0.800E-02    0.69       1.0  T
   6    -42.4652109 -0.179561E-03  0.316E-02    0.68       1.0  T
   7    -42.4652470 -0.360962E-04  0.157E-02    0.69       1.3  T
   8    -42.4652513 -0.429987E-05  0.872E-03    0.69       2.3  T
   9    -42.4652521 -0.863821E-06  0.515E-03    0.68       3.9  T
  10    -42.4652533 -0.118169E-05  0.104E-03    0.68      19.2  T
  11    -42.4652533 -0.259086E-08  0.594E-04    0.68      33.7  T
  12    -42.4652533 -0.675193E-08  0.159E-04    0.68     125.9  T
     SCC iter.                  ...        0 min,  0.016 sec
     gradient                   ...        0 min,  0.012 sec
 * total energy  :   -41.9537202 Eh     change       -0.1393365E-01 Eh
   gradient norm :     0.1641228 Eh/α   predicted    -0.1994483E-01 (  43.14%)
   displ. norm   :     0.6449853 α      lambda       -0.3491895E-01
   maximum displ.:     0.2707402 α      in ANC's #12, #7, #8, ...

........................................................................
.............................. CYCLE   41 ..............................
........................................................................

 iter      E             dE          RMSdq      gap      omega  full diag
   1    -42.5257034 -0.425257E+02  0.122E+00    0.86       0.0  T
   2    -42.5258827 -0.179271E-03  0.810E-01    1.01       1.0  T
   3    -42.5355207 -0.963803E-02  0.538E-01    0.82       1.0  T
   4    -42.5355421 -0.213736E-04  0.356E-01    1.09       1.0  T
   5    -42.5399488 -0.440668E-02  0.966E-02    0.87       1.0  T
   6    -42.5402801 -0.331278E-03  0.407E-02    0.93       1.0  T
   7    -42.5403204 -0.403787E-04  0.117E-02    0.90       1.7  T
   8    -42.5403224 -0.198214E-05  0.552E-03    0.91       3.6  T
   9    -42.5403230 -0.542732E-06  0.244E-03    0.91       8.2  T
  10    -42.5403231 -0.135625E-06  0.935E-04    0.91      21.4  T
  11    -42.5403231 -0.872852E-09  0.524E-04    0.91      38.2  T
     SCC iter.                  ...        0 min,  0.015 sec
     gradient                   ...        0 min,  0.012 sec
 * total energy  :   -41.9322819 Eh     change        0.2143829E-01 Eh
   gradient norm :     0.4358187 Eh/α   predicted    -0.2472272E-01 (-215.32%)
   displ. norm   :     0.4389335 α      lambda       -0.1195510E+00
   maximum displ.:     0.2276278 α      in ANC's #7, #6, #4, ...

........................................................................
.............................. CYCLE   42 ..............................
........................................................................

 iter      E             dE          RMSdq      gap      omega  full diag
   1    -42.5508565 -0.425509E+02  0.111E+00    1.32       0.0  T
   2    -42.4038315  0.147025E+00  0.202E+00    0.31       1.0  T
   3    -42.5573412 -0.153510E+00  0.793E-01    1.39       1.0  T
   4    -42.5718311 -0.144899E-01  0.434E-01    1.12       1.0  T
   5    -42.5763905 -0.455943E-02  0.100E-01    0.96       1.0  T
   6    -42.5765510 -0.160485E-03  0.420E-02    0.94       1.0  T
   7    -42.5765685 -0.174493E-04  0.232E-02    0.94       1.0  T
   8    -42.5765786 -0.100933E-04  0.937E-03    0.94       2.1  T
   9    -42.5765806 -0.205938E-05  0.379E-03    0.94       5.3  T
  10    -42.5765810 -0.355690E-06  0.124E-03    0.93      16.1  T
  11    -42.5765810  0.975956E-08  0.109E-03    0.93      18.3  T
  12    -42.5765810 -0.403966E-07  0.316E-04    0.93      63.3  T
  13    -42.5765810 -0.208021E-08  0.107E-04    0.93     186.7  T
     SCC iter.                  ...        0 min,  0.017 sec
     gradient                   ...        0 min,  0.012 sec
 * total energy  :   -41.9771853 Eh     change       -0.4490336E-01 Eh
   gradient norm :     0.1488145 Eh/α   predicted    -0.7129215E-01 (  58.77%)
   displ. norm   :     0.5060712 α      lambda       -0.1827371E-01
   maximum displ.:     0.1925128 α      in ANC's #15, #4, #19, ...
 * RMSD in coord.:     1.3648756 α      energy gain  -0.2527548E+00 Eh

generating ANC from model Hessian ...
Using Lindh-Hessian (1995)
 Shifting diagonal of input Hessian by    1.0012315798370303E-002
 Lowest  eigenvalues of input Hessian
    0.010000    0.000000    0.000000    0.000000    0.000000    0.000000
    0.000000    0.010328    0.010378    0.010740    0.011181    0.011374
    0.012938    0.014913    0.015996    0.017685    0.019461    0.025279
 Highest eigenvalues
    1.737614    1.911102    2.205779    2.444884    2.875398    3.121444


........................................................................
.............................. CYCLE   43 ..............................
........................................................................

 iter      E             dE          RMSdq      gap      omega  full diag
   1    -42.5184211 -0.425184E+02  0.508E-01    0.92       0.0  T
   2    -42.5184460 -0.249654E-04  0.351E-01    0.85       1.0  T
   3    -42.5148198  0.362624E-02  0.332E-01    1.07       1.0  T
   4    -42.5162591 -0.143931E-02  0.275E-01    0.79       1.0  T
   5    -42.5191646 -0.290550E-02  0.501E-02    0.92       1.0  T
   6    -42.5192538 -0.892039E-04  0.171E-02    0.91       1.2  T
   7    -42.5192609 -0.709839E-05  0.690E-03    0.91       2.9  T
   8    -42.5192613 -0.401130E-06  0.193E-03    0.90      10.4  T
   9    -42.5192614 -0.544315E-07  0.819E-04    0.90      24.4  T
  10    -42.5192614 -0.270955E-08  0.637E-04    0.90      31.4  T
     SCC iter.                  ...        0 min,  0.014 sec
     gradient                   ...        0 min,  0.012 sec
 * total energy  :   -41.9763775 Eh     change        0.8078067E-03 Eh
   gradient norm :     0.1220346 Eh/α   predicted     0.0000000E+00 (-100.00%)
   displ. norm   :     0.3478917 α      lambda       -0.2022083E-01
   maximum displ.:     0.1728522 α      in ANC's #15, #20, #8, ...

........................................................................
.............................. CYCLE   44 ..............................
........................................................................

 iter      E             dE          RMSdq      gap      omega  full diag
   1    -42.5630251 -0.425630E+02  0.478E-01    1.14       0.0  T
   2    -42.5311107  0.319144E-01  0.919E-01    0.56       1.0  T
   3    -42.5647342 -0.336235E-01  0.302E-01    1.09       1.0  T
   4    -42.5669052 -0.217094E-02  0.665E-02    0.97       1.0  T
   5    -42.5669919 -0.867601E-04  0.194E-02    0.95       1.0  T
   6    -42.5669990 -0.707249E-05  0.102E-02    0.95       2.0  T
   7    -42.5670010 -0.196769E-05  0.414E-03    0.95       4.8  T
   8    -42.5670012 -0.275926E-06  0.126E-03    0.95      15.9  T
   9    -42.5670012 -0.184573E-07  0.723E-04    0.95      27.7  T
  10    -42.5670013 -0.640819E-08  0.288E-04    0.95      69.4  T
     SCC iter.                  ...        0 min,  0.014 sec
     gradient                   ...        0 min,  0.012 sec
 * total energy  :   -41.9914433 Eh     change       -0.1506578E-01 Eh
   gradient norm :     0.0639738 Eh/α   predicted    -0.1136907E-01 ( -24.54%)
   displ. norm   :     0.5678045 α      lambda       -0.1839823E-01
   maximum displ.:     0.2928896 α      in ANC's #5, #15, #14, ...

........................................................................
.............................. CYCLE   45 ..............................
........................................................................

 iter      E             dE          RMSdq      gap      omega  full diag
   1    -42.5951357 -0.425951E+02  0.608E-01    1.19       0.0  T
   2    -42.5867533  0.838239E-02  0.564E-01    0.78       1.0  T
   3    -42.5916363 -0.488299E-02  0.475E-01    1.28       1.0  T
   4    -42.5964420 -0.480565E-02  0.137E-01    1.12       1.0  T
[...]
N           -2.53352384560017        2.39403704855675        0.64489764099902
C           -3.91983761598816        2.60105889016123        0.52280773288171
C           -1.55160570064957        1.75592579771399        0.74952093994763
O           -0.48646230425716        1.27949117326372        0.83669164764451
N           -0.38812220134303       -1.72747438558126       -1.07210215593445
C           -1.13131289010667       -2.93340872687175       -0.92116734725727
H            3.04522748939588        1.65681547810380        0.73046891994713
H            4.31298987600955        0.44819797396894        1.02950141427051
H            3.99422740472407        1.01567237195670       -0.62300872612035
H            3.31027400610698       -1.78327902769574        1.45872097892487
H           -4.08065165850791        3.65228318622300        0.28661703181743
H           -4.33157995176902        1.98472218330135       -0.27823056957541
H           -4.42184922038926        2.36433503846917        1.46235980419548
H           -0.60417580041843       -3.74939282343048       -0.41730757635733
H           -1.43397873818226       -3.25450342513599       -1.91805110414833
H           -2.04175073849802       -2.69750597428241       -0.36623738650282
H            1.26477364273512       -3.08524110861230        0.76010518084549

 Bond Distances (Angstroems)
 ---------------------------
C1-N2=1.4348         C1-H15=1.0918        C1-H16=1.0883        C1-H17=1.0913        N2-C1=1.4348         N2-C3=1.3090         
N2-C6=1.4057         C3-N2=1.3090         C3-N4=1.3273         C3-H18=1.0772        N4-C3=1.3273         N4-C5=1.4309         
N4-H25=1.0083        C5-N4=1.4309         C5-C6=1.4717         C5-N13=1.2454        C6-N2=1.4057         C6-C5=1.4717         
C6-C7=1.3227         C7-C6=1.3227         C7-O8=1.1450         O8-C7=1.1450         N9-C10=1.4070        N9-C11=1.1757        
C10-N9=1.4070        C10-H19=1.0894       C10-H20=1.0914       C10-H21=1.0912       C11-N9=1.1757        C11-O12=1.1701       
O12-C11=1.1701       N13-C5=1.2454        N13-C14=1.4246       C14-N13=1.4246       C14-H22=1.0943       C14-H23=1.0902       
C14-H24=1.0920       H15-C1=1.0918        H16-C1=1.0883        H17-C1=1.0913        H18-C3=1.0772        H19-C10=1.0894       
H20-C10=1.0914       H21-C10=1.0912       H22-C14=1.0943       H23-C14=1.0902       H24-C14=1.0920       H25-N4=1.0083        
 C  H  Rav=1.0897 sigma=0.0045  Rmin=1.0772  Rmax=1.0943    10
 C  C  Rav=1.3972 sigma=0.0745  Rmin=1.3227  Rmax=1.4717     2
 N  H  Rav=1.0083 sigma=0.0000  Rmin=1.0083  Rmax=1.0083     1
 N  C  Rav=1.3512 sigma=0.0877  Rmin=1.1757  Rmax=1.4348     9
 O  C  Rav=1.1576 sigma=0.0125  Rmin=1.1450  Rmax=1.1701     2

 selected bond angles (degree)
 --------------------
H15-C1-N2=109.84               H16-C1-N2=109.73               H16-C1-H15=109.19              H17-C1-N2=110.31               
H17-C1-H15=108.61              H17-C1-H16=109.15              C3-N2-C1=127.67                C6-N2-C1=123.51                
C6-N2-C3=108.78                N4-C3-N2=111.77                H18-C3-N2=123.71               H18-C3-N4=124.52               
C5-N4-C3=110.36                H25-N4-C3=125.45               H25-N4-C5=124.15               C6-C5-N4=102.01                
N13-C5-N4=131.03               N13-C5-C6=126.96               C5-C6-N2=107.06                C7-C6-N2=125.81                
C7-C6-C5=126.90                O8-C7-C6=176.77                C11-N9-C10=155.57              H19-C10-N9=107.83              
H20-C10-N9=110.63              H20-C10-H19=109.28             H21-C10-N9=110.28              H21-C10-H19=109.15             
H21-C10-H20=109.63             

 selected dihedral angles (degree)
 ---------------------------------
C3-N2-C1-H15=242.27           C3-N2-C1-H16=  2.30           C3-N2-C1-H17=122.58           C6-N2-C1-H15= 59.77           
C6-N2-C1-H16=179.80           C6-N2-C1-H17=300.08           N4-C3-N2-C1=177.88            N4-C3-N2-C6=  0.08            
H18-C3-N2-C1=357.65           H18-C3-N2-C6=179.85           C5-N4-C3-N2=359.18            C5-N4-C3-H18=179.41           
H25-N4-C3-N2=181.36           H25-N4-C3-H18=  1.59          C6-C5-N4-C3=  1.15            C6-C5-N4-H25=178.99           
N13-C5-N4-C3=180.74           N13-C5-N4-H25=358.59          C5-C6-N2-C1=182.75            C5-C6-N2-C3=  0.67            
C7-C6-N2-C1=357.60            C7-C6-N2-C3=175.51            N2-C6-C5-N4=358.93            N2-C6-C5-N13=179.32           
C7-C6-C5-N4=184.16            C7-C6-C5-N13=  4.55           O8-C7-C6-N2=139.89            O8-C7-C6-C5=313.73            
H19-C10-N9-C11=190.18         H20-C10-N9-C11=309.63         H21-C10-N9-C11= 71.08         
           -------------------------------------------------
          |                Final Singlepoint                |
           -------------------------------------------------

          ...................................................
          :                      SETUP                      :
          :.................................................:
          :  # basis functions                  67          :
          :  # atomic orbitals                  67          :
          :  # shells                           39          :
          :  # electrons                        74          :
          :  max. iterations                   250          :
          :  Hamiltonian                  GFN2-xTB          :
          :  restarted?                      false          :
          :  GBSA solvation                  false          :
          :  PC potential                    false          :
          :  electronic temp.         2500.0000000     K    :
          :  accuracy                    1.0000000          :
          :  -> integral cutoff          0.2500000E+02      :
          :  -> integral neglect         0.1000000E-07      :
          :  -> SCF convergence          0.1000000E-05 Eh   :
          :  -> wf. convergence          0.1000000E-03 e    :
          :  Broyden damping             0.4000000          :
          ...................................................

 iter      E             dE          RMSdq      gap      omega  full diag
   1    -42.7758890 -0.427759E+02  0.100E-04    2.11       0.0  T
   2    -42.7758890 -0.593872E-10  0.607E-05    2.11     329.6  T
   3    -42.7758890 -0.348095E-10  0.374E-05    2.11     534.9  T

   *** convergence criteria satisfied after 3 iterations ***

         #    Occupation            Energy/Eh            Energy/eV
      -------------------------------------------------------------
         1        2.0000           -0.9238502             -25.1392
       ...           ...                  ...                  ...
        31        2.0000           -0.6088465             -16.5676
        32        2.0000           -0.6065625             -16.5054
        33        2.0000           -0.5954498             -16.2030
        34        1.9966           -0.5288192             -14.3899
        35        1.9936           -0.5236963             -14.2505
        36        1.9911           -0.5211361             -14.1808
        37        1.9890           -0.5194484             -14.1349 (HOMO)
        38        0.0196           -0.4417392             -12.0203 (LUMO)
        39        0.0100           -0.4363749             -11.8744
        40        0.0000           -0.3710473             -10.0967
        41                         -0.2896414              -7.8815
        42                         -0.2843448              -7.7374
       ...                                ...                  ...
        67                          1.2613089              34.3220
      -------------------------------------------------------------
                  HL-Gap            0.0777092 Eh            2.1146 eV
             Fermi-level           -0.4782737 Eh          -13.0145 eV

 SCC (total)                   0 d,  0 h,  0 min,  0.022 sec
 SCC setup                      ...        0 min,  0.000 sec (  0.913%)
 Dispersion                     ...        0 min,  0.000 sec (  0.898%)
 classical contributions        ...        0 min,  0.000 sec (  0.324%)
 integral evaluation            ...        0 min,  0.005 sec ( 20.844%)
 iterations                     ...        0 min,  0.005 sec ( 21.444%)
 molecular gradient             ...        0 min,  0.012 sec ( 54.932%)
 printout                       ...        0 min,  0.000 sec (  0.582%)

         :::::::::::::::::::::::::::::::::::::::::::::::::::::
         ::                     SUMMARY                     ::
         :::::::::::::::::::::::::::::::::::::::::::::::::::::
         :: total energy             -42.142005422935 Eh    ::
         :: gradient norm              0.002637525314 Eh/a0 ::
         :: HOMO-LUMO gap              2.114575547056 eV    ::
         ::.................................................::
         :: SCC energy               -42.775889011608 Eh    ::
         :: -> isotropic ES            0.126554346667 Eh    ::
         :: -> anisotropic ES         -0.003600369104 Eh    ::
         :: -> anisotropic XC          0.026934986039 Eh    ::
         :: -> dispersion             -0.018846255388 Eh    ::
         :: repulsion energy           0.633726531736 Eh    ::
         :: add. restraining           0.000000008087 Eh    ::
         :: total charge               1.000000000000 e     ::
         :::::::::::::::::::::::::::::::::::::::::::::::::::::

           -------------------------------------------------
          |                Property Printout                |
           -------------------------------------------------

    * Orbital Energies and Occupations

         #    Occupation            Energy/Eh            Energy/eV
      -------------------------------------------------------------
         1        2.0000           -0.9238502             -25.1392
       ...           ...                  ...                  ...
        25        2.0000           -0.6514914             -17.7280
        26        2.0000           -0.6449485             -17.5499
        27        2.0000           -0.6422727             -17.4771
        28        2.0000           -0.6371040             -17.3365
        29        2.0000           -0.6153344             -16.7441
        30        2.0000           -0.6101189             -16.6022
        31        2.0000           -0.6088465             -16.5676
        32        2.0000           -0.6065625             -16.5054
        33        2.0000           -0.5954498             -16.2030
        34        1.9966           -0.5288192             -14.3899
        35        1.9936           -0.5236963             -14.2505
        36        1.9911           -0.5211361             -14.1808
        37        1.9890           -0.5194484             -14.1349 (HOMO)
        38        0.0196           -0.4417392             -12.0203 (LUMO)
        39        0.0100           -0.4363749             -11.8744
        40        0.0000           -0.3710473             -10.0967
        41                         -0.2896414              -7.8815
        42                         -0.2843448              -7.7374
        43                         -0.2694561              -7.3323
        44                         -0.1837308              -4.9996
        45                         -0.1513428              -4.1182
        46                         -0.0956475              -2.6027
        47                         -0.0679816              -1.8499
        48                         -0.0503119              -1.3691
       ...                                ...                  ...
        67                          1.2613089              34.3220
      -------------------------------------------------------------
                  HL-Gap            0.0777092 Eh            2.1146 eV
             Fermi-level           -0.4782737 Eh          -13.0145 eV

     #   Z          covCN         q      C6AA      α(0)
     1   6 C        3.692    -0.088    22.368     6.767
     2   7 N        2.803     0.078    19.886     6.623
     3   6 C        2.964     0.095    25.888     8.346
     4   7 N        2.773    -0.089    22.981     7.120
     5   6 C        2.919     0.163    24.478     8.113
     6   6 C        3.050    -0.013    28.284     8.722
     7   6 C        1.844     0.290    24.574     8.008
     8   8 O        0.856    -0.077    16.183     5.394
     9   7 N        1.820    -0.146    24.943     7.400
    10   6 C        3.685    -0.030    21.316     6.610
    11   6 C        1.769     0.302    24.408     7.987
    12   8 O        0.856    -0.351    20.736     6.105
    13   7 N        1.824    -0.214    26.502     7.628
    14   6 C        3.700    -0.035    21.367     6.610
    15   1 H        0.924     0.110     1.696     2.037
    16   1 H        0.925     0.105     1.738     2.061
    17   1 H        0.924     0.103     1.754     2.071
    18   1 H        0.926     0.120     1.612     1.986
    19   1 H        0.925     0.092     1.862     2.134
    20   1 H        0.924     0.076     2.026     2.226
    21   1 H        0.924     0.080     1.979     2.200
    22   1 H        0.924     0.033     2.548     2.496
    23   1 H        0.925     0.091     1.874     2.141
    24   1 H        0.924     0.086     1.921     2.167
    25   1 H        0.860     0.221     1.005     1.571

 Mol. C6AA /au·bohr⁶  :       6687.618687
 Mol. C8AA /au·bohr⁸  :     152934.245900
 Mol. α(0) /au        :        124.523742


Wiberg/Mayer (AO) data.
largest (>0.10) Wiberg bond orders for each atom

 ---------------------------------------------------------------------------
     #   Z sym  total        # sym  WBO       # sym  WBO       # sym  WBO
 ---------------------------------------------------------------------------
     1   6 C    3.931 --     2 N    0.992    16 H    0.973    17 H    0.963
                            15 H    0.960
     2   7 N    3.693 --     3 C    1.446     6 C    1.039     1 C    0.992
                             4 N    0.136
     3   6 C    3.948 --     2 N    1.446     4 N    1.359    18 H    0.945
     4   7 N    3.579 --     3 C    1.359     5 C    0.993    25 H    0.921
                             2 N    0.136    13 N    0.103
     5   6 C    3.955 --    13 N    1.777     6 C    1.020     4 N    0.993
     6   6 C    3.896 --     7 C    1.504     2 N    1.039     5 C    1.020
                             8 O    0.169
     7   6 C    3.873 --     8 O    2.173     6 C    1.504
     8   8 O    2.502 --     7 C    2.173     6 C    0.169
     9   7 N    3.478 --    11 C    2.081    10 C    1.015    12 O    0.378
    10   6 C    3.946 --     9 N    1.015    19 H    0.966    20 H    0.963
                            21 H    0.962
    11   6 C    3.950 --     9 N    2.081    12 O    1.789
    12   8 O    2.220 --    11 C    1.789     9 N    0.378
    13   7 N    3.139 --     5 C    1.777    14 C    1.031     4 N    0.103
    14   6 C    3.968 --    13 N    1.031    22 H    0.975    23 H    0.959
                            24 H    0.949
    15   1 H    0.988 --     1 C    0.960
    16   1 H    0.989 --     1 C    0.973
    17   1 H    0.989 --     1 C    0.963
    18   1 H    0.984 --     3 C    0.945
    19   1 H    0.990 --    10 C    0.966
    20   1 H    0.992 --    10 C    0.963
    21   1 H    0.991 --    10 C    0.962
    22   1 H    0.997 --    14 C    0.975
    23   1 H    0.988 --    14 C    0.959
    24   1 H    0.988 --    14 C    0.949
    25   1 H    0.950 --     4 N    0.921
 ---------------------------------------------------------------------------

Topologies differ in total number of bonds
Writing topology from bond orders to xtbtopo.mol

molecular dipole:
                 x           y           z       tot (Debye)
 q only:        2.197      -1.049       0.307
   full:        2.359      -1.480       0.733       7.320
molecular quadrupole (traceless):
                xx          xy          yy          xz          yz          zz
 q only:       26.939     -12.268      -1.807       3.784      -2.293     -25.132
  q+dip:       26.622     -15.006      -0.171       3.957      -4.256     -26.451
   full:       26.668     -13.481      -0.728       3.004      -2.693     -25.939

           -------------------------------------------------
          |                Geometry Summary                 |
           -------------------------------------------------

      molecular mass/u    :      195.1988581
   center of mass at/Å    :        0.2676284       0.1041298      -0.1402061
  moments of inertia/u·Å² :        0.5962096E+03   0.1191017E+04   0.1467804E+04
rotational constants/cm⁻¹ :        0.2827468E-01   0.1415398E-01   0.1148494E-01

 * 23 selected distances

     #   Z          #   Z                                           value/Å
     1   6 C        2   7 N                                       1.4348291 (max)
     2   7 N        3   6 C                                       1.3090445
     3   6 C        4   7 N                                       1.3272549
     4   7 N        5   6 C                                       1.4309460
     2   7 N        6   6 C                                       1.4056895
     6   6 C        7   6 C                                       1.3226778
     7   6 C        8   8 O                                       1.1450106
     9   7 N       10   6 C                                       1.4069933
     9   7 N       11   6 C                                       1.1757106
    11   6 C       12   8 O                                       1.1700938
     5   6 C       13   7 N                                       1.2453846
    13   7 N       14   6 C                                       1.4245672
     1   6 C       15   1 H                                       1.0918233
     1   6 C       16   1 H                                       1.0882664
     1   6 C       17   1 H                                       1.0913381
     3   6 C       18   1 H                                       1.0771501
    10   6 C       19   1 H                                       1.0893668
    10   6 C       20   1 H                                       1.0913594
    10   6 C       21   1 H                                       1.0912434
    14   6 C       22   1 H                                       1.0943393
    14   6 C       23   1 H                                       1.0901770
    14   6 C       24   1 H                                       1.0920140
     4   7 N       25   1 H                                       1.0082803 (min)

 * 5 distinct bonds (by element types)

   Z      Z             #   av. dist./Å        max./Å        min./Å
   1 H    6 C          10     1.0897078     1.0943393     1.0771501
   6 C    6 C           1     1.3226778     1.3226778     1.3226778
   1 H    7 N           1     1.0082803     1.0082803     1.0082803
   6 C    7 N           9     1.3511577     1.4348291     1.1757106
   6 C    8 O           2     1.1575522     1.1700938     1.1450106


optimized geometry written to: xtbopt.xyz


           -------------------------------------------------
          | TOTAL ENERGY              -42.142005422935 Eh   |
          | GRADIENT NORM               0.002637525314 Eh/α |
          | HOMO-LUMO GAP               2.114575547056 eV   |
           -------------------------------------------------

------------------------------------------------------------------------
 * finished run on 2024/06/05 at 19:58:02.825     
------------------------------------------------------------------------
 total:
 * wall-time:     0 d,  0 h,  0 min,  4.193 sec
 *  cpu-time:     0 d,  0 h,  0 min,  4.176 sec
 * ratio c/w:     0.996 speedup
 SCF:
 * wall-time:     0 d,  0 h,  0 min,  0.037 sec
 *  cpu-time:     0 d,  0 h,  0 min,  0.037 sec
 * ratio c/w:     1.000 speedup
 ANC optimizer:
 * wall-time:     0 d,  0 h,  0 min,  4.131 sec
 *  cpu-time:     0 d,  0 h,  0 min,  4.127 sec
 * ratio c/w:     0.999 speedup

