72
 energy: 35.502887716669 xtb: 6.6.1 (8d0f1dd)
N           -2.06751862703821        3.20061157159082        2.52450790883379
C           -1.87691951426640        2.41060598818564        1.56949905684852
C           -2.87528664232001        2.19846002382763        0.46349925763236
C           -3.35731465140395        0.75529352363922        0.48250853152352
C           -4.16410427106526        0.27655880441126       -0.55318560606611
C           -4.64467786484513       -1.01931661896116       -0.55820225002214
O           -5.45058635617484       -1.55463753172364       -1.51826786387487
C           -5.95398291984329       -0.71603633833964       -2.52681532750324
C           -4.29817408767605       -1.89565901052002        0.49504196631090
O           -4.80253373243770       -3.15722948582826        0.39790534282496
C           -4.57079106447019       -4.05917812784691        1.44905521237349
C           -3.50231057516980       -1.42135732615791        1.52004985375992
C           -3.04400283605246       -0.10881874697407        1.51482178635986
C           -2.12972993493475        2.48982097330610       -0.86668123684996
C           -1.14846577906588        1.40020749961535       -1.33631351162764
C            0.12556215516176        1.39609230213301       -0.56704315236471
N            0.80351125500084        0.32366260014220       -0.18540942511455
C            1.96947108640743        0.37517627968668        0.44476476135223
C            3.41376178481429       -1.42907541891590       -2.25045067525325
C            4.56041439557550       -1.09163235379893       -1.56275028211833
C            5.19495556394172        0.16953995615060       -1.72620991073289
C            6.34065558685625        0.49430812729449       -1.04255727167992
C            6.91518928304005       -0.40306141437317       -0.14753821789342
O            8.02097363415586       -0.17000798842086        0.60976997907580
C            8.67442883501203        1.06621588702379        0.49461151083830
C            6.32314508735103       -1.68343911318714        0.02183036801173
O            6.97195774148935       -2.48881139602871        0.91442958922920
C            6.51503229087041       -3.80252731382692        1.09960345259117
C            5.18642498130483       -2.00958317099039       -0.66883963593077
C            0.22564682014704       -0.98968514177726       -0.44010570311033
C           -4.12108960689472        3.12320110653924        0.57637062772684
C           -4.92367518646853        2.83995060169364        1.84614399978357
C           -3.77773632425369        4.61060823157856        0.51292877289756
H           -4.42634432860015        0.93565203741361       -1.36439750663707
H           -6.50381179718207        0.13423312325191       -2.11047426889909
H           -6.63712944424386       -1.33391761040581       -3.10796070055912
H           -5.15961606144149       -0.34743812334756       -3.18442361564725
H           -4.97838011248166       -3.68965134135932        2.39568169036785
H           -5.08990999526980       -4.97336084263759        1.16657386083991
H           -3.50469629258315       -4.27701562377233        1.57089056388061
H           -3.23267145982941       -2.06158687231201        2.34506070694266
H           -2.44807883115342        0.23114883345587        2.34711539588943
H           -2.87623928226120        2.62870494093124       -1.64986802952125
H           -1.58847169514237        3.43163427978032       -0.76694833254477
H           -1.64585978274337        0.43072962109095       -1.30809012726525
H           -0.92787218206408        1.61676165522583       -2.39155618558896
H           -0.95541955552807        1.83315004412484        1.43547320797062
H            0.61435740833063        2.34094567067623       -0.40337080042588
H            2.42997521304775       -0.51957458361355        0.80011770606715
H            2.39954249699426        1.32859487251501        0.68309315897511
H            2.97028810772731       -0.73696623073995       -2.94513723575695
H            2.95985317048158       -2.40104142601102       -2.15898483204180
H            4.75503108857515        0.88375358258899       -2.40445404362694
H            6.78133459653104        1.46768560756532       -1.19237154771590
H            8.02243879149451        1.89698673287955        0.78056839259282
H            9.04757713333670        1.23835307702469       -0.51906779887862
H            9.51051128623409        1.02081635506335        1.18840739053221
H            7.19926930140677       -4.24748882114312        1.82072532464527
H            5.49704409634182       -3.82884153148193        1.50482743059711
H            6.55434960925317       -4.38232693441165        0.17080027577611
H            4.72718565757733       -2.97809981672262       -0.55510963543912
H            0.12558729265102       -1.15925786251995       -1.51298432221219
H           -0.75693421985803       -1.06988784871498        0.02795683739972
H            0.87386056865991       -1.75830341282952       -0.02826770039895
H           -4.76386209740349        2.88998240479445       -0.28192676111344
H           -4.34556815334800        3.12287751158848        2.71836628947328
H           -5.18501244259026        1.78649970264588        1.91777993148300
H           -5.84446096548418        3.41861907746677        1.83617099620538
H           -3.11122437392690        4.87353611827065        1.32671801829262
H           -3.31479360690238        4.87766805815506       -0.43283923247023
H           -4.68886740257287        5.19546540899568        0.61485479676815
H           -1.30730806297049        3.26891724123044        3.19728698143390
