      -----------------------------------------------------------      
     |                   =====================                   |     
     |                           x T B                           |     
     |                   =====================                   |     
     |                         S. Grimme                         |     
     |          Mulliken Center for Theoretical Chemistry        |     
     |                    University of Bonn                     |     
      -----------------------------------------------------------      

   * xtb version 6.6.1 (8d0f1dd) compiled by 'conda@1efc2f54142f' on 2023-08-01

   xtb is free software: you can redistribute it and/or modify it under
   the terms of the GNU Lesser General Public License as published by
   the Free Software Foundation, either version 3 of the License, or
   (at your option) any later version.
   
   xtb is distributed in the hope that it will be useful,
   but WITHOUT ANY WARRANTY; without even the implied warranty of
   MERCHANTABILITY or FITNESS FOR A PARTICULAR PURPOSE.  See the
   GNU Lesser General Public License for more details.
   
   Cite this work as:
   * C. Bannwarth, E. Caldeweyher, S. Ehlert, A. Hansen, P. Pracht,
     J. Seibert, S. Spicher, S. Grimme, WIREs Comput. Mol. Sci., 2020, 11,
     e01493. DOI: 10.1002/wcms.1493
   
   for GFN2-xTB:
   * C. Bannwarth, S. Ehlert and S. Grimme., J. Chem. Theory Comput., 2019,
     15, 1652-1671. DOI: 10.1021/acs.jctc.8b01176
   for GFN1-xTB:
   * S. Grimme, C. Bannwarth, P. Shushkov, J. Chem. Theory Comput., 2017,
     13, 1989-2009. DOI: 10.1021/acs.jctc.7b00118
   for GFN0-xTB:
   * P. Pracht, E. Caldeweyher, S. Ehlert, S. Grimme, ChemRxiv, 2019, preprint.
     DOI: 10.26434/chemrxiv.8326202.v1
   for GFN-FF:
   * S. Spicher and S. Grimme, Angew. Chem. Int. Ed., 2020, 59, 15665-15673.
     DOI: 10.1002/anie.202004239
   
   for ALPB and GBSA implicit solvation:
   * S. Ehlert, M. Stahn, S. Spicher, S. Grimme, J. Chem. Theory Comput.,
     2021, 17, 4250-4261. DOI: 10.1021/acs.jctc.1c00471
   
   for DFT-D4:
   * E. Caldeweyher, C. Bannwarth and S. Grimme, J. Chem. Phys., 2017,
     147, 034112. DOI: 10.1063/1.4993215
   * E. Caldeweyher, S. Ehlert, A. Hansen, H. Neugebauer, S. Spicher,
     C. Bannwarth and S. Grimme, J. Chem. Phys., 2019, 150, 154122.
     DOI: 10.1063/1.5090222
   * E. Caldeweyher, J.-M. Mewes, S. Ehlert and S. Grimme, Phys. Chem. Chem. Phys.
     2020, 22, 8499-8512. DOI: 10.1039/D0CP00502A
   
   for sTDA-xTB:
   * S. Grimme and C. Bannwarth, J. Chem. Phys., 2016, 145, 054103.
     DOI: 10.1063/1.4959605
   
   in the mass-spec context:
   * V. Asgeirsson, C. Bauer and S. Grimme, Chem. Sci., 2017, 8, 4879.
     DOI: 10.1039/c7sc00601b
   * J. Koopman and S. Grimme, ACS Omega 2019, 4, 12, 15120-15133.
     DOI: 10.1021/acsomega.9b02011
   
   for metadynamics refer to:
   * S. Grimme, J. Chem. Theory Comput., 2019, 155, 2847-2862
     DOI: 10.1021/acs.jctc.9b00143
   
   for SPH calculations refer to:
   * S. Spicher and S. Grimme, J. Chem. Theory Comput., 2021, 17, 1701-1714
     DOI: 10.1021/acs.jctc.0c01306
   
   with help from (in alphabetical order)
   P. Atkinson, C. Bannwarth, F. Bohle, G. Brandenburg, E. Caldeweyher
   M. Checinski, S. Dohm, S. Ehlert, S. Ehrlich, I. Gerasimov, C. Hölzer
   A. Katbashev, J. Koopman, C. Lavigne, S. Lehtola, F. März, M. Müller,
   F. Musil, H. Neugebauer, J. Pisarek, C. Plett, P. Pracht, F. Pultar,
   J. Seibert, P. Shushkov, S. Spicher, M. Stahn, M. Steiner, T. Strunk,
   J. Stückrath, T. Rose, and J. Unsleber
   
 * started run on 2024/04/06 at 11:16:26.703     

           -------------------------------------------------
          |                Calculation Setup                |
           -------------------------------------------------

          program call               : xtb xtbopt.xyz --opt crude --input .xc2 --gfn2
          hostname                   : n-62-30-23
          coordinate file            : xtbopt.xyz
          omp threads                :                     1

   ID    Z sym.   atoms
    1    7 N      1, 17
    2    6 C      2-6, 8, 9, 11-16, 18-23, 25, 26, 28-33
    3    8 O      7, 10, 24, 27
    4    1 H      34-72
########################################################################
[WARNING] Please study the warnings concerning your input carefully
-1- readin_getIntValue: could not parse ''
########################################################################

           -------------------------------------------------
          |                 G F N 2 - x T B                 |
           -------------------------------------------------

        Reference                      10.1021/acs.jctc.8b01176
      * Hamiltonian:
        H0-scaling (s, p, d)           1.850000    2.230000    2.230000
        zeta-weighting                 0.500000
      * Dispersion:
        s8                             2.700000
        a1                             0.520000
        a2                             5.000000
        s9                             5.000000
      * Repulsion:
        kExp                           1.500000    1.000000
        rExp                           1.000000
      * Coulomb:
        alpha                          2.000000
        third order                    shell-resolved
        anisotropic                    true
        a3                             3.000000
        a5                             4.000000
        cn-shift                       1.200000
        cn-exp                         4.000000
        max-rad                        5.000000

q/qsh data taken from xtbrestart
CAMM data taken from xtbrestart

          ...................................................
          :                      SETUP                      :
          :.................................................:
          :  # basis functions                 171          :
          :  # atomic orbitals                 171          :
          :  # shells                          105          :
          :  # electrons                       180          :
          :  max. iterations                   250          :
          :  Hamiltonian                  GFN2-xTB          :
          :  restarted?                       true          :
          :  GBSA solvation                  false          :
          :  PC potential                    false          :
          :  electronic temp.         5000.0000000     K    :
          :  accuracy                    1.0000000          :
          :  -> integral cutoff          0.2500000E+02      :
          :  -> integral neglect         0.1000000E-07      :
          :  -> SCF convergence          0.1000000E-05 Eh   :
          :  -> wf. convergence          0.1000000E-03 e    :
          :  Broyden damping             0.4000000          :
          ...................................................

 iter      E             dE          RMSdq      gap      omega  full diag
   1   -100.6839849 -0.100684E+03  0.250E-05    0.15       0.0  T
   2   -100.6839849  0.209099E-09  0.484E-05    0.15     243.3  T
   3   -100.6839849 -0.247340E-09  0.131E-05    0.15     901.9  T

   *** convergence criteria satisfied after 3 iterations ***

         #    Occupation            Energy/Eh            Energy/eV
      -------------------------------------------------------------
         1        2.0000           -0.8220659             -22.3696
       ...           ...                  ...                  ...
        84        1.9980           -0.5135125             -13.9734
        85        1.9978           -0.5120604             -13.9339
        86        1.9834           -0.4800558             -13.0630
        87        1.9683           -0.4696924             -12.7810
        88        1.9670           -0.4690418             -12.7633
        89        1.8794           -0.4478059             -12.1854
        90        0.9379           -0.4023549             -10.9486 (HOMO)
        91        0.7644           -0.3967228             -10.7954 (LUMO)
        92        0.4774           -0.3859591             -10.5025
        93        0.0241           -0.3345784              -9.1043
        94        0.0058           -0.3117766              -8.4839
        95        0.0035           -0.3038407              -8.2679
       ...           ...                  ...                  ...
       171                          1.9807876              53.9000
      -------------------------------------------------------------
                  HL-Gap            0.0056321 Eh            0.1533 eV
             Fermi-level           -0.4043254 Eh          -11.0023 eV

 SCC (total)                   0 d,  0 h,  0 min,  0.119 sec
 SCC setup                      ...        0 min,  0.001 sec (  0.802%)
 Dispersion                     ...        0 min,  0.002 sec (  1.413%)
 classical contributions        ...        0 min,  0.000 sec (  0.364%)
 integral evaluation            ...        0 min,  0.019 sec ( 15.893%)
 iterations                     ...        0 min,  0.027 sec ( 22.894%)
 molecular gradient             ...        0 min,  0.069 sec ( 58.069%)
 printout                       ...        0 min,  0.001 sec (  0.551%)

         :::::::::::::::::::::::::::::::::::::::::::::::::::::
         ::                     SUMMARY                     ::
         :::::::::::::::::::::::::::::::::::::::::::::::::::::
         :: total energy             -99.034833453417 Eh    ::
         :: gradient norm              1.612129748525 Eh/a0 ::
         :: HOMO-LUMO gap              0.153256542920 eV    ::
         ::.................................................::
         :: SCC energy              -100.683984946810 Eh    ::
         :: -> isotropic ES            0.108119603146 Eh    ::
         :: -> anisotropic ES          0.005572892064 Eh    ::
         :: -> anisotropic XC          0.044140201081 Eh    ::
         :: -> dispersion             -0.074463866527 Eh    ::
         :: repulsion energy           1.647867395124 Eh    ::
         :: add. restraining           0.000000000000 Eh    ::
         :: total charge               1.000000000000 e     ::
         :::::::::::::::::::::::::::::::::::::::::::::::::::::

      ----------------------------------------------------------- 
     |                   =====================                   |
     |                        A N C O P T                        |
     |                   =====================                   |
     |               Approximate Normal Coordinate               |
     |                Rational Function Optimizer                |
      ----------------------------------------------------------- 

          ...................................................
          :                      SETUP                      :
          :.................................................:
          :   optimization level             crude          :
          :   max. optcycles                   200          :
          :   ANC micro-cycles                  20          :
          :   degrees of freedom               210          :
          :.................................................:
          :   RF solver                   davidson          :
          :   write xtbopt.log                true          :
          :   linear?                        false          :
          :   energy convergence         0.5000000E-03 Eh   :
          :   grad. convergence          0.1000000E-01 Eh/α :
          :   maxmium RF displ.          1.0000000          :
          :   Hlow (freq-cutoff)         0.1000000E-01      :
          :   Hmax (freq-cutoff)         5.0000000          :
          :   S6 in model hess.         20.0000000          :
          ...................................................

generating ANC from model Hessian ...
Using Lindh-Hessian (1995)
 Shifting diagonal of input Hessian by    9.9612809597991406E-003
 Lowest  eigenvalues of input Hessian
    0.000000    0.000000    0.000000    0.000000    0.000000    0.000000
    0.010000    0.010007    0.010115    0.010201    0.010277    0.010569
    0.010618    0.010774    0.010944    0.011548    0.011681    0.012571
 Highest eigenvalues
    1.989684    2.047966    2.082836    2.095116    2.182115    2.665747


........................................................................
.............................. CYCLE    1 ..............................
........................................................................

 iter      E             dE          RMSdq      gap      omega  full diag
   1   -100.6839849 -0.100684E+03  0.157E-05    0.15       0.0  T
   2   -100.6839849  0.340250E-09  0.616E-05    0.15     191.2  T
   3   -100.6839849 -0.361098E-09  0.535E-06    0.15    2204.9  T
     SCC iter.                  ...        0 min,  0.026 sec
     gradient                   ...        0 min,  0.069 sec
 * total energy  :   -99.0348335 Eh     change       -0.5826450E-11 Eh
   gradient norm :     1.6121297 Eh/α   predicted     0.0000000E+00 (-100.00%)
   displ. norm   :     0.4977179 α      lambda       -0.7826025E+00
   maximum displ.:     0.4571261 α      in ANC's #210, #142, #205, ...

........................................................................
.............................. CYCLE    2 ..............................
........................................................................

 iter      E             dE          RMSdq      gap      omega  full diag
   1   -100.6726756 -0.100673E+03  0.319E-01    0.21       0.0  T
   2   -100.6671963  0.547928E-02  0.323E-01    0.17       1.0  T
   3   -100.6629828  0.421345E-02  0.375E-01    0.38       1.0  T
   4   -100.6670748 -0.409196E-02  0.262E-01    0.16       1.0  T
   5   -100.6738013 -0.672651E-02  0.700E-02    0.16       1.0  T
   6   -100.6741783 -0.376973E-03  0.223E-02    0.16       1.0  T
   7   -100.6742161 -0.378767E-04  0.683E-03    0.16       1.7  T
   8   -100.6742159  0.266466E-06  0.353E-03    0.16       3.3  T
   9   -100.6742168 -0.969104E-06  0.106E-03    0.16      11.1  T
  10   -100.6742169 -0.427319E-07  0.424E-04    0.16      27.8  T
  11   -100.6742169 -0.806270E-08  0.153E-04    0.16      76.9  T
     SCC iter.                  ...        0 min,  0.088 sec
     gradient                   ...        0 min,  0.069 sec
 * total energy  :   -99.3024806 Eh     change       -0.2676471E+00 Eh
   gradient norm :     0.0445880 Eh/α   predicted    -0.4882354E+00 (  82.42%)
   displ. norm   :     0.1655214 α      lambda       -0.3859293E-02
   maximum displ.:     0.0656726 α      in ANC's #40, #85, #49, ...

........................................................................
.............................. CYCLE    3 ..............................
........................................................................

 iter      E             dE          RMSdq      gap      omega  full diag
   1   -100.6669308 -0.100667E+03  0.847E-02    0.14       0.0  T
   2   -100.6665790  0.351730E-03  0.864E-02    0.19       1.0  T
   3   -100.6665180  0.610063E-04  0.807E-02    0.12       1.0  T
   4   -100.6661870  0.330973E-03  0.906E-02    0.16       1.0  T
   5   -100.6669759 -0.788855E-03  0.191E-02    0.15       1.0  T
   6   -100.6670127 -0.367771E-04  0.303E-03    0.15       3.9  T
   7   -100.6670131 -0.431681E-06  0.145E-03    0.15       8.1  T
   8   -100.6670132 -0.989899E-07  0.488E-04    0.15      24.2  T
   9   -100.6670132 -0.104603E-07  0.249E-04    0.15      47.3  T
     SCC iter.                  ...        0 min,  0.072 sec
     gradient                   ...        0 min,  0.069 sec
 * total energy  :   -99.3049218 Eh     change       -0.2441255E-02 Eh
   gradient norm :     0.0341229 Eh/α   predicted    -0.1753341E-02 ( -28.18%)
   displ. norm   :     0.1571575 α      lambda       -0.3700277E-02
   maximum displ.:     0.0809982 α      in ANC's #40, #14, #49, ...

........................................................................
.............................. CYCLE    4 ..............................
........................................................................

 iter      E             dE          RMSdq      gap      omega  full diag
   1   -100.6611382 -0.100661E+03  0.690E-02    0.14       0.0  T
   2   -100.6609184  0.219787E-03  0.678E-02    0.17       1.0  T
   3   -100.6608340  0.843702E-04  0.670E-02    0.12       1.0  T
   4   -100.6606347  0.199331E-03  0.744E-02    0.16       1.0  T
   5   -100.6611690 -0.534329E-03  0.135E-02    0.15       1.0  T
   6   -100.6611869 -0.178752E-04  0.239E-03    0.15       4.9  T
   7   -100.6611871 -0.227026E-06  0.106E-03    0.15      11.1  T
   8   -100.6611871 -0.456834E-07  0.411E-04    0.15      28.7  T
   9   -100.6611872 -0.105684E-07  0.157E-04    0.15      75.1  T
     SCC iter.                  ...        0 min,  0.073 sec
     gradient                   ...        0 min,  0.069 sec
 * total energy  :   -99.3059851 Eh     change       -0.1063237E-02 Eh
   gradient norm :     0.0237765 Eh/α   predicted    -0.8954831E-03 ( -15.78%)
   displ. norm   :     0.0806519 α      lambda       -0.1140071E-02
   maximum displ.:     0.0409318 α      in ANC's #14, #40, #24, ...

........................................................................
.............................. CYCLE    5 ..............................
........................................................................

 iter      E             dE          RMSdq      gap      omega  full diag
   1   -100.6602125 -0.100660E+03  0.237E-02    0.14       0.0  T
   2   -100.6602097  0.279861E-05  0.152E-02    0.15       1.0  T
   3   -100.6601481  0.616461E-04  0.248E-02    0.14       1.0  T
   4   -100.6602021 -0.540091E-04  0.114E-02    0.14       1.0  T
   5   -100.6602117 -0.961836E-05  0.523E-03    0.15       2.3  T
   6   -100.6602143 -0.253196E-05  0.619E-04    0.15      19.1  T
   7   -100.6602143 -0.176816E-07  0.297E-04    0.15      39.6  T
   8   -100.6602143 -0.224541E-08  0.125E-04    0.15      93.9  T
     SCC iter.                  ...        0 min,  0.065 sec
     gradient                   ...        0 min,  0.070 sec
 * total energy  :   -99.3062638 Eh     change       -0.2787846E-03 Eh
   gradient norm :     0.0158787 Eh/α   predicted    -0.1880393E-03 ( -32.55%)
   displ. norm   :     0.0967702 α      lambda       -0.1583130E-02
   maximum displ.:     0.0514385 α      in ANC's #14, #24, #40, ...

........................................................................
.............................. CYCLE    6 ..............................
........................................................................

 iter      E             dE          RMSdq      gap      omega  full diag
   1   -100.6603466 -0.100660E+03  0.250E-02    0.15       0.0  T
   2   -100.6603276  0.189486E-04  0.214E-02    0.14       1.0  T
   3   -100.6602304  0.972163E-04  0.375E-02    0.16       1.0  T
   4   -100.6603324 -0.101996E-03  0.127E-02    0.15       1.0  T
   5   -100.6603478 -0.153214E-04  0.458E-03    0.15       2.6  T
   6   -100.6603499 -0.211676E-05  0.109E-03    0.15      10.8  T
   7   -100.6603500 -0.103853E-06  0.318E-04    0.15      37.0  T
   8   -100.6603500 -0.222676E-08  0.152E-04    0.15      77.7  T
     SCC iter.                  ...        0 min,  0.065 sec
     gradient                   ...        0 min,  0.069 sec
 * total energy  :   -99.3064618 Eh     change       -0.1979181E-03 Eh
   gradient norm :     0.0055103 Eh/α   predicted    -0.1592098E-03 ( -19.56%)
   displ. norm   :     0.0463457 α      lambda       -0.3859820E-03
   maximum displ.:     0.0192428 α      in ANC's #14, #24, #7, ...

   *** GEOMETRY OPTIMIZATION CONVERGED AFTER 6 ITERATIONS ***

------------------------------------------------------------------------
 total energy gain   :        -0.2716283 Eh     -170.4493 kcal/mol
 total RMSD          :         0.0864939 a0        0.0458 Å
 total power (kW/mol):      -118.8600047 (step) -710.2227 (real)
------------------------------------------------------------------------

 ANCopt (total)                0 d,  0 h,  0 min,  1.004 sec
 optimizer setup                ...        0 min,  0.000 sec (  0.021%)
 model hessian                  ...        0 min,  0.052 sec (  5.201%)
 ANC generation                 ...        0 min,  0.006 sec (  0.626%)
 coordinate transformation      ...        0 min,  0.000 sec (  0.039%)
 single point calculation       ...        0 min,  0.935 sec ( 93.129%)
 optimization log               ...        0 min,  0.003 sec (  0.312%)
 hessian update                 ...        0 min,  0.000 sec (  0.033%)
 rational function              ...        0 min,  0.004 sec (  0.430%)

================
 final structure:
================
72
 xtb: 6.6.1 (8d0f1dd)
N           -1.88839502228448        3.03655662543650        2.20049624976224
C           -1.84307421246524        2.21546309886760        1.25690817053824
C           -2.96470574379599        1.99498516552663        0.27828691291901
C           -3.46818756656755        0.56063864505599        0.39470620557759
C           -4.27953006082776        0.03640481711274       -0.64003993133592
C           -4.82076957913869       -1.24648593889987       -0.55820058254703
O           -5.59836336261135       -1.81542261263077       -1.51517506835243
C           -5.96591533959092       -1.05519252358710       -2.64183852525939
C           -4.58051020903619       -2.04596467586219        0.55980585177157
O           -5.15072525363204       -3.26334978263212        0.56910221700353
C           -5.02712943318467       -4.08983392016714        1.70156945211983
C           -3.73936268921200       -1.56415199804037        1.69294948943551
C           -3.19723588439829       -0.18968421448299        1.49019922942624
C           -2.37582873782310        2.28380052952068       -1.12458892061246
C           -1.45429597564252        1.17991567590331       -1.67216612014568
C           -0.13210856898337        1.13276445102265       -1.01011568859575
N            0.49219853543219        0.02437270945834       -0.60907836554416
C            1.88181031351069        0.07306812037616       -0.22366650458211
C            2.81410782475438       -0.35159125117451       -1.37573344258970
C            4.24580299051692       -0.14629755209825       -0.96834422775733
C            4.86620516927363        1.07443888835327       -1.17252571466451
C            6.17276430086524        1.28484338424680       -0.75878927070217
C            6.88364019072867        0.27612799990169       -0.12631807525857
O            8.15140661500069        0.37055352298586        0.32221827059159
C            8.84850657020456        1.58275074245201        0.15188856517585
C            6.25672381340582       -0.98155747520985        0.08429642990025
O            7.02232244137535       -1.90856288160372        0.69872864247770
C            6.49731976852225       -3.19485896794349        0.92059281647432
C            4.94972120489018       -1.16821768005349       -0.33519357920593
C           -0.13722119663479       -1.27148347462851       -0.67635018371945
C           -4.20282939580646        2.90379550234816        0.53318727865509
C           -4.81905905355933        2.63347311776346        1.84200919397869
C           -3.88273066799742        4.41258268010478        0.42781429182897
H           -4.50464371248432        0.64713791856777       -1.49553318876703
H           -6.52468286944462       -0.15804914252377       -2.35813064629860
H           -6.60888623651498       -1.70536273288222       -3.23195802068140
H           -5.09474561166081       -0.77166363301074       -3.24169058347968
H           -5.46109785976551       -3.62269117554337        2.59061971132013
H           -5.58238651923509       -4.99573376198363        1.46598079194052
H           -3.98330460044901       -4.34836783229518        1.90424730927840
H           -2.90126259846446       -2.26740950995418        1.84675943556687
H           -2.60055338134116        0.19990341819350        2.30014198511901
H           -3.19496194872205        2.42394500381085       -1.82976557421969
H           -1.81889123270258        3.22075496634674       -1.08020253759021
H           -1.96361937659930        0.21921459092869       -1.62051013796758
H           -1.28502578478060        1.40906088809994       -2.73289468709442
H           -0.96073705094399        1.59725194435164        1.01539100348385
H            0.43243650148618        2.05025260549775       -0.95003949561999
H            2.04173123571644       -0.58393956048185        0.63534744995888
H            2.13555867415220        1.09229958008126        0.07480117770908
H            2.58515509351432        0.25794308654997       -2.25168647674978
H            2.63595696212291       -1.39811864958059       -1.62562539170343
H            4.33665547326697        1.87366962284344       -1.66878949074225
H            6.63089746661385        2.24343119891491       -0.93867598677963
H            8.35095164706985        2.40775245981190        0.67119052516811
H            8.96386423588855        1.83375602639805       -0.90692795960172
H            9.83006255985923        1.41932316510932        0.59260794670510
H            7.29567166336327       -3.75736361587543        1.40083211324819
H            5.62726453957547       -3.16507005793482        1.58486508466964
H            6.22429152940386       -3.68529978863104       -0.01915282056812
H            4.46584245497473       -2.12054795797596       -0.18402169726942
H           -0.27135814409733       -1.59830737771343       -1.71052930667879
H           -1.11432835785964       -1.24202551865465       -0.18901395694113
H            0.48708092734988       -1.99861261876702       -0.16259081484848
H           -4.93580006197737        2.68207322593506       -0.25262438405984
H           -4.20847000618788        2.42285732101419        2.69577680614208
H           -4.30727339916591       -1.59597194000933        2.63166811158105
H           -5.86079746980475        2.84355056814000        1.99021630690258
H           -3.10665228536518        4.67272917592265        1.13923909978636
H           -3.56684351957932        4.67289056699451       -0.57836769372352
H           -4.77668455214939        4.98329709864532        0.66364668691896
H           -1.05845057335125        3.12169923674306        2.78002908172250

 Bond Distances (Angstroems)
 ---------------------------
N1-C2=1.2516         N1-H72=1.0158        C2-N1=1.2516         C2-C3=1.5048         C2-H47=1.1041        C3-C2=1.5048         
C3-C4=1.5246         C3-C14=1.5486        C3-C31=1.5569        C4-C3=1.5246         C4-C5=1.4156         C4-C13=1.3552        
C5-C4=1.4156         C5-C6=1.3948         C5-H34=1.0750        C6-C5=1.3948         C6-O7=1.3580         C6-C9=1.3953         
O7-C6=1.3580         O7-C8=1.4080         C8-O7=1.4080         C8-H35=1.0943        C8-H36=1.0883        C8-H37=1.0951        
C9-C6=1.3953         C9-O10=1.3443        C9-C12=1.4912        O10-C9=1.3443        O10-C11=1.4074       C11-O10=1.4074       
C11-H38=1.0941       C11-H39=1.0883       C11-H40=1.0943       C12-C9=1.4912        C12-C13=1.4914       C12-H41=1.1048       
C12-H67=1.0976       C13-C4=1.3552        C13-C12=1.4914       C13-H42=1.0788       C14-C3=1.5486        C14-C15=1.5387       
C14-H43=1.0899       C14-H44=1.0909       C15-C14=1.5387       C15-C16=1.4794       C15-H45=1.0886       C15-H46=1.0983       
C16-C15=1.4794       C16-N17=1.3338       C16-H48=1.0789       N17-C16=1.3338       N17-C18=1.4429       N17-C30=1.4422       
C18-N17=1.4429       C18-C19=1.5417       C18-H49=1.0932       C18-H50=1.0919       C19-C18=1.5417       C19-C20=1.5026       
C19-H51=1.0914       C19-H52=1.0906       C20-C19=1.5026       C20-C21=1.3845       C20-C29=1.3931       C21-C20=1.3845       
C21-C22=1.3866       C21-H53=1.0796       C22-C21=1.3866       C22-C23=1.3867       C22-H54=1.0776       C23-C22=1.3867       
C23-O24=1.3481       C23-C26=1.4210       O24-C23=1.3481       O24-C25=1.4087       C25-O24=1.4087       C25-H55=1.0945       
C25-H56=1.0943       C25-H57=1.0883       C26-C23=1.4210       C26-O27=1.3502       C26-C29=1.3853       O27-C26=1.3502       
O27-C28=1.4069       C28-O27=1.4069       C28-H58=1.0883       C28-H59=1.0951       C28-H60=1.0946       C29-C20=1.3931       
C29-C26=1.3853       C29-H61=1.0789       C30-N17=1.4422       C30-H62=1.0929       C30-H63=1.0923       C30-H64=1.0874       
C31-C3=1.5569        C31-C32=1.4717       C31-C33=1.5460       C31-H65=1.0972       C32-C31=1.4717       C32-H66=1.0706       
C32-H68=1.0730       C33-C31=1.5460       C33-H69=1.0845       C33-H70=1.0863       C33-H71=1.0865       H34-C5=1.0750        
H35-C8=1.0943        H36-C8=1.0883        H37-C8=1.0951        H38-C11=1.0941       H39-C11=1.0883       H40-C11=1.0943       
H41-C12=1.1048       H42-C13=1.0788       H43-C14=1.0899       H44-C14=1.0909       H45-C15=1.0886       H46-C15=1.0983       
H47-C2=1.1041        H48-C16=1.0789       H49-C18=1.0932       H50-C18=1.0919       H51-C19=1.0914       H52-C19=1.0906       
H53-C21=1.0796       H54-C22=1.0776       H55-C25=1.0945       H56-C25=1.0943       H57-C25=1.0883       H58-C28=1.0883       
H59-C28=1.0951       H60-C28=1.0946       H61-C29=1.0789       H62-C30=1.0929       H63-C30=1.0923       H64-C30=1.0874       
H65-C31=1.0972       H66-C32=1.0706       H67-C12=1.0976       H68-C32=1.0730       H69-C33=1.0845       H70-C33=1.0863       
H71-C33=1.0865       H72-N1=1.0158        
 C  H  Rav=1.0892 sigma=0.0079  Rmin=1.0706  Rmax=1.1048    38
 C  C  Rav=1.4598 sigma=0.0665  Rmin=1.3552  Rmax=1.5569    22
 N  H  Rav=1.0158 sigma=0.0000  Rmin=1.0158  Rmax=1.0158     1
 N  C  Rav=1.3676 sigma=0.0803  Rmin=1.2516  Rmax=1.4429     4
 O  C  Rav=1.3790 sigma=0.0290  Rmin=1.3443  Rmax=1.4087     8

 selected bond angles (degree)
 --------------------
H72-N1-C2=117.10               C3-C2-N1=124.01                H47-C2-N1=124.14               H47-C2-C3=111.80               
C4-C3-C2=109.53                C14-C3-C2=106.16               C14-C3-C4=111.73               C31-C3-C2=113.63               
C31-C3-C4=105.91               C31-C3-C14=109.99              C5-C4-C3=118.81                C13-C4-C3=121.10               
C13-C4-C5=120.03               C6-C5-C4=121.34                H34-C5-C4=119.43               H34-C5-C6=119.21               
O7-C6-C5=124.48                C9-C6-C5=120.48                C9-C6-O7=115.04                C8-O7-C6=119.15                
H35-C8-O7=111.62               H36-C8-O7=105.40               H36-C8-H35=109.19              H37-C8-O7=111.74               
H37-C8-H35=109.63              H37-C8-H36=109.13              O10-C9-C6=116.83               C12-C9-C6=121.39               
C12-C9-O10=121.78              C11-O10-C9=120.01              

 selected dihedral angles (degree)
 ---------------------------------
C3-C2-N1-H72=181.97           H47-C2-N1-H72=359.22          C4-C3-C2-N1=242.51            C4-C3-C2-H47= 64.96           
C14-C3-C2-N1=121.72           C14-C3-C2-H47=304.18          C31-C3-C2-N1=  0.71           C31-C3-C2-H47=183.16          
C5-C4-C3-C2=195.50            C5-C4-C3-C14=312.85           C5-C4-C3-C31= 72.60           C13-C4-C3-C2= 18.25           
C13-C4-C3-C14=135.60          C13-C4-C3-C31=255.35          C6-C5-C4-C3=183.06            C6-C5-C4-C13=  0.34           
H34-C5-C4-C3=  1.49           H34-C5-C4-C13=178.77          O7-C6-C5-C4=180.47            O7-C6-C5-H34=  2.04           
C9-C6-C5-C4=  0.46            C9-C6-C5-H34=182.03           C8-O7-C6-C5=356.01            C8-O7-C6-C9=176.02            
H35-C8-O7-C6=300.60           H36-C8-O7-C6=182.18           H37-C8-O7-C6= 63.77           O10-C9-C6-C5=179.24           
O10-C9-C6-O7=359.23           C12-C9-C6-C5=359.71           C12-C9-C6-O7=179.71           C11-O10-C9-C6=184.26          
C11-O10-C9-C12=  3.78         
           -------------------------------------------------
          |                Final Singlepoint                |
           -------------------------------------------------

          ...................................................
          :                      SETUP                      :
          :.................................................:
          :  # basis functions                 171          :
          :  # atomic orbitals                 171          :
          :  # shells                          105          :
          :  # electrons                       180          :
          :  max. iterations                   250          :
          :  Hamiltonian                  GFN2-xTB          :
          :  restarted?                      false          :
          :  GBSA solvation                  false          :
          :  PC potential                    false          :
          :  electronic temp.         5000.0000000     K    :
          :  accuracy                    1.0000000          :
          :  -> integral cutoff          0.2500000E+02      :
          :  -> integral neglect         0.1000000E-07      :
          :  -> SCF convergence          0.1000000E-05 Eh   :
          :  -> wf. convergence          0.1000000E-03 e    :
          :  Broyden damping             0.4000000          :
          ...................................................

 iter      E             dE          RMSdq      gap      omega  full diag
   1   -100.6603500 -0.100660E+03  0.615E-05    0.15       0.0  T
   2   -100.6603500 -0.165130E-10  0.453E-05    0.15     259.9  T
   3   -100.6603500 -0.979554E-10  0.285E-05    0.15     413.3  T

   *** convergence criteria satisfied after 3 iterations ***

         #    Occupation            Energy/Eh            Energy/eV
      -------------------------------------------------------------
         1        2.0000           -0.8211690             -22.3451
       ...           ...                  ...                  ...
        84        1.9980           -0.5132969             -13.9675
        85        1.9978           -0.5119158             -13.9299
        86        1.9835           -0.4799065             -13.0589
        87        1.9682           -0.4693748             -12.7723
        88        1.9666           -0.4686209             -12.7518
        89        1.8799           -0.4476248             -12.1805
        90        0.9336           -0.4019611             -10.9379 (HOMO)
        91        0.7686           -0.3966048             -10.7922 (LUMO)
        92        0.4772           -0.3856937             -10.4953
        93        0.0242           -0.3343570              -9.0983
        94        0.0057           -0.3112035              -8.4683
        95        0.0035           -0.3036477              -8.2627
       ...           ...                  ...                  ...
       171                          0.5858115              15.9407
      -------------------------------------------------------------
                  HL-Gap            0.0053563 Eh            0.1458 eV
             Fermi-level           -0.4040673 Eh          -10.9952 eV

 SCC (total)                   0 d,  0 h,  0 min,  0.118 sec
 SCC setup                      ...        0 min,  0.001 sec (  0.737%)
 Dispersion                     ...        0 min,  0.002 sec (  1.344%)
 classical contributions        ...        0 min,  0.000 sec (  0.364%)
 integral evaluation            ...        0 min,  0.018 sec ( 15.145%)
 iterations                     ...        0 min,  0.026 sec ( 21.886%)
 molecular gradient             ...        0 min,  0.071 sec ( 60.037%)
 printout                       ...        0 min,  0.001 sec (  0.474%)

         :::::::::::::::::::::::::::::::::::::::::::::::::::::
         ::                     SUMMARY                     ::
         :::::::::::::::::::::::::::::::::::::::::::::::::::::
         :: total energy             -99.306461764124 Eh    ::
         :: gradient norm              0.005510194837 Eh/a0 ::
         :: HOMO-LUMO gap              0.145752589958 eV    ::
         ::.................................................::
         :: SCC energy              -100.660349974912 Eh    ::
         :: -> isotropic ES            0.107884372806 Eh    ::
         :: -> anisotropic ES          0.005984607478 Eh    ::
         :: -> anisotropic XC          0.045226858553 Eh    ::
         :: -> dispersion             -0.074533918260 Eh    ::
         :: repulsion energy           1.352612535259 Eh    ::
         :: add. restraining           0.000000000000 Eh    ::
         :: total charge               1.000000000000 e     ::
         :::::::::::::::::::::::::::::::::::::::::::::::::::::

           -------------------------------------------------
          |                Property Printout                |
           -------------------------------------------------

    * Orbital Energies and Occupations

         #    Occupation            Energy/Eh            Energy/eV
      -------------------------------------------------------------
         1        2.0000           -0.8211690             -22.3451
       ...           ...                  ...                  ...
        78        1.9993           -0.5301964             -14.4274
        79        1.9993           -0.5296183             -14.4116
        80        1.9990           -0.5244730             -14.2716
        81        1.9990           -0.5239604             -14.2577
        82        1.9987           -0.5207839             -14.1712
        83        1.9985           -0.5180154             -14.0959
        84        1.9980           -0.5132969             -13.9675
        85        1.9978           -0.5119158             -13.9299
        86        1.9835           -0.4799065             -13.0589
        87        1.9682           -0.4693748             -12.7723
        88        1.9666           -0.4686209             -12.7518
        89        1.8799           -0.4476248             -12.1805
        90        0.9336           -0.4019611             -10.9379 (HOMO)
        91        0.7686           -0.3966048             -10.7922 (LUMO)
        92        0.4772           -0.3856937             -10.4953
        93        0.0242           -0.3343570              -9.0983
        94        0.0057           -0.3112035              -8.4683
        95        0.0035           -0.3036477              -8.2627
        96        0.0030           -0.3011725              -8.1953
        97        0.0000           -0.2283076              -6.2126
        98        0.0000           -0.1785150              -4.8576
        99                         -0.1270708              -3.4578
       100                         -0.0813052              -2.2124
       101                         -0.0672966              -1.8312
       ...                                ...                  ...
       171                          0.5858115              15.9407
      -------------------------------------------------------------
                  HL-Gap            0.0053563 Eh            0.1458 eV
             Fermi-level           -0.4040673 Eh          -10.9952 eV

     #   Z          covCN         q      C6AA      α(0)
     1   7 N        1.774    -0.284    28.173     7.860
     2   6 C        2.826     0.097    25.842     8.330
     3   6 C        3.910     0.005    20.430     6.424
     4   6 C        2.963     0.006    27.896     8.663
     5   6 C        2.918    -0.092    30.310     9.028
     6   6 C        2.847     0.124    25.277     8.240
     7   8 O        1.706    -0.246    18.074     5.740
     8   6 C        3.643     0.030    20.411     6.495
     9   6 C        2.851     0.116    25.443     8.267
    10   8 O        1.706    -0.206    17.430     5.637
    11   6 C        3.644     0.022    20.540     6.515
    12   6 C        3.808    -0.068    21.798     6.646
    13   6 C        2.908    -0.070    29.741     8.942
    14   6 C        3.811    -0.064    21.720     6.634
    15   6 C        3.802    -0.068    21.798     6.647
    16   6 C        2.843    -0.003    28.104     8.688
    17   7 N        2.729     0.001    21.242     6.845
    18   6 C        3.756    -0.015    20.897     6.518
    19   6 C        3.808    -0.070    21.830     6.651
    20   6 C        2.970    -0.002    28.080     8.692
    21   6 C        2.922    -0.051    29.254     8.870
    22   6 C        2.914    -0.069    29.712     8.938
    23   6 C        2.865     0.131    25.121     8.216
    24   8 O        1.706    -0.228    17.773     5.692
    25   6 C        3.645     0.027    20.457     6.500
    26   6 C        2.863     0.131    25.128     8.217
    27   8 O        1.706    -0.230    17.814     5.699
    28   6 C        3.645     0.029    20.421     6.495
    29   6 C        2.920    -0.080    30.009     8.983
    30   6 C        3.699    -0.066    21.932     6.698
    31   6 C        3.857    -0.001    20.555     6.448
    32   6 C        2.842    -0.091    30.271     9.017
    33   6 C        3.756    -0.114    22.731     6.798
    34   1 H        0.926     0.052     2.301     2.372
    35   1 H        0.924     0.050     2.317     2.381
    36   1 H        0.925     0.079     1.988     2.205
    37   1 H        0.924     0.044     2.393     2.419
    38   1 H        0.924     0.060     2.195     2.317
    39   1 H        0.925     0.088     1.895     2.153
    40   1 H        0.924     0.055     2.260     2.351
    41   1 H        0.922     0.068     2.104     2.268
    42   1 H        0.926     0.040     2.452     2.449
    43   1 H        0.925     0.057     2.233     2.337
    44   1 H        0.924     0.054     2.277     2.360
    45   1 H        0.925     0.065     2.146     2.291
    46   1 H        0.923     0.075     2.036     2.231
    47   1 H        0.923     0.002     3.016     2.716
    48   1 H        0.926     0.064     2.158     2.297
    49   1 H        0.924     0.063     2.160     2.299
    50   1 H        0.924     0.066     2.129     2.282
    51   1 H        0.924     0.053     2.283     2.363
    52   1 H        0.924     0.053     2.285     2.364
    53   1 H        0.926     0.042     2.422     2.433
    54   1 H        0.926     0.056     2.252     2.347
    55   1 H        0.924     0.051     2.304     2.374
    56   1 H        0.924     0.053     2.278     2.360
    57   1 H        0.925     0.080     1.982     2.202
    58   1 H        0.925     0.079     1.987     2.205
    59   1 H        0.924     0.046     2.374     2.410
    60   1 H        0.924     0.050     2.320     2.382
    61   1 H        0.926     0.044     2.391     2.418
    62   1 H        0.924     0.073     2.056     2.242
    63   1 H        0.924     0.073     2.053     2.241
    64   1 H        0.925     0.076     2.021     2.223
    65   1 H        0.924     0.051     2.303     2.373
    66   1 H        0.926     0.067     2.118     2.276
    67   1 H        0.924     0.081     1.964     2.192
    68   1 H        0.926     0.057     2.231     2.336
    69   1 H        0.925     0.071     2.075     2.253
    70   1 H        0.925     0.048     2.349     2.397
    71   1 H        0.925     0.057     2.231     2.336
    72   1 H        0.860     0.153     1.381     1.841

 Mol. C6AA /au·bohr⁶  :      47425.977552
 Mol. C8AA /au·bohr⁸  :    1081746.552047
 Mol. α(0) /au        :        334.324029


Wiberg/Mayer (AO) data.
largest (>0.10) Wiberg bond orders for each atom

 ---------------------------------------------------------------------------
     #   Z sym  total        # sym  WBO       # sym  WBO       # sym  WBO
 ---------------------------------------------------------------------------
     1   7 N    3.021 --     2 C    1.946    72 H    0.945
     2   6 C    3.926 --     1 N    1.946     3 C    0.995    47 H    0.915
     3   6 C    3.975 --     2 C    0.995     4 C    0.965    14 C    0.961
                            31 C    0.940
     4   6 C    3.976 --    13 C    1.622     5 C    1.252     3 C    0.965
     5   6 C    3.716 --     6 C    1.339     4 C    1.252    34 H    0.960
     6   6 C    3.905 --     5 C    1.339     9 C    1.331     7 O    1.075
     7   8 O    2.234 --     6 C    1.075     8 C    0.980
     8   6 C    3.935 --     7 O    0.980    36 H    0.977    37 H    0.975
                            35 H    0.975
     9   6 C    3.652 --     6 C    1.331    10 O    1.133    12 C    1.032
    10   8 O    2.249 --     9 C    1.133    11 C    0.977
    11   6 C    3.926 --    10 O    0.977    39 H    0.976    40 H    0.970
                            38 H    0.969
    12   6 C    3.983 --    13 C    1.038     9 C    1.032    41 H    0.920
                            67 H    0.919
    13   6 C    3.780 --     4 C    1.622    12 C    1.038    42 H    0.963
    14   6 C    3.973 --    15 C    0.983    44 H    0.972    43 H    0.968
                             3 C    0.961
    15   6 C    3.986 --    16 C    1.058    14 C    0.983    45 H    0.960
                            46 H    0.930
    16   6 C    3.530 --    17 N    1.369    15 C    1.058    48 H    0.959
    17   7 N    3.441 --    16 C    1.369    30 C    1.001    18 C    0.990
    18   6 C    3.957 --    17 N    0.990    50 H    0.968    19 C    0.966
                            49 H    0.965
    19   6 C    3.975 --    20 C    1.008    52 H    0.973    51 H    0.972
                            18 C    0.966
    20   6 C    3.952 --    21 C    1.415    29 C    1.377    19 C    1.008
    21   6 C    3.957 --    20 C    1.415    22 C    1.414    53 H    0.968
    22   6 C    3.964 --    21 C    1.414    23 C    1.388    54 H    0.964
    23   6 C    3.903 --    22 C    1.388    26 C    1.226    24 O    1.103
    24   8 O    2.254 --    23 C    1.103    25 C    0.978
    25   6 C    3.932 --    24 O    0.978    57 H    0.977    55 H    0.974
                            56 H    0.973
    26   6 C    3.906 --    29 C    1.400    23 C    1.226    27 O    1.096
    27   8 O    2.253 --    26 C    1.096    28 C    0.980
    28   6 C    3.935 --    27 O    0.980    58 H    0.977    59 H    0.974
                            60 H    0.974
    29   6 C    3.963 --    26 C    1.400    20 C    1.377    61 H    0.963
    30   6 C    3.962 --    17 N    1.001    64 H    0.978    62 H    0.967
                            63 H    0.967
    31   6 C    3.976 --    32 C    1.090    65 H    0.948    33 C    0.942
                             3 C    0.940
    32   6 C    3.102 --    31 C    1.090    68 H    0.981    66 H    0.977
    33   6 C    3.919 --    71 H    0.983    69 H    0.977    70 H    0.977
                            31 C    0.942
    34   1 H    0.996 --     5 C    0.960
    35   1 H    0.995 --     8 C    0.975
    36   1 H    0.993 --     8 C    0.977
    37   1 H    0.996 --     8 C    0.975
    38   1 H    0.989 --    11 C    0.969
    39   1 H    0.992 --    11 C    0.976
    40   1 H    0.991 --    11 C    0.970
    41   1 H    0.954 --    12 C    0.920
    42   1 H    0.998 --    13 C    0.963
    43   1 H    0.995 --    14 C    0.968
    44   1 H    0.996 --    14 C    0.972
    45   1 H    0.995 --    15 C    0.960
    46   1 H    0.968 --    15 C    0.930
    47   1 H    0.992 --     2 C    0.915
    48   1 H    0.996 --    16 C    0.959
    49   1 H    0.991 --    18 C    0.965
    50   1 H    0.994 --    18 C    0.968
    51   1 H    0.996 --    19 C    0.972
    52   1 H    0.996 --    19 C    0.973
    53   1 H    0.998 --    21 C    0.968
    54   1 H    0.995 --    22 C    0.964
    55   1 H    0.993 --    25 C    0.974
    56   1 H    0.993 --    25 C    0.973
    57   1 H    0.993 --    25 C    0.977
    58   1 H    0.993 --    28 C    0.977
    59   1 H    0.994 --    28 C    0.974
    60   1 H    0.994 --    28 C    0.974
    61   1 H    0.997 --    29 C    0.963
    62   1 H    0.984 --    30 C    0.967
    63   1 H    0.988 --    30 C    0.967
    64   1 H    0.994 --    30 C    0.978
    65   1 H    0.982 --    31 C    0.948
    66   1 H    0.994 --    32 C    0.977
    67   1 H    0.953 --    12 C    0.919
    68   1 H    0.995 --    32 C    0.981
    69   1 H    0.994 --    33 C    0.977
    70   1 H    0.990 --    33 C    0.977
    71   1 H    0.995 --    33 C    0.983
    72   1 H    0.973 --     1 N    0.945
 ---------------------------------------------------------------------------

Topologies differ in total number of bonds
Writing topology from bond orders to xtbtopo.mol

molecular dipole:
                 x           y           z       tot (Debye)
 q only:       -0.707      -0.296      -0.247
   full:       -0.453      -0.390      -0.297       1.695
molecular quadrupole (traceless):
                xx          xy          yy          xz          yz          zz
 q only:       46.222       7.929     -12.050      -2.116     -14.101     -34.172
  q+dip:       40.941      11.090     -12.160      -1.377     -17.968     -28.780
   full:       40.343      11.222     -11.990      -3.380     -17.582     -28.353

           -------------------------------------------------
          |                Geometry Summary                 |
           -------------------------------------------------

      molecular mass/u    :      455.6105846
   center of mass at/Å    :       -0.0093170       0.0494013      -0.0021554
  moments of inertia/u·Å² :        0.2487656E+04   0.1104564E+05   0.1226484E+05
rotational constants/cm⁻¹ :        0.6776512E-02   0.1526179E-02   0.1374468E-02

 * 63 selected distances

     #   Z          #   Z                                           value/Å
     1   7 N        2   6 C                                       1.2516418
     4   6 C        5   6 C                                       1.4155556
     5   6 C        6   6 C                                       1.3947928
     6   6 C        7   8 O                                       1.3579917
     7   8 O        8   6 C                                       1.4079827
     6   6 C        9   6 C                                       1.3952883
     9   6 C       10   8 O                                       1.3443431
    10   8 O       11   6 C                                       1.4074212
     4   6 C       13   6 C                                       1.3551769
    14   6 C       15   6 C                                       1.5387091
    15   6 C       16   6 C                                       1.4794303
    16   6 C       17   7 N                                       1.3338377
    17   7 N       18   6 C                                       1.4428911
    18   6 C       19   6 C                                       1.5416786 (max)
    20   6 C       21   6 C                                       1.3844807
    21   6 C       22   6 C                                       1.3865587
    22   6 C       23   6 C                                       1.3866764
    23   6 C       24   8 O                                       1.3480850
    24   8 O       25   6 C                                       1.4086813
    23   6 C       26   6 C                                       1.4209700
    26   6 C       27   8 O                                       1.3501880
    27   8 O       28   6 C                                       1.4069149
    20   6 C       29   6 C                                       1.3930907
    26   6 C       29   6 C                                       1.3853050
    17   7 N       30   6 C                                       1.4421991
    31   6 C       32   6 C                                       1.4716754
     5   6 C       34   1 H                                       1.0749605
     8   6 C       35   1 H                                       1.0943390
     8   6 C       36   1 H                                       1.0882895
     8   6 C       37   1 H                                       1.0950562
    11   6 C       38   1 H                                       1.0940574
    11   6 C       39   1 H                                       1.0883323
    11   6 C       40   1 H                                       1.0942982
    12   6 C       41   1 H                                       1.1048261
    13   6 C       42   1 H                                       1.0788030
    14   6 C       43   1 H                                       1.0899055
    14   6 C       44   1 H                                       1.0908865
    15   6 C       45   1 H                                       1.0885887
    15   6 C       46   1 H                                       1.0983193
    16   6 C       48   1 H                                       1.0789370
    18   6 C       49   1 H                                       1.0932241
    18   6 C       50   1 H                                       1.0919268
    19   6 C       51   1 H                                       1.0914419
    19   6 C       52   1 H                                       1.0905978
    21   6 C       53   1 H                                       1.0795696
    22   6 C       54   1 H                                       1.0775602
    25   6 C       55   1 H                                       1.0944695
    25   6 C       56   1 H                                       1.0942594
    25   6 C       57   1 H                                       1.0882989
    28   6 C       58   1 H                                       1.0883048
    28   6 C       59   1 H                                       1.0950531
    28   6 C       60   1 H                                       1.0946226
    29   6 C       61   1 H                                       1.0788534
    30   6 C       62   1 H                                       1.0928556
    30   6 C       63   1 H                                       1.0922925
    30   6 C       64   1 H                                       1.0873908
    31   6 C       65   1 H                                       1.0972269
    32   6 C       66   1 H                                       1.0705594 (min)
    12   6 C       67   1 H                                       1.0976010
    32   6 C       68   1 H                                       1.0729944
    33   6 C       69   1 H                                       1.0844811
    33   6 C       70   1 H                                       1.0862538
    33   6 C       71   1 H                                       1.0865016

 * 4 distinct bonds (by element types)

   Z      Z             #   av. dist./Å        max./Å        min./Å
   1 H    6 C          37     1.0888092     1.1048261     1.0705594
   6 C    6 C          14     1.4249563     1.5416786     1.3551769
   6 C    7 N           4     1.3676424     1.4428911     1.2516418
   6 C    8 O           8     1.3789510     1.4086813     1.3443431


optimized geometry written to: xtbopt.xyz


           -------------------------------------------------
          | TOTAL ENERGY              -99.306461764124 Eh   |
          | GRADIENT NORM               0.005510194837 Eh/α |
          | HOMO-LUMO GAP               0.145752589958 eV   |
           -------------------------------------------------

------------------------------------------------------------------------
 * finished run on 2024/04/06 at 11:16:28.001     
------------------------------------------------------------------------
 total:
 * wall-time:     0 d,  0 h,  0 min,  1.298 sec
 *  cpu-time:     0 d,  0 h,  0 min,  1.264 sec
 * ratio c/w:     0.974 speedup
 SCF:
 * wall-time:     0 d,  0 h,  0 min,  0.120 sec
 *  cpu-time:     0 d,  0 h,  0 min,  0.119 sec
 * ratio c/w:     0.994 speedup
 ANC optimizer:
 * wall-time:     0 d,  0 h,  0 min,  1.130 sec
 *  cpu-time:     0 d,  0 h,  0 min,  1.120 sec
 * ratio c/w:     0.991 speedup

