25
 energy: -40.417300320749 gnorm: 8.792619804439 xtb: 6.6.1 (8d0f1dd)
C            3.12699761664992        1.18436627261266        0.22661727777308
N            2.14476464038194        0.13987771766316        0.10428549740603
C            2.37708689422073       -1.12488959744137       -0.21724891927363
N            1.21183852631486       -1.79564379628528       -0.23566454974784
C            0.20576024731093       -0.92220150058944        0.08786812715688
C            0.80364128474361        0.29851312216144        0.31956151887738
C            0.07606314288211        1.61673412922939        0.77938693033568
O            0.45408257496657        2.63166144111344        0.15022645904543
N           -1.59175968408200        1.03226852931197       -0.12331217890527
C           -2.21083827997684        1.98342319135765       -0.69701444869127
C           -2.10964314319148       -0.27664876117409       -0.05435963049303
O           -3.27583086282802       -0.54319064692300       -0.11955079342261
N           -1.12279896795221       -1.24396456457911        0.10160199296554
C           -1.52685934639752       -2.63851754492363        0.13040802205840
H            3.51478834807513        1.22156745173751        1.24641467874184
H            3.95085849126067        1.00312104631292       -0.46064608307349
H            2.65729331377704        2.14088310080384       -0.00556888436671
H            3.33700941070581       -1.55114760024007       -0.43029479711776
H           -1.73337487488306        2.95604651408767       -0.68159927449949
H           -3.15742799509190        1.84437088010914       -1.20471104995684
H           -0.13003492252383        1.59124741880212        1.14934261600806
H           -1.02624498613104       -3.15643676923798        0.94796505462672
H           -1.31438608414242       -3.13341533235613       -0.81959833946560
H           -2.60298308239354       -2.66545242213958        0.29697140343957
H            1.10242925240370       -2.77433373781305       -0.45990901152279
25
 energy: -42.120023127471 gnorm: 0.298087622157 xtb: 6.6.1 (8d0f1dd)
C            3.12702418869232        1.18438735199090        0.22656428383055
N            2.14504770649838        0.13938722110948        0.10444342100943
C            2.37712343827978       -1.12499901589001       -0.21717824609777
N            1.21181320753067       -1.79567086973518       -0.23559180108051
C            0.20565750593354       -0.92222414935280        0.08814675529814
C            0.80782916973141        0.29746734292973        0.31407855691071
C            0.21547788323146        1.63229389655181        0.52707228672790
O            0.46228593065754        2.64153377542384        0.13680216142507
N           -1.59137977731306        1.03242406606206       -0.12381793031486
C           -2.21085899299441        1.98339189315121       -0.69693454284495
C           -2.10960957856399       -0.27662390635915       -0.05433886891998
O           -3.27583342759292       -0.54318101684806       -0.11951958057034
N           -1.12281152202418       -1.24391921021248        0.10153575150856
C           -1.52686239134033       -2.63851044310261        0.13040460578470
H            3.51478061106783        1.22157902164836        1.24640095932765
H            3.95085352580356        1.00311791499352       -0.46062286886931
H            2.65731905720149        2.14086972935501       -0.00557967272964
H            3.33703229873948       -1.55115796945614       -0.43028992820801
H           -1.73339478472381        2.95604900258529       -0.68163016933373
H           -3.15746536214085        1.84439514191408       -1.20469229047294
H           -0.28241026382099        1.56727659246865        1.42049343008811
H           -1.02624714753285       -3.15643645415010        0.94795821491300
H           -1.31439083810787       -3.13340835634496       -0.81958909033979
H           -2.60297629348287       -2.66545435909407        0.29696511814276
H            1.10242737036981       -2.77434865803822       -0.45990893728647
25
 energy: -42.142983056006 gnorm: 0.091478523625 xtb: 6.6.1 (8d0f1dd)
C            3.13581079943820        1.17953714438423        0.21635212696366
N            2.15785589641903        0.13406722518503        0.07859463281815
C            2.38607479943186       -1.13668987959547       -0.21771094527528
N            1.21518705284549       -1.80107376089905       -0.23252402508508
C            0.20928150936792       -0.92046305350787        0.06627146313450
C            0.81640259863870        0.30256231807786        0.26783326314675
C            0.19355760627048        1.60260866548796        0.58092245551615
O            0.43529364259994        2.75941925584026        0.17221025037044
N           -1.58324312813508        1.02823719799686       -0.15807981005414
C           -2.21352752864303        1.98169739813676       -0.71378359252353
C           -2.10726545645038       -0.27409229987181       -0.06952129697962
O           -3.27482402316184       -0.54111482408291       -0.11676030475155
N           -1.11874925936264       -1.24120759854553        0.09530416196331
C           -1.52697417539038       -2.63599331090694        0.13747663962280
H            3.51393779684976        1.21905188044185        1.24027882253248
H            3.96338438312401        0.99818641191261       -0.46366603746439
H            2.67116253108412        2.13726686336384       -0.01800211489446
H            3.34510623670453       -1.56850978748555       -0.41922723136240
H           -1.73724908760301        2.95468402734403       -0.69758971335857
H           -3.17011468622020        1.84868535240747       -1.20396584006400
H           -0.30463028612860        1.51982002680988        1.47959827638969
H           -1.02749985032017       -3.15085616624850        0.95714395504420
H           -1.31746462742068       -3.13610380869248       -0.80985140511777
H           -2.60305859773086       -2.65958428667741        0.30467145271872
H            1.10197736789198       -2.78189644927492       -0.44480356539179
25
 energy: -42.148747594029 gnorm: 0.070429865942 xtb: 6.6.1 (8d0f1dd)
C            3.14207269003723        1.17946586971346        0.20190654785497
N            2.16075555476744        0.13701138548032        0.06255679955249
C            2.39024500924530       -1.13912983650747       -0.21611341562044
N            1.21865668578489       -1.80107414727382       -0.22691861787606
C            0.21223630192006       -0.91691121991186        0.06019172253273
C            0.81646693124197        0.30896570179856        0.26292304726132
C            0.16386866030863        1.59368429489619        0.62634557806064
O            0.41664913480133        2.71222710812928        0.17751462320124
N           -1.57282872865816        1.03255129869638       -0.18501848608836
C           -2.21193003989950        1.98664035637353       -0.73017962443915
C           -2.09976129050999       -0.26790924499273       -0.08226514423316
O           -3.26776454060779       -0.53299477481257       -0.12080768534269
N           -1.11407584509250       -1.23779300597568        0.08791460153226
C           -1.52320815863243       -2.63185875706003        0.13624705086301
H            3.51322992576949        1.21570663812033        1.22834809948237
H            3.97598329301138        0.99773628093090       -0.47152493470836
H            2.68084330012193        2.13869593414076       -0.03184745101317
H            3.34990612196189       -1.57697917624374       -0.40698569027844
H           -1.73765875697342        2.96047445416952       -0.71417168614620
H           -3.18990712205692        1.86051375391865       -1.18374112917441
H           -0.32818039707139        1.51829132775708        1.53329149249368
H           -1.02439983705910       -3.14436304685934        0.95801851591518
H           -1.31601540324686       -3.13774779361110       -0.80877005740697
H           -2.59919756839939       -2.65311359630837        0.30520861283910
H            1.10444559333510       -2.78385126296808       -0.43095115136332
25
 energy: -42.151243870479 gnorm: 0.056220308643 xtb: 6.6.1 (8d0f1dd)
C            3.14551530457245        1.18106556238431        0.19022297369141
N            2.16114121661173        0.14063611252776        0.05380864224222
C            2.39144590528457       -1.13786234573102       -0.21617375441043
N            1.22124740286627       -1.80089622491477       -0.22385186301336
C            0.21540787571132       -0.91543483407969        0.05828020487975
C            0.81501606157724        0.31452677774163        0.25546432190197
C            0.12799697399698        1.58693728901166        0.66495684153044
O            0.42523984456902        2.66239107398677        0.18419865638040
N           -1.56572440809482        1.03443126177132       -0.20515411153122
C           -2.21663232000372        1.99282038602180       -0.72853324382525
C           -2.09462054194833       -0.26415696693865       -0.09140101912930
O           -3.26297454707770       -0.52847364421239       -0.12400680281440
N           -1.11000722317577       -1.23583025133031        0.08145577093320
C           -1.52008473365285       -2.62802502956256        0.13483273887772
H            3.51345895654966        1.21551953759042        1.21753411534408
H            3.98298494368943        0.99667235181885       -0.47949467898450
H            2.68621236062149        2.14069626807367       -0.04592686763535
H            3.35112653105029       -1.57871897614616       -0.40005888258229
H           -1.72676135457730        2.95954525519723       -0.74273680984271
H           -3.19905124055193        1.86846292897528       -1.17152956219355
H           -0.35634901736846        1.52079474969969        1.58638224305736
H           -1.02151190375169       -3.13664990880023        0.95939543010606
H           -1.31324865471608       -3.13898446632500       -0.80755273208158
H           -2.59609698890988       -2.64612975107009        0.30430257578351
H            1.10670107082724       -2.78509861408933       -0.42324256878591
25
 energy: -42.151739404239 gnorm: 0.051699584241 xtb: 6.6.1 (8d0f1dd)
C            3.14164101554862        1.18320999212153        0.18869522282041
N            2.15786769002905        0.14062213216327        0.06153500846250
C            2.39057202554867       -1.13577576291271       -0.21311961757651
N            1.22273741813752       -1.80305436691801       -0.22097678397994
C            0.21603194816108       -0.92027745816284        0.06504020511721
C            0.81292236418543        0.30990058466231        0.26094074297166
C            0.12213703334093        1.58592128348160        0.66543980532792
O            0.43284559414547        2.65157823181499        0.17076163340965
N           -1.55921266839865        1.03307169831848       -0.20845449891369
C           -2.20525881231476        1.99169176874344       -0.73634599561296
C           -2.09234057809568       -0.26362283482017       -0.08991038683095
O           -3.26067875385944       -0.52579871263734       -0.13208415721455
N           -1.11025869432264       -1.23796030041374        0.08243402761595
C           -1.52197630592401       -2.62907313677283        0.13271321828251
H            3.51518538602354        1.22338419793906        1.21354964505026
H            3.97608493090961        0.99638648624324       -0.48415361336461
H            2.67981315904824        2.14066012190308       -0.05132955120128
H            3.35123369450716       -1.57262520103425       -0.40076228507592
H           -1.72329832040037        2.96171945822325       -0.73591171890316
H           -3.19960790842540        1.87412306895564       -1.15758131370473
H           -0.36065022959382        1.52448184383097        1.59450256993307
H           -1.02422165960915       -3.13795860424754        0.95755389917301
H           -1.31349826605786       -3.13932175106980       -0.80966428726460
H           -2.59807812839905       -2.64633002817793        0.30069457092333
H            1.11043957991465       -2.78671416963353       -0.42239472154631
25
 energy: -42.152762118845 gnorm: 0.038101510621 xtb: 6.6.1 (8d0f1dd)
C            3.13163242798606        1.18894357878246        0.18535027819388
N            2.14850653671231        0.14157090279763        0.08242570124591
C            2.38857178146097       -1.12912886763032       -0.20673778336952
N            1.22712076129129       -1.80805766086824       -0.21709283750382
C            0.21733304915552       -0.93274918409229        0.07944381497807
C            0.80704831907991        0.29665916478787        0.27703283687999
C            0.10917547538894        1.58169097853265        0.66035284307513
O            0.44443094764176        2.63021847773103        0.13689673759698
N           -1.54979900973741        1.03344889494651       -0.19812994733192
C           -2.19391613491643        1.99807586990458       -0.71962918344653
C           -2.08766452866129       -0.26271554639438       -0.08794823044039
O           -3.25639231319728       -0.52047787683450       -0.14706332080811
N           -1.11178288888899       -1.24305755536405        0.08197235504620
C           -1.52751644083389       -2.63208679540792        0.12682662441508
H            3.51924916389840        1.24454948762342        1.20413060242308
H            3.95777911211156        0.99384650695064       -0.49562658575146
H            2.66409341340022        2.14106960654073       -0.06522018173510
H            3.35280038048140       -1.55531120155033       -0.40181423280940
H           -1.69830410904916        2.96137191876467       -0.74310285275699
H           -3.18484638038364        1.88309770747312       -1.14025986813543
H           -0.36829138629955        1.52987857619624        1.61382248806539
H           -1.03191855105253       -3.14246214250010        0.95204862221193
H           -1.31500424599857       -3.14077546995612       -0.81546015598715
H           -2.60379625760346       -2.64840146574230        0.29075728164128
H            1.12192239211302       -2.79095936309081       -0.42180338779883
25
 energy: -42.153406011601 gnorm: 0.024637144105 xtb: 6.6.1 (8d0f1dd)
C            3.12586228275288        1.19298570334715        0.18143809109273
N            2.14424991639770        0.14229994890755        0.09521644048388
C            2.39039774822913       -1.12660054407023       -0.20001400189998
N            1.23235221484357       -1.81194337163063       -0.21435474269764
C            0.21869538336489       -0.94072993799681        0.08452606098526
C            0.80390245964814        0.28840703851930        0.28851349523494
C            0.10210444879724        1.57683295353787        0.64486548618529
O            0.44129799397160        2.62418142654279        0.11823104994929
N           -1.54129788104583        1.03521991495832       -0.18902299783125
C           -2.18199254134976        2.00259151181122       -0.71260335979695
C           -2.08245116037577       -0.26201860487429       -0.08967911100285
O           -3.25190826518338       -0.51509205926996       -0.16039869962758
N           -1.11258966860884       -1.24663060622474        0.07971275471182
C           -1.53317322966482       -2.63470298953619        0.12322617332733
H            3.51958419751946        1.26286266064886        1.19715545951318
H            3.94690411506290        0.98956890447753       -0.50329225943705
H            2.65385700248577        2.14072834855134       -0.07853873002060
H            3.35761329596740       -1.54686101805400       -0.39527090420447
H           -1.68714260555336        2.96563425523025       -0.73251634053408
H           -3.17806274342221        1.89088596761302       -1.12284862820811
H           -0.37136150637344        1.52740555497430        1.61932220743361
H           -1.04083055253714       -3.14754517306951        0.94899218762199
H           -1.31891837436766       -3.14328894234078       -0.81888151206009
H           -2.60991093166936       -2.64979641657812        0.28357409895775
H            1.13324991521003       -2.79615598387403       -0.41618060027818
25
 energy: -42.153878302773 gnorm: 0.010144514011 xtb: 6.6.1 (8d0f1dd)
C            3.12158396369803        1.19712110840577        0.17376840931483
N            2.14421190961376        0.14243872029545        0.09857151455483
C            2.39547968883110       -1.12795073582533       -0.19247601284162
N            1.23877768033635       -1.81577580335509       -0.21081113872907
C            0.22090971550717       -0.94623791366226        0.08221137166432
C            0.80263051225948        0.28430118637372        0.29175815770393
C            0.09315907461833        1.56878037448544        0.62671151714456
O            0.42779507992395        2.62500504185388        0.11321701892540
N           -1.53289543049679        1.03893687363359       -0.17862113192754
C           -2.17475462411864        2.00900672088409       -0.69998259683897
C           -2.07528510139114       -0.26106516090364       -0.09296108215557
O           -3.24551736665627       -0.50836029594176       -0.17177238976718
N           -1.11164274539419       -1.24951477144166        0.07594002513618
C           -1.53925227107010       -2.63652852199454        0.11966229195125
H            3.51390575109558        1.28292261702318        1.18873996946412
H            3.94173106208285        0.98651758353757       -0.50917335425537
H            2.64473556546522        2.13994477064935       -0.09668293618785
H            3.36497200630840       -1.54599796653075       -0.38113562740220
H           -1.67747121506660        2.97086538527108       -0.71864487551879
H           -3.16953910267868        1.89592913832272       -1.11151478938098
H           -0.37446088725563        1.51684431437026        1.62717985633387
H           -1.05226123264390       -3.15240420677310        0.94676877036889
H           -1.32485504518595       -3.14608002550571       -0.82200588747372
H           -2.61679440126006       -2.64758407637445        0.27629645803850
H            1.14526892757687       -2.80287581519759       -0.40387192022358
25
 energy: -42.154068894066 gnorm: 0.005208924452 xtb: 6.6.1 (8d0f1dd)
C            3.12068401024865        1.19828806894791        0.16914285634847
N            2.14747796854474        0.14101890636210        0.09023874141181
C            2.39830306199652       -1.13216268557911       -0.19026105056438
N            1.24013080862288       -1.81731332933063       -0.20798546278432
C            0.22204884436932       -0.94574567401880        0.07621748972357
C            0.80393190199510        0.28654181918618        0.28246347933160
C            0.09100654695079        1.56467602420127        0.61972184306759
O            0.42051788001774        2.63295386169987        0.12776013931164
N           -1.52963241246104        1.04048545081867       -0.17900692503360
C           -2.17555238075738        2.01036071576061       -0.69718277580068
C           -2.07164300551625       -0.26064534218818       -0.09445228564961
O           -3.24233723597123       -0.50469129983784       -0.17339625598167
N           -1.10960516771306       -1.24987509177407        0.07535951752080
C           -1.54037730548953       -2.63616091047098        0.11910905847098
H            3.50557896804876        1.28818071454317        1.18629235870688
H            3.94603668711153        0.98966162482522       -0.50756463894961
H            2.64208271637663        2.13929226717183       -0.10458614121694
H            3.36743648287241       -1.55299069475413       -0.37246251446932
H           -1.67898943834432        2.97309899906704       -0.71082748595422
H           -3.16924371815661        1.89409405850366       -1.11090401592504
H           -0.37305011847649        1.50738313688950        1.62892906199195
H           -1.05623029363342       -3.15288158291568        0.94719261207379
H           -1.32657298336181       -3.14616678040326       -0.82229742936948
H           -2.61828478374701       -2.64336574646923        0.27468200771956
H            1.14671448057220       -2.80579796863487       -0.39501056608152
