72
 energy: 53.917973274446 xtb: 6.6.1 (8d0f1dd)
N           -1.48066912652346        1.26561866279284        2.62476851577319
C           -1.45504652441327        1.75902122290193        1.44112527931222
C           -2.36201215373281        1.37451858620002        0.43016944276485
C           -3.11728629722056        0.15272184173134        0.53023108659628
C           -4.02377557673373       -0.21896817625432       -0.48291026935269
C           -4.71119488962864       -1.40623832355916       -0.42774210461750
O           -5.58595679326998       -1.84348941874679       -1.38946523186464
C           -5.92698441631412       -0.97208687421910       -2.43517530886679
C           -4.53107894546108       -2.29053117078365        0.65553121886085
O           -5.27052220260260       -3.43925117220594        0.61254892710256
C           -5.17494626872031       -4.35223204002423        1.66623065148084
C           -3.63149911594513       -1.94205857824056        1.64421244787803
C           -2.95151073300223       -0.74906104182819        1.58962401044762
C           -2.21612949351318        2.06709556780612       -0.84749139420586
C           -1.26585552955525        1.22796696265024       -1.88719480666340
C            0.12473780385035        1.13470248869236       -1.51212795300239
N            0.66595254414607        0.13442066015522       -0.81089778414948
C            2.05644855240998        0.16468195496847       -0.43606988008278
C            3.01550787910049       -0.52367255406998       -1.43451150667707
C            4.43461717704560       -0.42277617185776       -0.94988532335087
C            5.16562750754692        0.73500814739032       -1.13919260300514
C            6.46286780626116        0.85173634904883       -0.65615157194861
C            7.05811418785428       -0.19475732548592        0.02566217906339
O            8.31937379576346       -0.19216058646566        0.53984403622665
C            9.10490728722869        0.96121310806994        0.37546502910258
C            6.32507215701127       -1.38799965156347        0.21769036378123
O            6.98811670910733       -2.37098979254781        0.88830256967146
C            6.34708443835846       -3.60505909623694        1.09079673678999
C            5.03170013335798       -1.48072181686090       -0.26509386175372
C            0.00440617065738       -1.14643876244499       -0.72348814233546
C           -4.48432370452798        4.47036824367108        0.55219943529818
C           -4.81343518133941        3.43826185395918        1.56607109754341
C           -3.39303251512550        5.45758057712544        0.69154051802788
H           -4.20677174873197        0.44310725485924       -1.31609783526343
H           -6.31056197039084       -0.01166542223013       -2.06932771173700
H           -6.71385650910181       -1.48411504762820       -2.98860801777574
H           -5.08039239284535       -0.78744822896569       -3.10643969548920
H           -5.43950078694997       -3.90333475200125        2.62887204743401
H           -5.90014596200251       -5.12711112358864        1.41980636224895
H           -4.17638286455814       -4.79936728914973        1.74030357339061
H           -3.42651445812553       -2.59777643674106        2.47225804108630
H           -2.26896206490442       -0.50553839657120        2.38372428242062
H           -3.14674997498533        2.20071130203388       -1.39468402281687
H           -1.75483917111016        3.05086419299404       -0.74191145072660
H           -1.74685037343570        0.25921719178061       -2.00137299919602
H           -1.34383501570987        1.77943566556751       -2.81908012941676
H           -0.71656307506373        2.54025308975722        1.13463865668900
H            0.76491675183957        2.00395915575078       -1.62045563460141
H            2.15396308167876       -0.32890170567892        0.53190433788347
H            2.36558630766910        1.19963654353523       -0.30819687153836
H            2.92280581097633       -0.03891624201250       -2.40685541919991
H            2.73327562177388       -1.57187154784408       -1.54689692505723
H            4.73262749071208        1.56625155285933       -1.67570990546360
H            7.00078656694347        1.77159462068682       -0.82078393630823
H            8.65273879468620        1.83199278940476        0.86236937286466
H            9.27706950227003        1.18503181384305       -0.68304304079236
H           10.05621054402225        0.73517314570836        0.85451660923183
H            7.07473675167633       -4.22743053492606        1.60914201217475
H            5.45079842335303       -3.50163874905407        1.71311889166028
H            6.07797442824782       -4.08037954851752        0.14189638104217
H            4.47012531200638       -2.39083375878835       -0.11824716687777
H           -0.22132518835591       -1.54211147540899       -1.71750166551573
H           -0.92903114802351       -1.05749962380820       -0.16642515684034
H            0.65460299919333       -1.85248121233980       -0.21397711097254
H           -5.27612444340930        4.76337473162094       -0.12338119494291
H           -3.91292190617221        3.08425933873560        2.03410733486810
H           -5.33186903780976        2.59370933886056        1.11256596535350
H           -5.52686948891509        3.84022660224787        2.30499890920475
H           -2.54951886749872        5.10412625406215        1.26070722865113
H           -3.05540430436998        5.76844465599510       -0.29502776621651
H           -3.78148983984779        6.33029105759478        1.21992010220871
H           -0.65513179997577        1.49133305176834        3.17449516519514
