25
 energy: 0.000000000000 xtb: 6.6.1 (8d0f1dd)
C            3.23720163006194        1.16630919979326        0.08434469647475
N            2.29877817382611        0.07527477071623        0.03981603040599
C            2.58028210190900       -1.21425402444508        0.03006176031096
N            1.43813958087363       -1.93419271955128        0.00098261760884
C            0.39035688448383       -1.05887472636071       -0.00790371836672
C            0.93510056364412        0.21347819449412        0.01709077491437
C            0.09450143893243        1.40504303904423       -0.00410947031874
O            0.49712751527797        2.54126714362870       -0.00342325688240
N           -1.25076640035757        1.06271879480407       -0.03085478223738
C           -2.21907211982101        2.15522099834493       -0.05001256985998
C           -1.81739487048744       -0.20012725993278       -0.04692818574614
O           -2.99983886758376       -0.37846417018721       -0.07008878229737
N           -0.92618586207120       -1.30210215599479       -0.03682761578324
C           -1.46982264913417       -2.64643102187190       -0.06029820460571
H            3.71247264356769        1.21471455160235        1.06488849150277
H            4.00791497605742        1.03430808813993       -0.67357694370751
H            2.69910007168542        2.09770118228144       -0.09130154882931
H            3.56654120610678       -1.63682992603973        0.04233140067262
H           -1.67107961066214        3.09322851271934       -0.02552706933167
H           -2.82428953597071        2.09428624779827       -0.95318082946668
H           -2.87644029173232        2.07745725625962        0.81450067533302
H           -1.17061996399332       -3.19584890659852        0.83242232437030
H           -1.14560257411436       -3.17511610292205       -0.95688275822323
H           -2.55549792440841       -2.55659984320617       -0.07459039797972
H            1.38130855184625       -2.94313852034425       -0.01389874181052
25
 energy: -3.915143944625 xtb: 6.6.1 (8d0f1dd)
C            3.25507152311073        1.17923442479004        0.06977922142434
N            2.31578066553631        0.08446244475222        0.03397485467212
C            2.59590683787678       -1.24709786477741        0.04141188350305
N            1.42052977979808       -1.95219124860655        0.01714045098223
C            0.39202557397991       -1.06585035973415        0.00196658775044
C            0.93339533143243        0.21092457655850        0.02814200837517
C            0.10473449035422        1.38521020401348        0.00582874070989
O            0.50453370631053        2.54919079740787        0.00758312314910
N           -1.25860360184970        1.04608552503328       -0.03142065193414
C           -2.21569920982347        2.14593339568978       -0.06006581729962
C           -1.82591206017745       -0.20323205190246       -0.05134931388535
O           -3.02283482477397       -0.38119333797582       -0.08337773157451
N           -0.94044306611838       -1.30676587310680       -0.03428614940868
C           -1.48707599683499       -2.64634885554048       -0.06071403254969
H            3.79806610460520        1.16126041397579        1.01459961193316
H            4.01772798173168        1.24743534172090       -0.74875583109724
H            2.67945342437970        2.10052311143306       -0.00023880620764
H            3.56919791038351       -1.68025451487159        0.07388107714866
H           -1.65392304903211        3.07727220325765       -0.03851596709256
H           -2.81865510311413        2.08951261578933       -0.96596964722264
H           -2.87726023168725        2.08224410648768        0.80326732956906
H           -1.19272927007741       -3.19961239011480        0.83304651903231
H           -1.15893904762602       -3.18019686366749       -0.95476470166161
H           -2.57224947207326       -2.55104538037176       -0.08052127971962
H            1.35011627162521       -2.95647181806822        0.00639241755109
25
 energy: 4.813252816343 xtb: 6.6.1 (8d0f1dd)
C            3.27549910261622        1.19478094625755        0.04885553219165
N            2.34080528485251        0.09120286926918        0.01919846201462
C            2.60899540489849       -1.28740447609441        0.06250873109802
N            1.39676190944922       -1.96961670194088        0.04415648455296
C            0.39411323635985       -1.07450631168170        0.01755446662301
C            0.93379635837059        0.20743530683602        0.03554358800162
C            0.12103613431606        1.35372681264052        0.01631094667185
O            0.50399175093632        2.54178635254323        0.02755138756989
N           -1.26885667021965        1.02590367503752       -0.03430344593445
C           -2.20919063255591        2.13627485783797       -0.07594074130405
C           -1.83045796935834       -0.20681963236096       -0.05961431402359
O           -3.03700864350406       -0.38548745600558       -0.10504742456518
N           -0.95696200650258       -1.31126773002961       -0.02986397458404
C           -1.51001448006857       -2.64555629035989       -0.06081358010621
H            3.94520747793328        1.05653098693857        0.92080710723840
H            4.00122021469135        1.57145651150454       -0.86580757352350
H            2.64651331179796        2.10350727904854        0.15946701916155
H            3.56410379792962       -1.73733868833404        0.13362754818138
H           -1.63058843652339        3.05895841250964       -0.05971418023687
H           -2.80955059998960        2.08217118393799       -0.98460432330171
H           -2.87693597165737        2.09117836843749        0.78492700130881
H           -1.22800244639780       -3.20603590770532        0.83453278428444
H           -1.17998527935664       -3.18815714535858       -0.95124426369015
H           -2.59492832913782       -2.54261994278982       -0.08982780447799
H            1.31265214905639       -2.97107467796595        0.03877446299678
25
 energy: 19.184506837660 xtb: 6.6.1 (8d0f1dd)
C            3.28929070902257        1.21375774835000        0.02809461731313
N            2.35809966012697        0.09637913042866        0.00391368510102
C            2.61136012237319       -1.30961398841111        0.07951408068040
N            1.38348515706093       -1.97955618530794        0.06989266482371
C            0.39319541212099       -1.08294335538877        0.02910325916237
C            0.93589870613095        0.20250963458265        0.03391399130003
C            0.12887413028578        1.33600284750246        0.02617170965759
O            0.49548863852312        2.53225413668966        0.05438586123064
N           -1.27660648592646        1.01429750522960       -0.03508857545569
C           -2.20499676824619        2.12991832556527       -0.08845880239945
C           -1.83420785546527       -0.21305163450474       -0.06809155868857
O           -3.04341853718210       -0.39329819830242       -0.12561943533176
N           -0.96661386803131       -1.31738199202324       -0.02625689552639
C           -1.52997215590093       -2.64761187890452       -0.06273263028730
H            4.08194267885347        0.96595344472299        0.79872429639296
H            3.96589064830356        1.82943505384287       -0.94163333937517
H            2.65066415873101        2.10089042834062        0.30555279096357
H            3.55405471839996       -1.77820297935086        0.19836413046660
H           -1.61371132907287        3.04470863955453       -0.07726015314808
H           -2.80196119999434        2.07338713902083       -0.99943212386944
H           -2.87673496411184        2.09824155793928        0.77010408475970
H           -1.26376015857603       -3.21462833427568        0.83398363987140
H           -1.20131295623957       -3.19565176171276       -0.95100349336713
H           -2.61483475371105       -2.53497757756218       -0.10098986511369
H            1.29210096046154       -2.98178910385315        0.07188195698677
25
 energy: 30.031526783430 xtb: 6.6.1 (8d0f1dd)
C            3.30021745895714        1.22247325060674        0.01655637843252
N            2.36716550555343        0.09689251635191       -0.00423967514402
C            2.60533013180071       -1.31753252289211        0.09031163433542
N            1.37852819512745       -1.98404097010854        0.08965375806200
C            0.38885886432798       -1.09034572231291        0.03473721760556
C            0.93857432741758        0.19526206858917        0.02452080737287
C            0.12980167021532        1.32959814943494        0.03519319907991
O            0.48381888966118        2.51935173863608        0.08366695930352
N           -1.28103905721887        1.00953213389069       -0.03234905889241
C           -2.20311012202440        2.12641503613696       -0.09443099844390
C           -1.83754413671494       -0.22007700050264       -0.07409509183596
O           -3.04375636808158       -0.40011669438815       -0.14127708229587
N           -0.97124399143579       -1.32390047065092       -0.02394815618896
C           -1.54591804873814       -2.65160033870091       -0.06608176118086
H            4.15992635981017        0.91897225445266        0.67139900732486
H            3.94587805093932        2.02869095878305       -0.96839303679752
H            2.69978656463211        2.06959979231192        0.39469719686036
H            3.53781841358765       -1.80177986002873        0.25962107319970
H           -1.60535789571192        3.03600699119679       -0.08755217712998
H           -2.79791832448386        2.06513800240617       -1.00630630797017
H           -2.87653490025592        2.10364104177768        0.76253470922018
H           -1.29463266111563       -3.22364492817542        0.83114437299551
H           -1.22067947596494       -3.20172421286020       -0.95368695092841
H           -2.63058973647290       -2.52912947664626       -0.11133149544405
H            1.28483495412491       -2.98865313513591        0.09668937460689
25
 energy: 37.820463175302 xtb: 6.6.1 (8d0f1dd)
C            3.30398419357813        1.21187150352862        0.01860948092257
N            2.36501999788643        0.09055083580671        0.00514653170178
C            2.59390096799943       -1.31138601570286        0.08765971044860
N            1.38083923569746       -1.98369429506591        0.10251442290851
C            0.38136938784784       -1.09474904535988        0.03732626876451
C            0.93948045153769        0.18686298238431        0.01789630779703
C            0.12709219363784        1.33367472833113        0.03972863964904
O            0.47765070595378        2.50727017125344        0.09944816287407
N           -1.27906152640501        1.01067386737177       -0.03167185092174
C           -2.20235788754623        2.12590598562019       -0.10322198835735
C           -1.84015583341704       -0.22486071288899       -0.07704292591762
O           -3.04120146561967       -0.40025552026330       -0.15261659441800
N           -0.97159178067920       -1.32845048193579       -0.02095040649399
C           -1.55328687600490       -2.65582465671482       -0.06437605130218
H            4.20624838996135        0.86460998265948        0.54385517176257
H            3.92011475242288        2.18647772275200       -0.98611074945617
H            2.75382292695451        2.01757700803545        0.49813385168602
H            3.51792220990657       -1.79960013755177        0.29708762374452
H           -1.60759309306012        3.03604657177750       -0.10080669184217
H           -2.79613838608845        2.05748831210863       -1.01503837554302
H           -2.87679934280741        2.10932622298137        0.75256347993936
H           -1.31035840695597       -3.22608369085860        0.83439431046207
H           -1.22897208696656       -3.20650317161451       -0.95061725457353
H           -2.63732906701451       -2.52767507877886       -0.11360649174110
H            1.28961500711716       -2.99022448570321        0.10872931405339
25
 energy: 43.961674963753 xtb: 6.6.1 (8d0f1dd)
C            3.29682213151866        1.18784791571874        0.02968693455413
N            2.35304427495298        0.08218035752700        0.03381866863830
C            2.58087078158780       -1.29789429984832        0.08684547696712
N            1.38127367978736       -1.98047291775471        0.10903887794586
C            0.37213030917373       -1.09538785643627        0.03965884833984
C            0.93520688222060        0.18137090155437        0.02038453581888
C            0.12177875686876        1.33903881410658        0.03724540401384
O            0.47417655885496        2.50109607781526        0.10679631720894
N           -1.27523297555938        1.01168726387503       -0.03643907369075
C           -2.20311398780206        2.12554122826662       -0.11205962498643
C           -1.84276528422612       -0.22718983770736       -0.08017611962890
O           -3.03973221093020       -0.39626998340892       -0.15963700532456
N           -0.97282916550475       -1.33015859984196       -0.01979826879070
C           -1.55466338579615       -2.65907538144834       -0.06042964405652
H            4.24650898421341        0.80238297937937        0.43068895475289
H            3.89938446802535        2.30686562710865       -0.99714836616890
H            2.81037126416324        1.96944657988794        0.58274375544426
H            3.50173592762031       -1.78078716457846        0.31789693003762
H           -1.61474797586668        3.03975231763920       -0.11282298850418
H           -2.79673253554039        2.05190866575537       -1.02337514527974
H           -2.87785556088907        2.11100574346874        0.74341786068316
H           -1.31215385444195       -3.22409246545767        0.84056381505167
H           -1.22751503628193       -3.21015226963292       -0.94447726667549
H           -2.63810903875285       -2.53187907294973       -0.11163724846662
H            1.29436166054030       -2.98773602086613        0.10624826826344
25
 energy: 51.910219830071 xtb: 6.6.1 (8d0f1dd)
C            3.28544071255790        1.14710701919623        0.04146420748350
N            2.34150766697042        0.06397504606522        0.06488409407620
C            2.56799442205693       -1.28970192695506        0.09051081963536
N            1.37854621217901       -1.98279864252561        0.11326235283485
C            0.36362792391189       -1.09806556238123        0.04130091149137
C            0.93320301728211        0.17276377216116        0.02480783555203
C            0.11831751865591        1.34153818508739        0.03443193492333
O            0.47543664712974        2.49348361047317        0.10955439497832
N           -1.26815297011754        1.01273184460792       -0.04289553399486
C           -2.20121796252256        2.12632188556803       -0.11862438860828
C           -1.84349161814380       -0.22799759343535       -0.08235027959000
O           -3.03692472234010       -0.38974717302352       -0.16253737259617
N           -0.97472900268878       -1.33109052548906       -0.01970028505960
C           -1.55694269725546       -2.66111751561857       -0.05564660427685
H            4.23449234836289        0.75898567341828        0.32204784351178
H            3.91315039170469        2.46540806678695       -1.00275120412260
H            2.86862539707038        1.90939948924460        0.64606681646859
H            3.48888068339643       -1.76743849038872        0.33316348429216
H           -1.61878343778964        3.04475575505245       -0.12108726013195
H           -2.79553451482867        2.04964744233335       -1.02893220500884
H           -2.87539470664883        2.11106537435667        0.73724912602883
H           -1.31226730329639       -3.22123906924922        0.84741902606123
H           -1.22779236004394       -3.21307883607873       -0.93779468653680
H           -2.63990533791074       -2.53549137609235       -0.10731723048155
H            1.29412836024409       -2.99038785094193        0.10050809921708
25
 energy: 60.147488905013 xtb: 6.6.1 (8d0f1dd)
C            3.26009068868676        1.08830153836807        0.06524493271210
N            2.32165936508396        0.03912658514123        0.11600218195962
C            2.55081062075419       -1.28416739698936        0.10643250701138
N            1.36950342753330       -1.99139667797076        0.12191196483357
C            0.35195347872687       -1.10343863771824        0.04897264491603
C            0.92611109675685        0.16122862068066        0.04542451373840
C            0.11110447072002        1.34282255834350        0.03530580116644
O            0.47696307588436        2.48657065932029        0.10741625883024
N           -1.26274497535989        1.01384511410982       -0.05358424338718
C           -2.20108661765717        2.12815983266251       -0.13147404159825
C           -1.84648448501018       -0.22843243273943       -0.08584581386956
O           -3.03820931760947       -0.38233537344134       -0.16774990704205
N           -0.98089936737237       -1.33250473127503       -0.01951143788064
C           -1.56020621942001       -2.66394970054477       -0.05021511984700
H            4.26931548749304        0.67685284671977        0.17688859954977
H            3.93701832547800        2.70720371073301       -1.02808209680916
H            2.93644289279620        1.84951587164725        0.73270664156660
H            3.47520362222578       -1.75445721099369        0.34168673618353
H           -1.62440689870024        3.05102965111775       -0.13461327955506
H           -2.79391820123958        2.04831593925219       -1.04207007196071
H           -2.87564240094103        2.11116096621991        0.72413430584086
H           -1.31109625907286       -3.21740658382434        0.85597987534965
H           -1.22558811888770       -3.21679057545143       -0.92952402499589
H           -2.64258082370420       -2.54201499406683       -0.10330804467798
H            1.28890180077125       -2.99821097712865        0.09490501411243
25
 energy: 63.467541906862 xtb: 6.6.1 (8d0f1dd)
C            3.22790824515458        1.02674700034047        0.09339279619757
N            2.30523063788578        0.01131548945108        0.15442005212175
C            2.53972526948500       -1.29094079737962        0.13445432926125
N            1.35755403215897       -2.00738351195065        0.12406206429809
C            0.34608131199346       -1.11017887259854        0.05527245987926
C            0.92115801208342        0.15074869437444        0.07227038381010
C            0.10547981974056        1.34018215275398        0.04124677777993
O            0.48387180875732        2.48260475929371        0.09903865092156
N           -1.25820631803546        1.01516916264963       -0.06054110208983
C           -2.19998481454429        2.13124800780194       -0.13461429104850
C           -1.84718480830673       -0.22687411920266       -0.08645126177066
O           -3.04034212951219       -0.37667148577970       -0.16504414258509
N           -0.98691258605766       -1.33256323382309       -0.02195361849891
C           -1.56290652747364       -2.66405079727054       -0.04955108309026
H            4.24625823419640        0.65651142239969        0.12225086052402
H            4.01594967901079        2.89103870863040       -1.03586429926977
H            2.97297022656025        1.82055071122051        0.70234770120774
H            3.47501921917775       -1.75735569486842        0.32473098914295
H           -1.62457175916440        3.05565223126013       -0.13556053456608
H           -2.79153868802531        2.05266264935033       -1.04563780474709
H           -2.87406752891884        2.10905220017112        0.72146181521871
H           -1.30806676723824       -3.21519433353100        0.85768862834060
H           -1.22504615235809       -3.21651663539549       -0.92820366612699
H           -2.64493001226605       -2.54500903255455       -0.10178346902611
H            1.27876626363249       -3.01171607317110        0.08960166026287
25
 energy: 64.811123944971 xtb: 6.6.1 (8d0f1dd)
C            3.17410415777989        0.92192878909549        0.14102567339877
N            2.28502833632145       -0.02261774077110        0.17980532262369
C            2.53561164127350       -1.32250876993996        0.18743159720641
N            1.33149350061537       -2.04077243881319        0.11014966327421
C            0.34796181689383       -1.11948737076037        0.05891298546525
C            0.91140651481301        0.14490147930875        0.12081666632894
C            0.09577231894595        1.33053992775390        0.05686025644536
O            0.49893536266954        2.49009547396826        0.07584503965994
N           -1.25938110515842        1.01634359597427       -0.06723376769640
C           -2.20195266913482        2.13569097630410       -0.13057668159265
C           -1.84662989936316       -0.22212084210370       -0.08499764553015
O           -3.05044364259615       -0.37539654544863       -0.15198170214818
N           -0.99817946418312       -1.33047906132181       -0.02955723943037
C           -1.56525681160167       -2.66027815753923       -0.05165149007254
H            4.17142335291854        0.67960847629908        0.18550683684548
H            4.21223406968235        3.04847820441013       -1.07806333193307
H            2.96989083993301        1.88931308869900        0.56293894946951
H            3.50175703723812       -1.78807194189856        0.27114525420555
H           -1.62008850409648        3.05692081753723       -0.12793556182537
H           -2.79132899442258        2.06134333724907       -1.04254769513409
H           -2.87354110808895        2.10473842771256        0.72776474414388
H           -1.30078759152583       -3.21328327516474        0.85551954596806
H           -1.22502944770151       -3.21372328289055       -0.93079430812554
H           -2.64723759189913       -2.54568806953231       -0.09994228591556
H            1.25645254862314       -3.03644649595563        0.08859307051603
25
 energy: 62.494526122843 xtb: 6.6.1 (8d0f1dd)
C            3.16794492683041        0.91428018518627        0.19187209550998
N            2.28466433902440       -0.02667515613780        0.20382078531255
C            2.53299759607678       -1.35511908264183        0.22810609519629
N            1.31182215368620       -2.05788659567487        0.10355447200647
C            0.34566822972048       -1.13016155813846        0.06196972421519
C            0.90173380962545        0.14022566303420        0.14670179308217
C            0.09577215443192        1.31575787124761        0.06449480835887
O            0.50515952745333        2.48009733234586        0.07720699155712
N           -1.26675270354172        1.01412932172821       -0.06373431107359
C           -2.20104539572273        2.13688181738267       -0.12266078902357
C           -1.84920876941211       -0.22219733105716       -0.08546678269127
O           -3.05699780377269       -0.37666542625848       -0.14850517731953
N           -1.00912082903930       -1.33347922789416       -0.03592066172864
C           -1.57390138528302       -2.66111609757921       -0.06239621590338
H            4.21906321272206        0.73034943121654        0.26786591324714
H            4.33362575230658        3.10959283847579       -1.11316415874924
H            2.89943952585840        1.93689374679595        0.39256834979561
H            3.50570785125329       -1.82290734823620        0.25741983841449
H           -1.61289490106818        3.05311081966746       -0.11703838783768
H           -2.79125036349727        2.06740648222884       -1.03435807798578
H           -2.87220311604403        2.10555503746226        0.73553020873857
H           -1.30848177521038       -3.21751606389733        0.84243889817106
H           -1.23282582819777       -3.21242752904970       -0.94294596873491
H           -2.65612078508927       -2.54726976482100       -0.10948459385569
H            1.23941924482512       -3.05183076321337        0.08915904744492
25
 energy: 60.283639553449 xtb: 6.6.1 (8d0f1dd)
C            3.19457404112316        0.93988889195333        0.23424311751900
N            2.29561884366743       -0.02885702298987        0.19121580618116
C            2.52471080066524       -1.37744904373644        0.22834993286182
N            1.30467874435881       -2.06162979686255        0.10532591797464
C            0.33708215761747       -1.14283785900637        0.05668721516288
C            0.89860798543640        0.12743655892849        0.12624212240004
C            0.10469622435322        1.30557213812250        0.05288184856780
O            0.50712605550258        2.45712421164224        0.07931753814706
N           -1.26900155741165        1.01325738692318       -0.05676727410862
C           -2.19487396712068        2.13708054157311       -0.11872845175307
C           -1.85315936973362       -0.22526620735188       -0.08312851870211
O           -3.05720762693546       -0.37349220668786       -0.14452115213761
N           -1.01480128181908       -1.33929340228544       -0.03491631508303
C           -1.58461458768694       -2.66567814827717       -0.06191433309603
H            4.22476036847349        0.70713547020508        0.34374665119784
H            4.44384811452306        3.21869226940706       -1.15096560915251
H            2.82837936411736        1.95152930393472        0.31138648094589
H            3.48345166686683       -1.84195434654409        0.25695597351074
H           -1.60673718502571        3.05137819090449       -0.11525557641879
H           -2.79004510108492        2.06877047071429       -1.02801613418165
H           -2.86623844264059        2.11276972898283        0.73897337344758
H           -1.32001521518044       -3.21921529815328        0.84156558558728
H           -1.24653859110335       -3.21543760975832       -0.94313980586321
H           -2.66690711437266       -2.54929790652651       -0.10673816854053
H            1.23482034134598       -3.06119771293947        0.10423367168061
25
 energy: 60.084704660214 xtb: 6.6.1 (8d0f1dd)
C            3.18708390645279        0.92233886543312        0.26229768834492
N            2.29181406261685       -0.04030019059380        0.21471262607266
C            2.51344303437002       -1.38011399695335        0.23782886801108
N            1.30546173087769       -2.06150023030989        0.11693429268983
C            0.32810154086673       -1.14877209404377        0.06104007693693
C            0.89659791713036        0.11702636035217        0.12703405289038
C            0.10723533327880        1.30762727637528        0.05382679154508
O            0.50710004146182        2.44994600250608        0.08220317898809
N           -1.26744900715151        1.01383057657890       -0.05123448941323
C           -2.19292097754465        2.13634485926995       -0.11832342288146
C           -1.85744451185554       -0.22755262511551       -0.08226613416264
O           -3.05764882000036       -0.37011763735695       -0.15048409275365
N           -1.01642226124875       -1.34145119012204       -0.03401569871490
C           -1.58925607239830       -2.66851529597886       -0.06538293606666
H            4.23751839073396        0.68442639796452        0.33933890817734
H            4.49786836791484        3.30848550700069       -1.20504434705555
H            2.82094161520723        1.94496394512453        0.28759223804199
H            3.47071421396820       -1.84169316527637        0.26591452705269
H           -1.60652252625654        3.05154810046338       -0.11399683963230
H           -2.78762316000816        2.06901719809649       -1.02860226525941
H           -2.86686392713660        2.11465710121879        0.73777465739533
H           -1.32667403516337       -3.22138825616790        0.83799498883666
H           -1.24968425053071       -3.21526577640188       -0.94699463341675
H           -2.67126046805025       -2.55075422749840       -0.11200656076752
H            1.23810453040136       -3.06375890239310        0.11089242128827
25
 energy: 60.263955437662 xtb: 6.6.1 (8d0f1dd)
C            3.19251341943983        0.94092536215163        0.27937822068458
N            2.29576415006269       -0.03412229089222        0.21296616560177
C            2.51223615538577       -1.37378124404232        0.23020621197618
N            1.31745166745404       -2.04865482704419        0.12279894793047
C            0.32624139063520       -1.14569195589235        0.05854568767806
C            0.89987362838424        0.11813423644552        0.11054034403896
C            0.11319872055314        1.31545856755388        0.05558610580505
O            0.50217204416562        2.45669120318777        0.09056072920636
N           -1.26890663691916        1.01371770337830       -0.03995322671575
C           -2.19348175067336        2.13316516069558       -0.11258234210694
C           -1.86045683647871       -0.22936718018927       -0.08133304747221
O           -3.05729085870402       -0.37185979387731       -0.15785996190815
N           -1.01148133989847       -1.34055261016781       -0.03379970205306
C           -1.58764351317711       -2.66896595370806       -0.06957298630397
H            4.23626174996170        0.69524146026758        0.41309370333401
H            4.50288000761582        3.21352335189097       -1.26826475303630
H            2.78840173189240        1.95870227060078        0.24923096956218
H            3.46753945430637       -1.83462567467989        0.28153133204490
H           -1.60711026088952        3.04855965631992       -0.10753196647139
H           -2.78723895037156        2.06735896809179       -1.02451214753881
H           -2.87022069456984        2.11466417642043        0.74194130145513
H           -1.32882985860464       -3.22374789969648        0.83318509580322
H           -1.24915093559595       -3.21372705986666       -0.95222779073589
H           -2.66958788214560       -2.54842775789495       -0.11730485051543
H            1.24908006610707       -3.05358926688055        0.11241185588416
25