25
 energy: 0.000000000000 xtb: 6.6.1 (8d0f1dd)
C            3.23720163006194        1.16630919979326        0.08434469647475
N            2.29877817382611        0.07527477071623        0.03981603040599
C            2.58028210190900       -1.21425402444508        0.03006176031096
N            1.43813958087363       -1.93419271955128        0.00098261760884
C            0.39035688448383       -1.05887472636071       -0.00790371836672
C            0.93510056364412        0.21347819449412        0.01709077491437
C            0.09450143893243        1.40504303904423       -0.00410947031874
O            0.49712751527797        2.54126714362870       -0.00342325688240
N           -1.25076640035757        1.06271879480407       -0.03085478223738
C           -2.21907211982101        2.15522099834493       -0.05001256985998
C           -1.81739487048744       -0.20012725993278       -0.04692818574614
O           -2.99983886758376       -0.37846417018721       -0.07008878229737
N           -0.92618586207120       -1.30210215599479       -0.03682761578324
C           -1.46982264913417       -2.64643102187190       -0.06029820460571
H            3.71247264356769        1.21471455160235        1.06488849150277
H            4.00791497605742        1.03430808813993       -0.67357694370751
H            2.69910007168542        2.09770118228144       -0.09130154882931
H            3.56654120610678       -1.63682992603973        0.04233140067262
H           -1.67107961066214        3.09322851271934       -0.02552706933167
H           -2.82428953597071        2.09428624779827       -0.95318082946668
H           -2.87644029173232        2.07745725625962        0.81450067533302
H           -1.17061996399332       -3.19584890659852        0.83242232437030
H           -1.14560257411436       -3.17511610292205       -0.95688275822323
H           -2.55549792440841       -2.55659984320617       -0.07459039797972
H            1.38130855184625       -2.94313852034425       -0.01389874181052
25
 energy: -5.398152944980 xtb: 6.6.1 (8d0f1dd)
C            3.24402515777156        1.17734053855960        0.08676053312230
N            2.30807018727308        0.09549310573701        0.03772022678684
C            2.59948872429397       -1.23267242550918        0.02997787433395
N            1.42734147699906       -1.94020489971020        0.00075538741199
C            0.39635499830936       -1.05601433453254       -0.00823913348509
C            0.93023161070772        0.22266215923995        0.01530949415942
C            0.10167331108105        1.39613590956375       -0.00511462239299
O            0.49834913602379        2.56197806768310       -0.00439898825739
N           -1.26039182136782        1.05080983896009       -0.03113162679133
C           -2.22074236851614        2.14687352299750       -0.04993903254812
C           -1.82363136266074       -0.20048553330120       -0.04735714423255
O           -3.02025927781188       -0.38285080141883       -0.07052946437510
N           -0.93417925876815       -1.30071869711537       -0.03698574767733
C           -1.47169780695900       -2.64281214450517       -0.06011316279123
H            3.72219638130606        1.22319957302864        1.06885197671134
H            4.01211102051140        1.04242323785562       -0.67620031741684
H            2.69735748364147        2.10202360588551       -0.08884805845438
H            3.57765200398301       -1.65908852274697        0.04251484917281
H           -1.65929511312874        3.07819368145167       -0.02535177287703
H           -2.82610989768398        2.09346349519789       -0.95437143638565
H           -2.87842385528343        2.07672319096713        0.81584557003666
H           -1.16802127595461       -3.19400975686525        0.83192158028015
H           -1.14315870120734       -3.17338188180121       -0.95594371198048
H           -2.55700363096048       -2.55213416166390       -0.07436106174706
H            1.36027754633697       -2.94391816578565       -0.01373831445560
25
 energy: -6.570818585215 xtb: 6.6.1 (8d0f1dd)
C            3.25300127851157        1.18539876056953        0.08985620370624
N            2.31677668866795        0.10745969912655        0.03391416295992
C            2.61014681924347       -1.24828557051221        0.02980496719915
N            1.41316602319917       -1.93864976798030        0.00083389431063
C            0.39963895310844       -1.05021906311708       -0.00912139833866
C            0.92761892756428        0.23183596333416        0.01222074264631
C            0.10752274666331        1.38425029337717       -0.00762413422833
O            0.48458216339478        2.56681148481850       -0.00747741778232
N           -1.27176303175329        1.03827576258442       -0.03204962997959
C           -2.22191045109972        2.13796497751567       -0.04990287664989
C           -1.82808221979316       -0.20238448872615       -0.04802728245357
O           -3.02938168358247       -0.39124852277041       -0.07090190096180
N           -0.94078102874160       -1.29643045542868       -0.03722303246397
C           -1.47170288070738       -2.63728764493483       -0.05961098385831
H            3.73979917092228        1.23563179128456        1.07007128507705
H            4.02009523581390        1.06120182120948       -0.67819296427951
H            2.69978614035395        2.10760258125941       -0.08014817293137
H            3.58063021873523       -1.68483233942582        0.04286389224572
H           -1.63898554752177        3.05680851381887       -0.02511264107077
H           -2.82831365167501        2.09359927359633       -0.95486545597404
H           -2.88019119175909        2.07682638274564        0.81685688812019
H           -1.16468858692918       -3.18986867662620        0.83171101436282
H           -1.14023387346732       -3.16972827445511       -0.95455083864181
H           -2.55707502761777       -2.54571528382529       -0.07367958535364
H            1.33255947640566       -2.93998861526618       -0.01261083951318
25
 energy: -6.495175486545 xtb: 6.6.1 (8d0f1dd)
C            3.26015619428676        1.18921923412586        0.09276113399856
N            2.32331599270710        0.10931322852599        0.03002482657106
C            2.61083205103756       -1.25781031100259        0.02902963835540
N            1.40360879892486       -1.93548676666669        0.00119389145407
C            0.39979843085621       -1.04527510202003       -0.01042894667799
C            0.92917900844460        0.23727533703489        0.00876029018680
C            0.10822049758835        1.37998817454328       -0.01175635433273
O            0.46595072930538        2.56825350284159       -0.01306762831564
N           -1.28009045465848        1.03090813674802       -0.03401020357791
C           -2.22224817670370        2.13319457563929       -0.05017250205325
C           -1.83197529493957       -0.20644338418381       -0.04906608857529
O           -3.03286607798430       -0.40221661326306       -0.07125835336848
N           -0.94255346197894       -1.29332928818120       -0.03758139496321
C           -1.46898265252025       -2.63415794320787       -0.05858604421912
H            3.75785059238351        1.24081950305004        1.06862962810329
H            4.02574025076732        1.08407091768671       -0.68091971577022
H            2.70347402490067        2.11264850202646       -0.06435553966611
H            3.57550266705918       -1.70728710402153        0.04298760273512
H           -1.62046194390742        3.04004998370583       -0.02530554493443
H           -2.83008367045919        2.09601862253504       -0.95464216686779
H           -2.88012619262805        2.07878190491806        0.81750938696987
H           -1.16051522644382       -3.18540606753120        0.83313293075542
H           -1.13684759560667       -3.16655892249623       -0.95337987439353
H           -2.55453886217332       -2.54133911902694       -0.07222667166762
H            1.30987503967841       -2.93620239960787       -0.01023840359900
25
 energy: -5.093953615969 xtb: 6.6.1 (8d0f1dd)
C            3.27634678901539        1.19595280184656        0.10241787367312
N            2.33920724406867        0.10877810903224        0.01868199573306
C            2.60645154813958       -1.27768576240123        0.02466625393172
N            1.38245683292924       -1.92735251103902        0.00204027688490
C            0.39783210922075       -1.03162199871240       -0.01515150951882
C            0.93603896785110        0.24984322333386       -0.00247394580259
C            0.10632041089783        1.37574259512287       -0.02737617410818
O            0.41781834768823        2.57347704744650       -0.03454292432885
N           -1.29861162858071        1.01525391919907       -0.04226921607706
C           -2.22209000597130        2.12518294590521       -0.05187468123635
C           -1.84300061648781       -0.21816218629457       -0.05315887942907
O           -3.04118091089496       -0.43131426200991       -0.07221643639254
N           -0.94400083220595       -1.28662222973793       -0.03906910618056
C           -1.45763013536989       -2.62957130656411       -0.05411644994936
H            3.80893897323532        1.23447647873952        1.06340651640259
H            4.03102363579551        1.15136864201487       -0.69363420870389
H            2.70923063414783        2.12442237549369       -0.00326977192422
H            3.55514736399401       -1.76383409223573        0.04258105278123
H           -1.57683670653472        3.00353050997410       -0.02751917465466
H           -2.83531212939692        2.10693102036242       -0.95350624463916
H           -2.87666959207019        2.08734465103433        0.81942392296208
H           -1.14472894695369       -3.17386493958439        0.84001548575869
H           -1.12442173111391       -3.16111083891087       -0.94865254889465
H           -2.54368609543207       -2.53581183924334       -0.06593633033149
H            1.25357114196480       -2.92632375059969       -0.00143187980867
25
 energy: 4.079840674617 xtb: 6.6.1 (8d0f1dd)
C            3.30977979698153        1.20780887943035        0.12921603264304
N            2.37341885876186        0.10436431911800       -0.00988008092679
C            2.59208120520185       -1.31879349076125        0.01057487831763
N            1.33690376890255       -1.90916263933981        0.00317489404284
C            0.39119759129814       -0.99899118416494       -0.02838084998063
C            0.95271247121409        0.27787020823524       -0.03241608281384
C            0.10116144193906        1.37140551059169       -0.07122836104972
O            0.31508679652555        2.58596957436851       -0.09517075591550
N           -1.33779572023912        0.98397690196233       -0.06667434561816
C           -2.22145649649387        2.11240807176880       -0.05752784917669
C           -1.86893069064691       -0.24347227255710       -0.06490812002045
O           -3.06013341724336       -0.49477005961185       -0.07447427386877
N           -0.94568066051504       -1.27197675383041       -0.04361157176388
C           -1.42613541113071       -2.62299869665167       -0.04059650167020
H            3.93476687076479        1.18853653719698        1.04940502274352
H            4.02512840441664        1.31693435440291       -0.73106124823728
H            2.71565008362970        2.14860427833464        0.17023283537607
H            3.50259840910792       -1.88991035023880        0.04041209743096
H           -1.48805105256467        2.93080042635189       -0.03581125228926
H           -2.84947697145203        2.13720727181630       -0.95029084062728
H           -2.86450116416626        2.11010240788980        0.82431689835548
H           -1.09991766247494       -3.14714289933440        0.86043242814459
H           -1.08974862700179       -3.15348948619678       -0.93357798136287
H           -2.51358699732329       -2.53327711114592       -0.04696625095025
H            1.12714384044438       -2.90297519546243        0.02184517536468
25
 energy: 14.636756696461 xtb: 6.6.1 (8d0f1dd)
C            3.33124115556530        1.21188632797140        0.15420469551533
N            2.39610878235291        0.09710042882603       -0.03303691220253
C            2.57682334052381       -1.34503509658046       -0.00227299152908
N            1.30714134351279       -1.89614758314731        0.00317211704163
C            0.38444553870313       -0.97375497918921       -0.04146871520430
C            0.96627635583754        0.29728400057074       -0.05991528923533
C            0.09976595219871        1.37460580296783       -0.11343967440011
O            0.25491046376243        2.59187185729261       -0.15366730729403
N           -1.36396152537009        0.96909290724092       -0.09086116457546
C           -2.22454823076897        2.10912980453272       -0.06170554278019
C           -1.88809084712651       -0.25844401313322       -0.07631066251620
O           -3.07236863877935       -0.53744730190470       -0.07591306719704
N           -0.94482259501341       -1.26071633272665       -0.04906165691573
C           -1.39693925991173       -2.62093481661216       -0.02765796721008
H            4.03325643968286        1.12912483596377        1.03418303353594
H            4.00362900563038        1.44220931037878       -0.75499344992021
H            2.72216946874264        2.15838187755623        0.32305293802708
H            3.45658053118442       -1.97748120485822        0.03721885321920
H           -1.44769624489737        2.89181152874569       -0.04297214425638
H           -2.86510239622849        2.16336384703095       -0.94500373644996
H           -2.85349564859525        2.12552868727940        0.83022098054389
H           -1.05758354945790       -3.12578043769621        0.87969722375758
H           -1.05808216751205       -3.15192752506671       -0.91851903295648
H           -2.48583000828974       -2.54122966029791       -0.02814260767443
H            1.03838740218992       -2.88346366297216        0.04022597682418
25
 energy: 18.070793295696 xtb: 6.6.1 (8d0f1dd)
C            3.33518722353614        1.20391515959612        0.17903060829222
N            2.40653170214241        0.07767293563005       -0.05438348728784
C            2.55150472869105       -1.34692530367728       -0.01270975470375
N            1.30346293667071       -1.88796492814082        0.00415003796823
C            0.37420971169782       -0.95368135468858       -0.05626859386840
C            0.98312860362665        0.30535639496763       -0.08977238439641
C            0.10289253648781        1.39723618902251       -0.16009617497057
O            0.24930179468827        2.58706034884891       -0.21840835179351
N           -1.37177798542548        0.97871274232063       -0.11869274305438
C           -2.23160228410336        2.12361388514331       -0.06405281717746
C           -1.90205907308113       -0.26318950402573       -0.08876935196438
O           -3.07484696527710       -0.55947710179344       -0.07679238588054
N           -0.93507104277738       -1.25479307173525       -0.05662265047015
C           -1.36310449873500       -2.62900263153863       -0.01410011121828
H            4.10537805986822        1.03139057126538        1.00731761581376
H            3.94553638857348        1.53305122653895       -0.76232253948405
H            2.72760004705791        2.14193972246928        0.47401031632817
H            3.40294638117250       -2.02099228119572        0.03415067343975
H           -1.47837120681251        2.90160872582026       -0.04956698429074
H           -2.88134889810764        2.19212568306419       -0.93531405417934
H           -2.83948289931897        2.13598492100670        0.83824712090809
H           -1.01215645101698       -3.11157718147261        0.90047527281687
H           -1.02523155392143       -3.16080927376287       -0.90297395092474
H           -2.45386234754858       -2.56869880984732       -0.00733885049127
H            0.99344975984844       -2.86352846164353        0.05783743673594
25
 energy: 15.197676370181 xtb: 6.6.1 (8d0f1dd)
C            3.32526179357170        1.18214356761387        0.20853116790583
N            2.40093951359788        0.06243312126230       -0.07161125973071
C            2.52761183215934       -1.31862629240451       -0.01944406292853
N            1.31523878856691       -1.88204545214407        0.00292035611681
C            0.36203352328497       -0.93795678663751       -0.07429306442444
C            0.99211656018740        0.30661868636514       -0.12441892707215
C            0.10376297378138        1.42579955274046       -0.21087300439118
O            0.27586647599570        2.60049291596540       -0.30977829215328
N           -1.36028692347782        0.99351476839368       -0.14838534117078
C           -2.23634030638338        2.14407562977399       -0.05968918128150
C           -1.91191383299600       -0.25857290312310       -0.10252426279346
O           -3.07792758568848       -0.55375090318881       -0.07477180786191
N           -0.92879305062924       -1.25604251126478       -0.06840810122365
C           -1.33185918232738       -2.64472702585953       -0.00142085363020
H            4.12772482100263        0.91497820754765        0.97153090135404
H            3.86026114087099        1.56062784258078       -0.72476327549414
H            2.74559573229474        2.08062578180345        0.59824066086258
H            3.35784313581760       -2.00150362735292        0.02725116753591
H           -1.53648296406916        2.94822517467667       -0.04983234804447
H           -2.90103067244723        2.22543015231832       -0.91619332115304
H           -2.81824316719554        2.13839502790737        0.85811533834430
H           -0.95985738824281       -3.10222898333526        0.91890730746765
H           -0.98917296654628       -3.17941427685385       -0.88652695232689
H           -2.42309923008715       -2.62030389934468        0.01581235296637
H            0.99296564689499       -2.83915916526786        0.06865869927414
25
 energy: 17.164114721803 xtb: 6.6.1 (8d0f1dd)
C            3.32444439500269        1.15684983524918        0.25229474531102
N            2.39805923722581        0.05914891827361       -0.09895190410604
C            2.51083200155065       -1.29662258343103       -0.02758164856998
N            1.30708472134500       -1.87263463699637       -0.00116302738766
C            0.34933621597769       -0.91404265831882       -0.09937588871983
C            0.99387935171613        0.31779270652546       -0.17397503608139
C            0.10112585114765        1.44599718513086       -0.28160166739195
O            0.29281374103910        2.62535335200354       -0.45120767048214
N           -1.35482573906172        1.00101692781987       -0.18673660232044
C           -2.24256467588270        2.15691538389579       -0.05351232387653
C           -1.92512737354106       -0.25065752301144       -0.12129740248142
O           -3.08989479702185       -0.54642422217674       -0.07176465347371
N           -0.93401253595954       -1.25317142786801       -0.08528203216782
C           -1.29533795417944       -2.65619388510000        0.01602503182616
H            4.17316870195613        0.77377310333610        0.92247423468025
H            3.75967758827389        1.63021949196213       -0.68202883360775
H            2.76929519738462        1.99864866791257        0.79188067440229
H            3.31758424869945       -1.99585068047745        0.01785820487077
H           -1.56951525776840        2.98622854360640       -0.05044079371556
H           -2.93270424962588        2.26054476604828       -0.88921966494654
H           -2.79184580429675        2.13357634177112        0.88653691680047
H           -0.88769357355014       -3.08086944313734        0.94195438303176
H           -0.93867148512553       -3.19848032180264       -0.86116045109036
H           -2.38542230017450       -2.68173055624489        0.04828441799993
H            0.96252916280428       -2.81035868279790        0.08502488764372
25
 energy: 12.093443962124 xtb: 6.6.1 (8d0f1dd)
C            3.31329003207877        1.12241547546887        0.28881669805568
N            2.37039181164400        0.09276624737766       -0.11800293040777
C            2.52496868583386       -1.24949790465129       -0.01494561554517
N            1.30077082507383       -1.87574796473466       -0.01269281543929
C            0.34580050407077       -0.90592316954395       -0.12230744471079
C            0.96350984108364        0.32195774524281       -0.22079121245903
C            0.07920116527956        1.44434419934291       -0.33240897659645
O            0.36919928583641        2.65341683143924       -0.58316701912966
N           -1.32607849347806        1.01252292519054       -0.20785051789625
C           -2.24500959261087        2.16056877238816       -0.03918904588293
C           -1.91966717224983       -0.22044247993023       -0.13551679913304
O           -3.10285049211569       -0.48634404770636       -0.06718533075899
N           -0.95942519619666       -1.26109762575453       -0.10580023379985
C           -1.28301533030351       -2.66200346835763        0.02606921869877
H            4.12471181040929        0.68428636171306        0.83691790615566
H            3.64625904321131        1.62776191454883       -0.57037594528981
H            2.81698910453525        1.83675136105873        0.90476413778551
H            3.33664194859046       -1.91130661726681        0.00534573179833
H           -1.60586465935879        3.05825887792893       -0.04419201361203
H           -2.96033030241659        2.26942877410365       -0.85453784688816
H           -2.76847167356147        2.10296974030192        0.91979353094937
H           -0.83486639201001       -3.06407727601941        0.94844061293400
H           -0.90102974946215       -3.21898650929151       -0.83995704450385
H           -2.36265866899894       -2.74619510652813        0.07519849489745
H            0.98974833305096       -2.79679845414853        0.09060835692552
25
 energy: 16.062315584760 xtb: 6.6.1 (8d0f1dd)
C            3.31699708520119        1.10149303377013        0.32842437082687
N            2.36447489347115        0.10593908798355       -0.15267478815775
C            2.52072156035464       -1.25629534686632       -0.01326606092073
N            1.27338990295593       -1.86603959380374       -0.02234011857833
C            0.34272550786410       -0.89132102710322       -0.14779539003064
C            0.94953546025375        0.33755385257608       -0.27340903971356
C            0.07054700048313        1.44128917431909       -0.41608494541032
O            0.36524155069605        2.65156727171533       -0.67312876085172
N           -1.33479652925855        1.01808083184709       -0.24626958776629
C           -2.24893804114969        2.16399607351463       -0.04110925583714
C           -1.92150243926459       -0.20730329174805       -0.15496641940046
O           -3.10750987265875       -0.47472336763400       -0.06765076094203
N           -0.97185550723879       -1.25183090959479       -0.12474462913967
C           -1.25496993636364       -2.65686289474263        0.04728270752709
H            4.20816137938492        0.55349319652696        0.76097956034938
H            3.55347537330778        1.77712291106133       -0.55804615780870
H            2.83608496668476        1.75977676593048        1.14714984836799
H            3.32348589713118       -1.93519696154700       -0.00310213034906
H           -1.60766004376185        3.06834260420925       -0.05508429317827
H           -2.99077322375114        2.28311128373486       -0.83367900985961
H           -2.74643516872649        2.09545551575275        0.93357841450532
H           -0.78246039196618       -3.02827645936378        0.97563382346708
H           -0.85737340468754       -3.23068739232978       -0.80492194400722
H           -2.33010284225449       -2.78488569425284        0.10677003073846
H            0.94175149122855       -2.78477006178300        0.11548843231660
25
 energy: 15.809785545760 xtb: 6.6.1 (8d0f1dd)
C            3.29330153497536        1.07496293297068        0.36658515853777
N            2.33891812517150        0.11144844710524       -0.17971946702694
C            2.50843280409023       -1.24549275092651       -0.00827125143267
N            1.27019118433761       -1.85659297457031       -0.04352080188642
C            0.33775086373975       -0.89549230106767       -0.18553185277818
C            0.93071003883534        0.33940434774753       -0.33226301472550
C            0.05557554485503        1.44702948427019       -0.52053051684581
O            0.36406829495877        2.63800998378253       -0.72719694825106
N           -1.33295038406282        1.04323636205161       -0.29227050930575
C           -2.24445786966537        2.18073369059964       -0.03341966429058
C           -1.91440686540648       -0.18752560737761       -0.17678279888796
O           -3.09935891985366       -0.43406928862628       -0.06596315860269
N           -0.97684649819290       -1.24459945956605       -0.15715135931152
C           -1.23394545530009       -2.65432171416098        0.06610242691983
H            4.21020317076553        0.47003486876741        0.70483338865433
H            3.48982551145733        1.83425874058748       -0.46900501272605
H            2.86076145721478        1.66877407782967        1.27612157301071
H            3.33043529344723       -1.91029652578452       -0.02273955948056
H           -1.62103015924799        3.09112569890697       -0.05146465925388
H           -3.02399005210531        2.29195602291537       -0.79439584435549
H           -2.70687747081854        2.07832048835000        0.95936564568217
H           -0.73628425878244       -2.98927159304191        1.00103518512608
H           -0.83080141486718       -3.24577256015305       -0.77098087534077
H           -2.30597637001973       -2.83059396220008        0.14599150548073
H            0.94896656240939       -2.78623780623696        0.13820630723744
25
 energy: 10.748308456259 xtb: 6.6.1 (8d0f1dd)
C            3.25556730562754        1.04562478117865        0.39851432656012
N            2.30423957609502        0.12099978676552       -0.20119916270221
C            2.49806050518244       -1.24973109776562        0.01321446896826
N            1.27360583373691       -1.85106880201958       -0.07083092494852
C            0.33852473186908       -0.92612969673806       -0.22594566016627
C            0.90348393935241        0.32945690672862       -0.37220457118692
C            0.03649468930980        1.43851794316856       -0.60641437672308
O            0.34167943246497        2.60108279454285       -0.76108981407759
N           -1.33509645402223        1.07725283546516       -0.32747612282026
C           -2.22807472726309        2.19564978433923       -0.02658857480052
C           -1.89343981109880       -0.16581215251716       -0.18983604330900
O           -3.07716237304285       -0.37336186368181       -0.06171287190767
N           -0.98068952221950       -1.23566181210549       -0.19928492694736
C           -1.23172782228228       -2.63718508132721        0.08059280189117
H            4.17152554823739        0.45644463131645        0.64374326367691
H            3.46060736451532        1.88437712913933       -0.35031016664714
H            2.87225407253460        1.55533597255295        1.35009131765423
H            3.37616783398192       -1.86853149619934       -0.06782914723830
H           -1.62127273543742        3.09194158611544       -0.04163331495668
H           -3.04519532430346        2.27844606520919       -0.74876232804864
H           -2.65989822696804        2.05442489614911        0.97021383038664
H           -0.72867730459953       -2.93429987223280        1.01907642940642
H           -0.82961982488325       -3.24814770990659       -0.73724734723528
H           -2.29204630945942       -2.84261712353262        0.18290563190637
H            1.00290427060777       -2.80797980247235        0.15704717941256
25
 energy: 11.892127820262 xtb: 6.6.1 (8d0f1dd)
C            3.22657548020581        1.02180360750933        0.45485371326226
N            2.28726465366457        0.12944467242722       -0.22500531728801
C            2.48574659444963       -1.22880259948299        0.03004761777204
N            1.27913272224982       -1.85098163655306       -0.08518251913116
C            0.32943591371185       -0.93121398225272       -0.27692429080044
C            0.89333803995168        0.32425538611371       -0.41896811975439
C            0.02052843564331        1.44233400041857       -0.66908738700123
O            0.34319124674978        2.60223573531432       -0.93244022369283
N           -1.32859041448737        1.09389365656339       -0.36993153607685
C           -2.21920120341117        2.20385444397519       -0.01231596310303
C           -1.89397609545320       -0.15474423493839       -0.21455176794907
O           -3.08014399066730       -0.33508223056254       -0.04659352403542
N           -0.98979003085815       -1.23279274530134       -0.24849732477951
C           -1.22089816850367       -2.63025381363483        0.09647631252885
H            4.15622635574143        0.39154694231181        0.56631743332841
H            3.37515277124851        1.91940486988895       -0.19172581166113
H            2.90031976888140        1.40587015466881        1.48699527996558
H            3.38453399571079       -1.81030577884492       -0.12181344345367
H           -1.63262117504520        3.11316833771032       -0.03297225399142
H           -3.07721290031554        2.29240327404477       -0.69297641065931
H           -2.60574440616614        2.02740628847274        1.00350640746913
H           -0.68698727839408       -2.87114702263175        1.04199526731774
H           -0.80947697680727       -3.26017651465372       -0.70247203359903
H           -2.27020296801828       -2.87292497028413        0.22696895656566
H            1.04561429785399       -2.80016723810628        0.16133083491405
25