25
 energy: 0.000000000000 xtb: 6.6.1 (8d0f1dd)
C            3.23720163006194        1.16630919979326        0.08434469647475
N            2.29877817382611        0.07527477071623        0.03981603040599
C            2.58028210190900       -1.21425402444508        0.03006176031096
N            1.43813958087363       -1.93419271955128        0.00098261760884
C            0.39035688448383       -1.05887472636071       -0.00790371836672
C            0.93510056364412        0.21347819449412        0.01709077491437
C            0.09450143893243        1.40504303904423       -0.00410947031874
O            0.49712751527797        2.54126714362870       -0.00342325688240
N           -1.25076640035757        1.06271879480407       -0.03085478223738
C           -2.21907211982101        2.15522099834493       -0.05001256985998
C           -1.81739487048744       -0.20012725993278       -0.04692818574614
O           -2.99983886758376       -0.37846417018721       -0.07008878229737
N           -0.92618586207120       -1.30210215599479       -0.03682761578324
C           -1.46982264913417       -2.64643102187190       -0.06029820460571
H            3.71247264356769        1.21471455160235        1.06488849150277
H            4.00791497605742        1.03430808813993       -0.67357694370751
H            2.69910007168542        2.09770118228144       -0.09130154882931
H            3.56654120610678       -1.63682992603973        0.04233140067262
H           -1.67107961066214        3.09322851271934       -0.02552706933167
H           -2.82428953597071        2.09428624779827       -0.95318082946668
H           -2.87644029173232        2.07745725625962        0.81450067533302
H           -1.17061996399332       -3.19584890659852        0.83242232437030
H           -1.14560257411436       -3.17511610292205       -0.95688275822323
H           -2.55549792440841       -2.55659984320617       -0.07459039797972
H            1.38130855184625       -2.94313852034425       -0.01389874181052
25
 energy: -5.388814011234 xtb: 6.6.1 (8d0f1dd)
C            3.24577909003983        1.17616400301223        0.08684920733806
N            2.30892094366395        0.09510581620382        0.03790328281350
C            2.59989803857694       -1.23314306599625        0.02888502319049
N            1.42752878081379       -1.94023576384800        0.00001459724949
C            0.39688103628055       -1.05562840273072       -0.00760952650296
C            0.93095117315066        0.22292654823347        0.01649237372234
C            0.10207801596584        1.39665128923872       -0.00260688875256
O            0.49925617233781        2.56225643992116       -0.00027664884475
N           -1.26055635555430        1.05206259014656       -0.03144514247237
C           -2.22361654285961        2.14640374208212       -0.05138318691799
C           -1.82290549153965       -0.19925301389462       -0.04812533849447
O           -3.01931292272703       -0.38136179602232       -0.07246575775527
N           -0.93367594669515       -1.29984744794299       -0.03590581501521
C           -1.47129580886281       -2.64193211934662       -0.05873139274929
H            3.72365292872164        1.22212763278435        1.06907115652749
H            4.01414114306095        1.04022410434836       -0.67565234389240
H            2.69997976231492        2.10112597177970       -0.08951960573944
H            3.57792894466576       -1.65990309461090        0.03982078357023
H           -1.66493770797977        3.07907147069963       -0.02526071722730
H           -2.82842130540036        2.09305954972889       -0.95634151949009
H           -2.88296984951407        2.07452587596867        0.81302412554905
H           -1.16633758247831       -3.19410991018946        0.83214848480167
H           -1.14435017250330       -3.17183451679762       -0.95534259221077
H           -2.55651507484475       -2.55151595501963       -0.07098791639642
H            1.36011339930266       -2.94391134557653       -0.01552074615374
25
 energy: -6.550864590862 xtb: 6.6.1 (8d0f1dd)
C            3.25755334023955        1.18084829060181        0.08985841304671
N            2.31783484493164        0.10641033728465        0.03469758050802
C            2.61034865735455       -1.24812363718933        0.02612432695539
N            1.41433085817031       -1.93837659351984       -0.00185836120206
C            0.40087131967590       -1.04933331047548       -0.00711229420611
C            0.92886165973923        0.23258922953120        0.01648945622655
C            0.10832808134044        1.38650010620592        0.00089744114958
O            0.48743837830686        2.56765867358415        0.00695446325486
N           -1.27166490353139        1.04278287169510       -0.03248543554017
C           -2.22961444727456        2.13751108064561       -0.05457626587867
C           -1.82539509514148       -0.19877664294703       -0.04989963292999
O           -3.02597491747008       -0.38721857750126       -0.07748985849670
N           -0.93911909153115       -1.29416996582139       -0.03373014692460
C           -1.47051585868605       -2.63502792300712       -0.05513609081110
H            3.74267325386188        1.23019213499338        1.07072122028581
H            4.02564710841185        1.05136555520819       -0.67616898886526
H            2.70871638329264        2.10472139058577       -0.08303879196713
H            3.58090236885523       -1.68385772198343        0.03360166341170
H           -1.65794582669651        3.06247992733107       -0.02473372148735
H           -2.83264831384322        2.09101416863877       -0.96197641835742
H           -2.89381298770924        2.06930538228299        0.80718923738905
H           -1.15887740865212       -3.18999729553499        0.83295463279940
H           -1.14474174724893       -3.16557407660057       -0.95293396508261
H           -2.55576097911959       -2.54415597606239       -0.06235062520817
H            1.33477999066045       -2.93973882577377       -0.01896394192246
25
 energy: -6.560898344867 xtb: 6.6.1 (8d0f1dd)
C            3.26829729003313        1.17997962332448        0.09252894284278
N            2.32392950154718        0.10819176347636        0.03189163327510
C            2.61106022780746       -1.25585447809314        0.02158008356957
N            1.40652778863281       -1.93463410815312       -0.00505251120858
C            0.40183223892755       -1.04371842759420       -0.00655316622896
C            0.93043575413912        0.23908747628392        0.01800576615158
C            0.10961825694363        1.38538911456613        0.00682543052256
O            0.47205525855197        2.57109713348489        0.01816791625145
N           -1.27923117827282        1.03990918794424       -0.03326489437743
C           -2.23603320630028        2.13256954635506       -0.05971227578676
C           -1.82712045542378       -0.19961976933181       -0.05205498977883
O           -3.02711447897949       -0.39457896394782       -0.08463726191462
N           -0.93981238635329       -1.28930251283941       -0.03069707806377
C           -1.46736326728571       -2.63013205453062       -0.04944182086588
H            3.76098065649911        1.22884253497401        1.07059609259351
H            4.03601099290441        1.05993672246936       -0.67630866252900
H            2.72202432514840        2.10738703446199       -0.07252205921786
H            3.57696789153540       -1.70158307296700        0.02322533951175
H           -1.65829857684631        3.05311983978821       -0.02412377018829
H           -2.83401931006291        2.08872938935513       -0.97092057561850
H           -2.90712231995089        2.06303440941114        0.79688414822560
H           -1.14839202539372       -3.18529841104046        0.83609229319055
H           -1.14721348940097       -3.15931144631340       -0.95014652689936
H           -2.55284499179851       -2.53864517654371       -0.04861101219110
H            1.31704017133471       -2.93556675236819       -0.02471714511823
25
 energy: -5.421797984225 xtb: 6.6.1 (8d0f1dd)
C            3.30406522855650        1.17160323664044        0.10280459130403
N            2.34219700444931        0.11016353198730        0.02289429703049
C            2.60811652384469       -1.27417811970374        0.00174146966686
N            1.38580064799219       -1.92142882125580       -0.02002499089034
C            0.40289628446551       -1.02371412866701       -0.00480105817889
C            0.93780460950954        0.26005254256269        0.02567175552441
C            0.11023018324726        1.39050034709485        0.03215440303279
O            0.42340202681452        2.58594446955010        0.06597690635424
N           -1.30025852669868        1.03551395909328       -0.03515841750637
C           -2.25935481420230        2.11884227754548       -0.08178718797971
C           -1.83324491244596       -0.20188005613856       -0.06037998532197
O           -3.03000734229749       -0.41663421741062       -0.11319944122966
N           -0.93917847042721       -1.27357295946330       -0.01869101039143
C           -1.45416133880158       -2.61612910948382       -0.02494618677470
H            3.82250954512468        1.20482259184361        1.07091600099948
H            4.06646434735165        1.08092188071826       -0.67834903084061
H            2.77062716673573        2.11399778273438       -0.02852154524390
H            3.55969496302032       -1.75247590869913       -0.02159846869526
H           -1.67392848603033        3.03194171702127       -0.02185154756521
H           -2.83310172480943        2.08036572132252       -1.01022555626954
H           -2.95948927491742        2.03916699491008        0.75213567376723
H           -1.10457567044533       -3.16945109911406        0.85084749555644
H           -1.15911556032786       -3.13966698455877       -0.93770692488780
H           -2.54044622090092       -2.52474523466132        0.00988607897908
H            1.26526847912884       -2.92093181169608       -0.05075342429239
25
 energy: 3.680168382830 xtb: 6.6.1 (8d0f1dd)
C            3.38728248247872        1.15029564278067        0.12698598221564
N            2.38479568208309        0.11287410496869        0.00091682713760
C            2.59937095466106       -1.31552517814237       -0.04450842577138
N            1.33901088761555       -1.88969968100809       -0.05587864273240
C            0.40486910077603       -0.97644135551086       -0.00046300946789
C            0.95610798192087        0.30920653661936        0.04377423381758
C            0.11242306891219        1.40525544539194        0.09174703296091
O            0.30835608997322        2.62088928163549        0.18107851077263
N           -1.34879804861730        1.02694089758961       -0.04001845871822
C           -2.31402104085657        2.08807609980690       -0.13454137254250
C           -1.84739990286769       -0.20714306333507       -0.08050606590886
O           -3.03552310884060       -0.46841339135587       -0.18187563233857
N           -0.93649137525635       -1.23671711997007        0.01059878462836
C           -1.42199301502796       -2.58410771797327        0.03388142810452
H            3.96575128696193        1.14359126712090        1.07161132053580
H            4.13635431602633        1.12879435401614       -0.68353720630190
H            2.88465877536743        2.12844291115028        0.07642934489299
H            3.51727555614745       -1.87037981336897       -0.12864896647533
H           -1.71442215088741        2.98568116365715       -0.01584623577237
H           -2.82940717315661        2.06137177158464       -1.10405989928816
H           -3.08339940125399        1.98250896615262        0.64476818647157
H           -0.99912785301187       -3.13291649839839        0.88580273144744
H           -1.18869973788444       -3.09389013073728       -0.90815239435411
H           -2.51009733121372       -2.49378624826426        0.15043913295591
H            1.14533862388683       -2.88587964223784       -0.11296331012196
25
 energy: 14.156544090610 xtb: 6.6.1 (8d0f1dd)
C            3.44320843042339        1.12780361402328        0.14170561566139
N            2.41810302838233        0.09980451343358       -0.02236370603335
C            2.58181244224507       -1.34182047777983       -0.06772372431540
N            1.31528653812735       -1.86149486681466       -0.08045881355212
C            0.40433766030641       -0.94138931130596        0.00545981031999
C            0.97820766734939        0.34420509111685        0.05396525182420
C            0.12320490200569        1.43044125036531        0.12802260328592
O            0.20927075294535        2.64143293764217        0.27048332865582
N           -1.38386123377960        1.02923930318840       -0.04836986145645
C           -2.35149269735116        2.07444794127515       -0.17201559921195
C           -1.85628708118572       -0.21376540129618       -0.09878091754783
O           -3.02918843710195       -0.51446116797169       -0.23839009099417
N           -0.92592721797824       -1.20977089632238        0.03870611465444
C           -1.39187453250430       -2.56419676898980        0.07814270412083
H            4.05933401050975        1.09034821195702        1.06867555843600
H            4.18376942073961        1.16413072815982       -0.68666989337615
H            2.96408149484983        2.13196303741434        0.14996391653763
H            3.47234827811466       -1.95723846330908       -0.20360964003044
H           -1.75530721309761        2.96568030340380       -0.00756744506144
H           -2.82642492124134        2.05352381039976       -1.16701792096898
H           -3.16728327897202        1.94157800703008        0.56611034235940
H           -0.91842394692133       -3.11071689844471        0.90744518297521
H           -1.21639544991320       -3.05974693991418       -0.88912621499603
H           -2.48007957626456       -2.47540965327390        0.25551839206172
H            1.06179562824840       -2.85555930181512       -0.15507109720097
25
 energy: 18.795045705987 xtb: 6.6.1 (8d0f1dd)
C            3.46869161606500        1.10680505122010        0.14535575346469
N            2.43631205180967        0.08268032995973       -0.04093286827454
C            2.56716828907030       -1.34638293272567       -0.07438931798326
N            1.31591622910456       -1.84326517285414       -0.09973391834952
C            0.40257871638157       -0.92064657649663        0.01119481112864
C            0.99639887473302        0.36176801031353        0.05500975014026
C            0.14227944006844        1.45555090808281        0.14390438897065
O            0.15859111440510        2.64296447958614        0.34334739199012
N           -1.40217773752310        1.03503163726203       -0.06268600570571
C           -2.37185274314877        2.07319615931522       -0.19351785086055
C           -1.86237803252110       -0.21656280161963       -0.11892488482925
O           -3.01953901866729       -0.54121449574452       -0.28627340416053
N           -0.91500403635501       -1.19509267997071        0.06610854648553
C           -1.37192600411372       -2.55537813613389        0.10833105922873
H            4.09095114576204        1.04643964658484        1.06210791448910
H            4.20285448779127        1.16875858619454       -0.68418527846165
H            2.99852000385807        2.11134626651653        0.17816500785117
H            3.43675083084118       -1.98211947588552       -0.23871646999207
H           -1.80287414689847        2.97199719478274       -0.00157690584972
H           -2.83076730149447        2.05893020202452       -1.19187333745492
H           -3.19628393090613        1.92017035789501        0.52437266452980
H           -0.87809418585639       -3.10279436609487        0.91672944149834
H           -1.23401934069325       -3.04056866008025       -0.86794570053555
H           -2.45304326170064       -2.47263492140419        0.31112258023589
H            1.03316160792437       -2.82995000855564       -0.17795947140839
25
 energy: 26.755844899668 xtb: 6.6.1 (8d0f1dd)
C            3.51601216024476        1.07590880052957        0.15233079024973
N            2.46248195242765        0.07352008610595       -0.06407445709098
C            2.55887660242080       -1.35079860234618       -0.09954159328433
N            1.30746862161879       -1.81861922905701       -0.13868872499519
C            0.40179638252661       -0.88480607172983        0.01559214689614
C            1.01729479549498        0.39204153598209        0.05772017354340
C            0.16969483917474        1.48425511245752        0.17956616131600
O            0.09637865594968        2.65140160994411        0.49307558372990
N           -1.43242056739447        1.03347323163240       -0.08815496731786
C           -2.40980083675325        2.06118401087055       -0.23491447938662
C           -1.87590992316413       -0.21594359409093       -0.15565622728627
O           -3.01580982357632       -0.57468437729108       -0.37484341251973
N           -0.90770995624766       -1.17089730136029        0.11059887485870
C           -1.34741855128663       -2.53718519161694        0.16426681920862
H            4.15089831408280        0.96670104080693        1.05189317811459
H            4.23290595918046        1.16310782797713       -0.68338100845849
H            3.05844926031986        2.07518556281341        0.22984947136801
H            3.39521282195822       -2.00416117876112       -0.30606379022251
H           -1.88153853790051        2.97314207649050        0.00575376983326
H           -2.83472992434673        2.06742880352388       -1.24542574403403
H           -3.25250607818879        1.88104694593338        0.44770557792505
H           -0.81000261192904       -3.08538433002644        0.93851237784047
H           -1.26183293542249       -3.01031022948302       -0.82084101907842
H           -2.41479489518594       -2.46820657669340        0.41393575883711
H            0.98921894393284       -2.78837136043911       -0.22218136389925
25
 energy: 27.788220029053 xtb: 6.6.1 (8d0f1dd)
C            3.52323866991502        1.04263109181894        0.14444227680523
N            2.45492870319315        0.08544917999774       -0.06482494482732
C            2.57689670704035       -1.29095095492561       -0.12302387265753
N            1.32907225714650       -1.81778511041836       -0.19244653303612
C            0.39682239926043       -0.85889822815954        0.01304503410913
C            1.02389201302273        0.39579715494993        0.05411224921843
C            0.21897588247876        1.51434066525409        0.20254723279166
O            0.16563960417079        2.61732702803921        0.68215723871950
N           -1.43631307833535        1.02102497110576       -0.13420640466527
C           -2.43558047341911        2.05582038869317       -0.27305019719377
C           -1.89687791954737       -0.19754906808537       -0.19835604028135
O           -3.01965164343959       -0.56445144030470       -0.47606050190794
N           -0.91472908883058       -1.16504201961566        0.17802147876803
C           -1.34966037346136       -2.53236468128241        0.21867398818037
H            4.11919928041134        0.83989700789546        1.02876615474541
H            4.19971919391943        1.07369524374641       -0.68105320707951
H            3.05799666034664        1.97647021037709        0.24713236246742
H            3.38024207522217       -1.86245117111253       -0.35089936267336
H           -2.00900224437683        3.01757831337358        0.00996523103965
H           -2.82866956781453        2.10593607546669       -1.27833466904221
H           -3.24833090484318        1.86055719532860        0.38736285930274
H           -0.77899220482003       -3.08773085147513        0.93976667402635
H           -1.29125142366127       -2.99851391101848       -0.74246693590995
H           -2.37554680778519       -2.50079286263263        0.49120649894591
H            1.05019695214335       -2.74096562484421       -0.25544271369821
25
 energy: 38.073805938539 xtb: 6.6.1 (8d0f1dd)
C            3.57354999124831        1.01540123850295        0.15780381305191
N            2.47842528308789        0.08175446985764       -0.08387580722267
C            2.56425568698446       -1.30450024939502       -0.13879882159311
N            1.31408961180242       -1.79157161672397       -0.21351080294429
C            0.39673431023111       -0.82457296336471        0.01760016180443
C            1.04003954564345        0.43016310396496        0.05882498588995
C            0.23866750505203        1.54117981572208        0.23121508990918
O            0.08682572530623        2.64815740277591        0.81714019844341
N           -1.46653623238263        1.02418857651402       -0.14806879624039
C           -2.47168899869799        2.04570434233443       -0.31760940447258
C           -1.90765987152129       -0.19806720091604       -0.22562466128384
O           -3.01808518454017       -0.59969056950111       -0.54917622275523
N           -0.90542042713778       -1.14102213985527        0.20899844086837
C           -1.32076824498680       -2.51529662339532        0.27084064692099
H            4.19801670348454        0.75714740195510        1.02421661715558
H            4.23343036788564        1.08641407015007       -0.69085036663180
H            3.12806490231073        1.97173578624957        0.33010021801045
H            3.35132197163310       -1.91895656824543       -0.45324723828085
H           -2.07135499975612        3.01107566945782        0.01253877740263
H           -2.81947396470541        2.10809251729065       -1.34753975096436
H           -3.32899638666273        1.81459669378628        0.29837452135118
H           -0.68989690554298       -3.07250609257548        0.95933051732379
H           -1.33163227085058       -2.96947567733307       -0.71703337238473
H           -2.34475363138701       -2.49410822984620        0.62009304198415
H            0.98506018143786       -2.71681455523783       -0.29470788919488
25
 energy: 35.401837197978 xtb: 6.6.1 (8d0f1dd)
C            3.58659314759368        1.01002163512444        0.18234985365759
N            2.46924196943965        0.09706874326210       -0.07272102075721
C            2.55809766006882       -1.30910377756142       -0.12948445304378
N            1.30586894668030       -1.79062404801328       -0.18649967621927
C            0.39423518169289       -0.81975708602685        0.02789209037804
C            1.02978151627476        0.43955749801114        0.08643963938332
C            0.22759918313796        1.54683048313304        0.25411625178633
O            0.09400299806875        2.69117644796564        0.69711521429479
N           -1.46696217942139        1.03389533555482       -0.09866502787404
C           -2.48234119226743        2.04593410356589       -0.33039790120460
C           -1.91050562679311       -0.19301018503861       -0.18967293073819
O           -3.02895955887224       -0.59176800926261       -0.50892672000304
N           -0.90315347079645       -1.13980476089267        0.19269277201972
C           -1.30719891525649       -2.51611851811067        0.26632211145778
H            4.23291116631694        0.70731284160799        1.03666109612443
H            4.23681346100797        1.11152562886309       -0.70038246372686
H            3.16230243045058        2.00486065431977        0.42217668487413
H            3.36258233738577       -1.94899921397625       -0.55085703814647
H           -2.08567568512703        3.00326452261249        0.00277968593653
H           -2.78702782396020        2.09469768161209       -1.38768216443197
H           -3.39282934082214        1.79488361420305        0.24886035927692
H           -0.63858303295815       -3.07942013483591        0.93690219129205
H           -1.35863718601766       -2.96170402137446       -0.74816448072978
H           -2.33658935119276       -2.49904384162456        0.68006505135395
H            0.95064803330324       -2.74264699094616       -0.30388522881304
25
 energy: 38.529532677715 xtb: 6.6.1 (8d0f1dd)
C            3.61960010596693        0.97028374107921        0.20709516598081
N            2.46699749152027        0.10489003829834       -0.08616715213254
C            2.55263467772746       -1.28746506215008       -0.16809635968653
N            1.30178334632996       -1.77480874683591       -0.22092929289669
C            0.38757859183030       -0.79638636615591        0.02088294361339
C            1.03285355715563        0.45610152386247        0.10287437843302
C            0.24274247346530        1.57872527321351        0.31683416835293
O            0.11006419147229        2.70305527963000        0.75103756670248
N           -1.48638250811095        1.04436551186456       -0.09182967974259
C           -2.52307069205744        2.03856833924239       -0.37493545110348
C           -1.92193425392875       -0.18306518177507       -0.20507688660293
O           -3.02300395691155       -0.59756237124159       -0.54809449341743
N           -0.90089974997346       -1.12647343477796        0.21886662497512
C           -1.28904257218188       -2.50546900746463        0.31806041228566
H            4.26900499378105        0.58169303486497        1.02879917880423
H            4.24671505998872        1.09144911022414       -0.68559668939475
H            3.23719230024442        1.95933361929875        0.51013256941107
H            3.32999858106544       -1.89908766766309       -0.64968758832949
H           -2.19453403696229        3.01421665902479        0.00832430652510
H           -2.76219728472560        2.10266601951811       -1.45325603757428
H           -3.46476201348654        1.74544029643817        0.14245224320194
H           -0.56828005097750       -3.06652424249476        0.93637965052703
H           -1.40165895758257       -2.94031176313498       -0.69385268108640
H           -2.28583684838471       -2.51105942438682        0.79794845499969
H            0.93665222267171       -2.71354657630650       -0.35513145569805
25
 energy: 28.359451539687 xtb: 6.6.1 (8d0f1dd)
C            3.58863746595210        0.93589437794823        0.24459770869541
N            2.39839519086356        0.14931546847541       -0.05621610673752
C            2.55698544718729       -1.21905400812624       -0.22866408569404
N            1.29779004707053       -1.78371973346354       -0.22633547975741
C            0.37482895685753       -0.82780031701470       -0.02444991964678
C            0.99400946728749        0.42124678910821        0.11534612723314
C            0.19440376366249        1.57892935545164        0.34784762742445
O            0.27677246819141        2.70049728458598        0.72057375507224
N           -1.46998047718330        1.08159830654443       -0.06793721268154
C           -2.53590712268343        2.04777399263065       -0.39032706759946
C           -1.90697849467921       -0.16622373194991       -0.18946142531111
O           -2.99151751792213       -0.54705810847782       -0.48361993589111
N           -0.91037301841386       -1.14583454602684        0.17712060249932
C           -1.30607491942867       -2.51580842649155        0.33436022151525
H            4.21106267220280        0.48129695224407        1.00966428083789
H            4.21119811027048        1.03943771792910       -0.64223520448543
H            3.29997110234316        1.91133340065330        0.56855983715929
H            3.33800362096398       -1.71622876880413       -0.70330843994755
H           -2.28009351301567        3.02244141511212       -0.01501179814137
H           -2.71345744358052        2.10400128774061       -1.46537262513762
H           -3.47600531121139        1.71318837626530        0.06211458926115
H           -0.57033859019916       -3.05211709344804        0.90740371427648
H           -1.44127067900649       -2.96528831403246       -0.63088995009636
H           -2.23973584102067       -2.53628847210503        0.85920215141190
H            1.01188928342786       -2.72250460257668       -0.39592746811194
25
 energy: 28.846094519413 xtb: 6.6.1 (8d0f1dd)
C            3.60222983110324        0.90201799032017        0.27800660606483
N            2.38039749105484        0.17362365621134       -0.04385999510242
C            2.55193295302995       -1.19278784519338       -0.25706819020682
N            1.29300040273662       -1.76816307293443       -0.24856657962907
C            0.37299902450595       -0.81921568825143       -0.01608108995494
C            0.98298128738760        0.42986430978669        0.14482806660043
C            0.17919176358123        1.57853775570348        0.36484813707255
O            0.31091483147255        2.70359370664137        0.74614526719168
N           -1.48206076149417        1.10298399479236       -0.05462875060331
C           -2.56435404837802        2.04276824065651       -0.43515948553473
C           -1.90270833242254       -0.15236725360390       -0.15947223270455
O           -2.98223964577726       -0.55010578722320       -0.53670185009125
N           -0.90926140364644       -1.13090622871245        0.19936884108710
C           -1.29807790844913       -2.50191587547899        0.37891863020265
H            4.23195173420213        0.34738458766266        1.00104367963756
H            4.20809001856911        1.02544373159353       -0.62208345988922
H            3.38209569542921        1.88910374515556        0.68568365226233
H            3.32569151366915       -1.65213602908487       -0.83735613999592
H           -2.37974600541042        3.02885930328956       -0.01531614809163
H           -2.66913282497292        2.10536707928455       -1.52950740344974
H           -3.53522515739708        1.66097581575803       -0.05935371089344
H           -0.48831165600685       -3.03925027059712        0.89129896879548
H           -1.52542068647004       -2.95624769985076       -0.59160032977887
H           -2.19609600298967       -2.53438412365376        1.01323509102825
H            1.02337255460918       -2.70401544009935       -0.46958767786969
25