25
 energy: 0.000000000000 xtb: 6.6.1 (8d0f1dd)
C            3.23720163006194        1.16630919979326        0.08434469647475
N            2.29877817382611        0.07527477071623        0.03981603040599
C            2.58028210190900       -1.21425402444508        0.03006176031096
N            1.43813958087363       -1.93419271955128        0.00098261760884
C            0.39035688448383       -1.05887472636071       -0.00790371836672
C            0.93510056364412        0.21347819449412        0.01709077491437
C            0.09450143893243        1.40504303904423       -0.00410947031874
O            0.49712751527797        2.54126714362870       -0.00342325688240
N           -1.25076640035757        1.06271879480407       -0.03085478223738
C           -2.21907211982101        2.15522099834493       -0.05001256985998
C           -1.81739487048744       -0.20012725993278       -0.04692818574614
O           -2.99983886758376       -0.37846417018721       -0.07008878229737
N           -0.92618586207120       -1.30210215599479       -0.03682761578324
C           -1.46982264913417       -2.64643102187190       -0.06029820460571
H            3.71247264356769        1.21471455160235        1.06488849150277
H            4.00791497605742        1.03430808813993       -0.67357694370751
H            2.69910007168542        2.09770118228144       -0.09130154882931
H            3.56654120610678       -1.63682992603973        0.04233140067262
H           -1.67107961066214        3.09322851271934       -0.02552706933167
H           -2.82428953597071        2.09428624779827       -0.95318082946668
H           -2.87644029173232        2.07745725625962        0.81450067533302
H           -1.17061996399332       -3.19584890659852        0.83242232437030
H           -1.14560257411436       -3.17511610292205       -0.95688275822323
H           -2.55549792440841       -2.55659984320617       -0.07459039797972
H            1.38130855184625       -2.94313852034425       -0.01389874181052
25
 energy: -5.397576073353 xtb: 6.6.1 (8d0f1dd)
C            3.24416120847557        1.17724877170204        0.08676746772093
N            2.30813625003379        0.09546255492222        0.03773454483008
C            2.59952007542168       -1.23270834819179        0.02989297901355
N            1.42735684478875       -1.94020670697825        0.00069789185044
C            0.39639639792490       -1.05598400208993       -0.00819020999207
C            0.93028824224305        0.22268280450265        0.01540139647494
C            0.10170528685932        1.39617558668354       -0.00491974501185
O            0.49842004380793        2.56200060449900       -0.00407895563599
N           -1.26040458991026        1.05090697728283       -0.03115598635537
C           -2.22096563845442        2.14683681907480       -0.05005121810089
C           -1.82357540625194       -0.20038956780835       -0.04741687074204
O           -3.02018701734270       -0.38273482721825       -0.07067992123502
N           -0.93414047570228       -1.30065123350337       -0.03690180621658
C           -1.47166676895511       -2.64274409634008       -0.06000583119923
H            3.72230948920242        1.22311616223049        1.06886886144603
H            4.01226855229785        1.04225233740832       -0.67615774539302
H            2.69756103919842        2.10195351248633       -0.08890008356655
H            3.57767301755923       -1.65915161797814        0.04230550051060
H           -1.65973297332938        3.07826137018407       -0.02534464648765
H           -2.82628947399888        2.09343203003875       -0.95452451904826
H           -2.87877703240200        2.07655236425482        0.81562641214834
H           -1.16789050002620       -3.19401774993229        0.83193922207048
H           -1.14325129396331       -3.17326184934731       -0.95589703289606
H           -2.55696598375460       -2.55208618586933       -0.07409903194977
H            1.36026537421437       -2.94391710784076       -0.01387677608774
25
 energy: -6.446869856892 xtb: 6.6.1 (8d0f1dd)
C            3.25800693774292        1.18892349643923        0.09138118423163
N            2.32190835155311        0.10940989621887        0.03353176398291
C            2.61340797449370       -1.25358405492681        0.02896223720216
N            1.40907139488647       -1.93849211691080        0.00028254696230
C            0.40009240495727       -1.04710080009373       -0.00947174941625
C            0.92961444997633        0.23482144650433        0.01157391370306
C            0.10777395184261        1.38350717118418       -0.00800081618448
O            0.48051632500608        2.57065045722930       -0.00736752977777
N           -1.27453130670291        1.03428963322830       -0.03262867284111
C           -2.22368435168938        2.13298023357556       -0.05045071418953
C           -1.83217476571081       -0.20366131388360       -0.04864843370239
O           -3.03522267270295       -0.39371335980732       -0.07174749413018
N           -0.94257460372378       -1.29440722493223       -0.03709240234912
C           -1.47198589746498       -2.63484783302695       -0.05886132452977
H            3.74836046031587        1.24191718179833        1.07073872999374
H            4.02427229993942        1.06947814231247       -0.67904105525664
H            2.70132816222754        2.10987517427382       -0.07651170730232
H            3.58185655369256       -1.69798607755789        0.04188365493056
H           -1.63174898014307        3.04611858615757       -0.02497071194579
H           -2.82982899198644        2.09193743504123       -0.95615379849400
H           -2.88250679066699        2.07457704965039        0.81650456935392
H           -1.16257404494858       -3.18727054800229        0.83192020164174
H           -1.13957457379440       -3.16700770606789       -0.95377087965158
H           -2.55745093552344       -2.54220161103278       -0.07199685960972
H            1.31986331636004       -2.93918465519923       -0.01303075647407
25
 energy: -3.381728599641 xtb: 6.6.1 (8d0f1dd)
C            3.28435316187846        1.20481464741055        0.10119375694037
N            2.34605899581488        0.11908933998515        0.02640594757811
C            2.62115369730193       -1.28384611681643        0.02474411171174
N            1.37902717447547       -1.93137486498756       -0.00112152454226
C            0.40104423451387       -1.02870949790371       -0.01322637352979
C            0.93673642313774        0.25268088576451        0.00366265838090
C            0.10782612969634        1.37098198279761       -0.01740228443747
O            0.43437629748644        2.58017542058145       -0.01895405750623
N           -1.29654751546990        1.00864093297253       -0.03816187030867
C           -2.22725906456370        2.11077851244776       -0.05259932399335
C           -1.84838317878603       -0.21521732684399       -0.05229890405313
O           -3.05443027465965       -0.42108606852787       -0.07446902495184
N           -0.95015994090676       -1.28363301323212       -0.03788023443835
C           -1.46727709919750       -2.62256426145500       -0.05469654500904
H            3.80708453546929        1.26754765652133        1.06835132748442
H            4.04541409619167        1.13697481504827       -0.68653466541408
H            2.71291153015292        2.12502363221906       -0.03371673411359
H            3.57074519026671       -1.77260957906748        0.03939542408397
H           -1.57663119590972        2.98690736647633       -0.02512098828441
H           -2.83540390594657        2.09084928632576       -0.95906845290033
H           -2.88673331050755        2.07115541645340        0.81635424330199
H           -1.14927472868360       -3.17121239697047        0.83610303281856
H           -1.13237498522997       -3.15420152743961       -0.94956784237554
H           -2.55305995804056       -2.52386078488756       -0.06412961246389
H            1.24301835945197       -2.92827585469987       -0.01022816783084
25
 energy: 1.636531604679 xtb: 6.6.1 (8d0f1dd)
C            3.30846635460241        1.21591165192764        0.11473125305464
N            2.36685930524908        0.12262543655945        0.02004596589125
C            2.61920658418085       -1.30726946426083        0.01549204838189
N            1.35323968639595       -1.92508231452606       -0.00475478057029
C            0.39891301154871       -1.00958544182390       -0.01890957405852
C            0.94649404913129        0.26781558307479       -0.00540409610658
C            0.10066932085349        1.36718080296003       -0.03224832412013
O            0.39056114704678        2.58927332739291       -0.03881377108946
N           -1.31430415633221        0.98892103936888       -0.04852290096670
C           -2.22993674956883        2.09499812445857       -0.05757054825632
C           -1.86429060688602       -0.22819981138557       -0.05839300523472
O           -3.07060326571384       -0.44937804535813       -0.07832803284343
N           -0.95292559577203       -1.27515831574369       -0.03952519362581
C           -1.45693231895469       -2.61483679757807       -0.04652193024326
H            3.87567634132606        1.26594588203550        1.06273209516536
H            4.05405652012179        1.21631895919800       -0.70096747485807
H            2.72311308007981        2.13947622478493        0.04035226501790
H            3.54742169147846       -1.84319204177799        0.03325770507722
H           -1.53124016570990        2.93852718042477       -0.02787131715580
H           -2.84040743631100        2.09348088816570       -0.96342674350138
H           -2.88748989211312        2.06907246177720        0.81397577256743
H           -1.12878594366956       -3.15409759079708        0.84647141247831
H           -1.12348888974744       -3.14530501630424       -0.94240527244782
H           -2.54280656031096       -2.51117855103347       -0.04899093408943
H            1.17074915701103       -2.91723556936729       -0.00737072231904
25
 energy: 8.871082537119 xtb: 6.6.1 (8d0f1dd)
C            3.33365136453568        1.22464093005260        0.13709888859886
N            2.38685679165406        0.12539135677760        0.01185027568833
C            2.61227530958685       -1.33005894996510       -0.00219360406365
N            1.32521391742376       -1.91815052295658       -0.01314443796140
C            0.39489413907086       -0.98699179824485       -0.02835811514230
C            0.95656439364597        0.28471037427771       -0.01845935821034
C            0.09123190246951        1.36624796463569       -0.05676014419707
O            0.34873936366757        2.59815989125248       -0.07198016181457
N           -1.33203646212119        0.97163384105700       -0.06712624378551
C           -2.23361583113143        2.08291152808720       -0.06730404546535
C           -1.88141092589202       -0.24096635359903       -0.06878401641351
O           -3.08697969682727       -0.47843985854875       -0.08436037110407
N           -0.95477668933422       -1.26601675864891       -0.04263566007072
C           -1.43976228008285       -2.60950860706153       -0.03095850215085
H            3.96860308204057        1.22839749759195        1.05422733398590
H            4.04457595699981        1.31982368701551       -0.72565905168533
H            2.73227968680010        2.15525017797573        0.16752064481430
H            3.51392891382280       -1.91884740418665        0.02077474351031
H           -1.49458104492498        2.89632116933308       -0.03507308616246
H           -2.84770235808768        2.10043149077351       -0.97100085694095
H           -2.88635756258796        2.06742772002374        0.80823641883977
H           -1.09454916502200       -3.13290018589021        0.86578206410881
H           -1.11064068920491       -3.14122307036323       -0.92743932717360
H           -2.52589993870859       -2.50580889099896       -0.02084908507532
H            1.09171249014364       -2.90340662621790       -0.00637040598196
25
 energy: 17.056800754570 xtb: 6.6.1 (8d0f1dd)
C            3.35605354377707        1.22835531907649        0.16919235366577
N            2.40219363156276        0.12662925155656        0.00158958467890
C            2.60015835330619       -1.34848163800464       -0.02891799664414
N            1.29884311718662       -1.91098364195547       -0.02833913367773
C            0.38908389968649       -0.96393670465126       -0.04244400817780
C            0.96507355287595        0.30102567594339       -0.03617801844960
C            0.08120201690547        1.36934525934929       -0.09158040826204
O            0.31682614779787        2.60489759765629       -0.11824346451108
N           -1.34743913512144        0.96132264662555       -0.09485554116315
C           -2.23944285400967        2.07739962833300       -0.08176318622397
C           -1.89726237469513       -0.25046614687500       -0.08378712487455
O           -3.10056337880383       -0.50297695352194       -0.09252314629516
N           -0.95561052368083       -1.25675253905264       -0.04775987868186
C           -1.41641311406560       -2.60740042892524       -0.00676735470647
H            4.07780501309308        1.14954445536472        1.04146003075666
H            4.01144378141216        1.43718254023273       -0.75280873342229
H            2.74395459023775        2.16696057886000        0.34511055387297
H            3.47315499075698       -1.98759191648383        0.00076658521929
H           -1.47717067473268        2.86951927072508       -0.04677874283789
H           -2.85866499183823        2.11187349276369       -0.98134818489321
H           -2.88418781959272        2.06516334287133        0.79917667244153
H           -1.04579973644984       -3.10796573630802        0.89478592208258
H           -1.09501072432447       -3.14436223733019       -0.90270331684419
H           -2.50315894923741       -2.51198830298578        0.02256455358552
H            1.01714630588944       -2.88728421109201       -0.01081412049080
25
 energy: 25.389364885982 xtb: 6.6.1 (8d0f1dd)
C            3.37346411287757        1.22522071495381        0.21076707661580
N            2.41063179317582        0.12653513932931       -0.01016576580036
C            2.58366167846850       -1.35978518238918       -0.06301119962028
N            1.27665762716613       -1.90319021393260       -0.05206475497371
C            0.38182880400959       -0.94246011815987       -0.06193724757503
C            0.97058283632893        0.31560370743966       -0.05904903918432
C            0.07121272895098        1.37660207447663       -0.13534185144122
O            0.29569167588579        2.60981230083019       -0.17505005902136
N           -1.35954743950486        0.95901227964795       -0.13045127453804
C           -2.24795538788940        2.07841704993518       -0.09850611285815
C           -1.91038272770886       -0.25545367936316       -0.10270326774926
O           -3.10994285003324       -0.52031582311395       -0.10196249771711
N           -0.95587436465657       -1.24768169754225       -0.05555692390906
C           -1.38867235121076       -2.60788371118518        0.02527687449357
H            4.18425512281956        1.04304685857819        1.02497456053577
H            3.96174211268077        1.55013321205669       -0.76399061137620
H            2.76632788119283        2.16642520018532        0.54700510927166
H            3.42907250459835       -2.04059600918522       -0.02732247202691
H           -1.48037783734095        2.86067018929893       -0.05998298427021
H           -2.87445168582594        2.12780739324438       -0.99189444346542
H           -2.88190268007119        2.06067058669929        0.78925412791014
H           -0.98406429658806       -3.07932997222978        0.93162340224240
H           -1.07870148946845       -3.15472037326617       -0.86873111206078
H           -2.47617220612212       -2.53019586134724        0.08101013203338
H            0.95513110620141       -2.86931546278876       -0.02515576936803
25
 energy: 32.486057147327 xtb: 6.6.1 (8d0f1dd)
C            3.38620692278198        1.21301018233454        0.26186819317139
N            2.41196405201511        0.12524705927043       -0.02237037713126
C            2.56408202088253       -1.36312197075802       -0.10280530814697
N            1.25932857596313       -1.89412194408673       -0.08641136018213
C            0.37342314674321       -0.92318102293680       -0.08803952059298
C            0.97249793431581        0.32856752660248       -0.08745209903946
C            0.06122776724734        1.38775192294351       -0.18664002824453
O            0.28206833824845        2.61467882038591       -0.24130824689545
N           -1.36859770410660        0.96379049824263       -0.17245281909147
C           -2.25911400991915        2.08469232256995       -0.11462786523968
C           -1.92050395922189       -0.25584090924965       -0.12489941280922
O           -3.11538806232798       -0.52971721658814       -0.11176592903290
N           -0.95629225232254       -1.23879988788973       -0.06684832904387
C           -1.35793228908417       -2.60970333203005        0.06428015352255
H            4.26761010194312        0.92882418684514        1.01092651165766
H            3.91012753726073        1.64143209614283       -0.74252003147934
H            2.80342159955661        2.14729431892787        0.74337761274658
H            3.38535785839614       -2.07433414750630       -0.06471633017581
H           -1.50060450628685        2.86825254885133       -0.07073148707342
H           -2.89600313562044        2.14874182550233       -0.99944814389312
H           -2.87978678541036        2.05226164244920        0.78143605788760
H           -0.91039928826508       -3.04606099715563        0.97418020681526
H           -1.06361113609183       -3.17153676050111       -0.82619245761467
H           -2.44576086764202       -2.55904217447117        0.15469770681005
H            0.90889280888051       -2.85005598572258       -0.05450280077754
25
 energy: 36.055891897040 xtb: 6.6.1 (8d0f1dd)
C            3.39517581326325        1.19053001156786        0.32065070959822
N            2.40731732303918        0.12261065426633       -0.03399845478677
C            2.54339117753368       -1.35861795752008       -0.14612665845311
N            1.24727843590453       -1.88348642801815       -0.13230303362411
C            0.36439227857867       -0.90631563260698       -0.12120331101519
C            0.97111411896521        0.34019305489310       -0.12059853937877
C            0.05133724007690        1.40220162934809       -0.24351546786165
O            0.27302752035777        2.62081049676193       -0.31627512191306
N           -1.37490343852776        0.97435966791605       -0.21914819532626
C           -2.27229346068515        2.09471557252132       -0.12807593101942
C           -1.92771470901239       -0.25197156228573       -0.14964314297965
O           -3.11761706497656       -0.53101651342557       -0.12147284116862
N           -0.95730476850570       -1.23026047916050       -0.08191549823178
C           -1.32568647363113       -2.61138333155725        0.10915694052908
H            4.31443401422860        0.82192913650330        1.00765210028032
H            3.86962442838085        1.69940385912088       -0.68225642106423
H            2.85073043340834        2.10772063506989        0.91297663514428
H            3.34599345714159       -2.08798347420493       -0.11124909341581
H           -1.53334850991718        2.88929076931265       -0.07600860757933
H           -2.92310286179271        2.17456944188616       -1.00176957385042
H           -2.87775747147604        2.03852370867440        0.77737063566873
H           -0.82760862075578       -3.00721735688371        1.02017744372286
H           -1.05156812055372       -3.19381115273816       -0.77565316989386
H           -2.41244670030874       -2.59520039734766        0.24286233069066
H            0.87975062719990       -2.83056574992096       -0.10259983792483
25
 energy: 32.369698827898 xtb: 6.6.1 (8d0f1dd)
C            3.40204863265965        1.15439884928438        0.39547304930363
N            2.39869286908884        0.11105440341904       -0.04851580194341
C            2.50457753919960       -1.33200983451440       -0.19339274036173
N            1.24877197010317       -1.86455536268319       -0.18948328365130
C            0.34969580476206       -0.88413406501503       -0.16291667900151
C            0.97622034401450        0.35065369303317       -0.16253573750973
C            0.03146227736048        1.43123216650461       -0.31719362927091
O            0.26266529401255        2.61772062578092       -0.41776938661103
N           -1.37362462951011        0.99457389091446       -0.28407150033061
C           -2.28768825177360        2.11311491086679       -0.14024098317526
C           -1.93506954856423       -0.25079023160140       -0.18046104476992
O           -3.10868193369563       -0.53222454816907       -0.13793533786604
N           -0.95212296944061       -1.22408962015099       -0.10310485817019
C           -1.27724530404602       -2.61311496944210        0.16615042772932
H            4.34617075024370        0.69878445799589        0.94399337157287
H            3.78384321450777        1.76978965734854       -0.54577986054060
H            2.94673929356293        1.98777466583352        1.11551067461662
H            3.27315241769250       -2.08854005004288       -0.16692143078189
H           -1.58896354187075        2.93188801030120       -0.07510497923428
H           -2.95528407473661        2.21523890245956       -0.99634202527228
H           -2.87240485234569        2.01463406307964        0.77680876155589
H           -0.72200464270631       -2.95391010200430        1.06823682886390
H           -1.03714184356518       -3.22184896389341       -0.71212749307439
H           -2.35685491938272       -2.64430752017061        0.35659604428194
H            0.85526077236521       -2.79230442696204       -0.16183849021184
25
 energy: 34.256295082246 xtb: 6.6.1 (8d0f1dd)
C            3.41926585030241        1.12764543707895        0.45896640636217
N            2.40779292359777        0.10502970247032       -0.06493184838534
C            2.48607255784994       -1.30932455448391       -0.22823462367931
N            1.24334005860022       -1.83763770377416       -0.23807344602211
C            0.33962256779746       -0.85636738061531       -0.19934454201066
C            0.98676939517388        0.36885386790487       -0.19565350366202
C            0.02092253283684        1.44847228848868       -0.36801349641819
O            0.22667676223740        2.62940021762224       -0.52193040983436
N           -1.37562048848278        0.99684295180573       -0.33428300694406
C           -2.29793619238397        2.11312857801234       -0.15051212481927
C           -1.94401167452087       -0.25417600444001       -0.20760232957427
O           -3.10777693762146       -0.53851643379929       -0.15222563152987
N           -0.95463066410227       -1.21644744006817       -0.11985436627145
C           -1.23736085522241       -2.60289460848254        0.21503177523644
H            4.36910542272863        0.61577184454441        0.84243562891453
H            3.69168335926203        1.85426058129817       -0.39529078969749
H            3.03852698089845        1.82717078819887        1.30360552378350
H            3.21960950827016       -2.10407767925593       -0.21250418323705
H           -1.61079496138631        2.94524220048647       -0.06894462195656
H           -2.98045017323135        2.24598605641194       -0.99091042941191
H           -2.87024875038840        1.98569035089071        0.77162036106488
H           -0.63655784819402       -2.89674951190056        1.09797056930304
H           -1.02516515181598       -3.23931470746003       -0.65214583123711
H           -2.30282119880497       -2.67028467722873        0.45451080470821
H            0.80620164453504       -2.74867556153265       -0.21665198853451
25
 energy: 37.806915180582 xtb: 6.6.1 (8d0f1dd)
C            3.42354844393626        1.09361929306912        0.51501962125738
N            2.40788107386365        0.10108976209316       -0.07544685804607
C            2.47907533914013       -1.28868069578958       -0.25445048634591
N            1.23870280428653       -1.81677209346584       -0.28350911323183
C            0.33352969817458       -0.83695798136064       -0.23183638414278
C            0.98620041162940        0.38660340046948       -0.21935561898508
C            0.02013945044376        1.46300323473492       -0.41397425821773
O            0.20821411126148        2.64187776468063       -0.62685482446705
N           -1.37694069766213        1.00571021662772       -0.37319510515585
C           -2.30653828365356        2.11442246243142       -0.16151358031614
C           -1.94482440572236       -0.24830209097341       -0.23403151112562
O           -3.10884796718202       -0.53310916511274       -0.16480239969042
N           -0.95813506966791       -1.21015745371067       -0.13501578613720
C           -1.20722521276650       -2.59067781055725        0.25846663736000
H            4.39983140599876        0.52127874108267        0.73850478158469
H            3.58949006699246        1.92693449943257       -0.26348236020061
H            3.10004880112423        1.66188600291106        1.49692353685366
H            3.19562020876465       -2.08846664946013       -0.24984608642490
H           -1.64630581897294        2.96490318561514       -0.06233730498988
H           -2.99711586306434        2.26614615349364       -0.98976163080494
H           -2.87162610011897        1.95325701443992        0.75925335286355
H           -0.56214217270069       -2.83945511204510        1.12619011644912
H           -1.02012003771048       -3.25999172303840       -0.59251821949924
H           -2.25785970597662       -2.68444869097005        0.54751895570824
H            0.78761418751794       -2.71468366242517       -0.28291157814815
25
 energy: 33.831239096918 xtb: 6.6.1 (8d0f1dd)
C            3.42221759669456        1.06970178205622        0.54444990098221
N            2.41242226639064        0.10004007087242       -0.07668252210787
C            2.47862686455620       -1.25322070122281       -0.24856920213132
N            1.25068597455948       -1.79698776270166       -0.30536558665098
C            0.33096478963588       -0.82389429208159       -0.24624743274583
C            0.99046710553595        0.40168044569676       -0.22267317745630
C            0.02294395651201        1.47842975098789       -0.43094390921262
O            0.19436213637836        2.63968782862007       -0.69646271636236
N           -1.37048137300802        1.01323332349525       -0.38284928624006
C           -2.30718973227875        2.11038627242806       -0.16102963112733
C           -1.94075369039691       -0.24641454036783       -0.24248717640419
O           -3.10339903675754       -0.52439267032538       -0.17361178057599
N           -0.95763793332931       -1.21307321199751       -0.14178068387397
C           -1.18870132131345       -2.57258650836190        0.27754733982618
H            4.36978850309260        0.52441920794027        0.54708738390226
H            3.45213921602652        1.97472096650163       -0.07189200975824
H            3.19304363225302        1.40606152243428        1.58140203975030
H            3.18400105204310       -2.05437741440680       -0.26215143789693
H           -1.67082386606029        2.97728847579420       -0.04597225306129
H           -2.99541479883466        2.27111542288099       -0.98195948291893
H           -2.87480296379265        1.92333648788382        0.74936885805836
H           -0.53419548555609       -2.79705748487762        1.11307034561005
H           -1.01993579298074       -3.26440535649476       -0.55584588104028
H           -2.21518945425501       -2.67088297396641        0.59435124649156
H            0.78907702282044       -2.68378003861511       -0.33371904890921
25
 energy: 36.449044871896 xtb: 6.6.1 (8d0f1dd)
C            3.41472220887739        1.02340537185233        0.61631475385987
N            2.39501422246037        0.12193959214278       -0.07595111204090
C            2.48695330377317       -1.25856011749490       -0.28376668511685
N            1.22563473053658       -1.79048195990125       -0.36435368067673
C            0.33039887882329       -0.81271296325680       -0.28881951895543
C            0.96068702205410        0.43076114063484       -0.24393319854834
C            0.03531047959982        1.48675383629479       -0.49419836631202
O            0.19480237346398        2.65879473697631       -0.80454132163544
N           -1.38648420045089        1.02777169066431       -0.41185309058867
C           -2.32156831749535        2.11325630885047       -0.17364330498039
C           -1.93654039481847       -0.22166239148654       -0.27088832208576
O           -3.11782003549506       -0.49750510175542       -0.18780974125152
N           -0.96884760058088       -1.20083063003711       -0.16928341545469
C           -1.16880655935944       -2.56045663565600        0.32443221247376
H            4.40196870340138        0.44657761973782        0.48708213184414
H            3.36444778944681        2.03481315332833        0.06385322074611
H            3.24400080301237        1.24416103178343        1.76116470550316
H            3.22035625487319       -2.02775606103152       -0.30753767527098
H           -1.70753214573065        2.99442195260871       -0.03545719671054
H           -3.02037473980556        2.28460810241824       -0.99178813230058
H           -2.88457212083267        1.89259378992728        0.73429407587962
H           -0.43431619482609       -2.73303426943784        1.15716659409113
H           -1.02105745576497       -3.29428169544808       -0.48351655806188
H           -2.18797927381801       -2.68278703402156        0.71259927215504
H            0.79381693659080       -2.69076086552009       -0.44253175041492
25