25
 energy: 0.000000000000 xtb: 6.6.1 (8d0f1dd)
C            3.23720163006194        1.16630919979326        0.08434469647475
N            2.29877817382611        0.07527477071623        0.03981603040599
C            2.58028210190900       -1.21425402444508        0.03006176031096
N            1.43813958087363       -1.93419271955128        0.00098261760884
C            0.39035688448383       -1.05887472636071       -0.00790371836672
C            0.93510056364412        0.21347819449412        0.01709077491437
C            0.09450143893243        1.40504303904423       -0.00410947031874
O            0.49712751527797        2.54126714362870       -0.00342325688240
N           -1.25076640035757        1.06271879480407       -0.03085478223738
C           -2.21907211982101        2.15522099834493       -0.05001256985998
C           -1.81739487048744       -0.20012725993278       -0.04692818574614
O           -2.99983886758376       -0.37846417018721       -0.07008878229737
N           -0.92618586207120       -1.30210215599479       -0.03682761578324
C           -1.46982264913417       -2.64643102187190       -0.06029820460571
H            3.71247264356769        1.21471455160235        1.06488849150277
H            4.00791497605742        1.03430808813993       -0.67357694370751
H            2.69910007168542        2.09770118228144       -0.09130154882931
H            3.56654120610678       -1.63682992603973        0.04233140067262
H           -1.67107961066214        3.09322851271934       -0.02552706933167
H           -2.82428953597071        2.09428624779827       -0.95318082946668
H           -2.87644029173232        2.07745725625962        0.81450067533302
H           -1.17061996399332       -3.19584890659852        0.83242232437030
H           -1.14560257411436       -3.17511610292205       -0.95688275822323
H           -2.55549792440841       -2.55659984320617       -0.07459039797972
H            1.38130855184625       -2.94313852034425       -0.01389874181052
25
 energy: -5.397921265386 xtb: 6.6.1 (8d0f1dd)
C            3.24407915365798        1.17730386506581        0.08676319661033
N            2.30809613072026        0.09548099216979        0.03772585907168
C            2.59950166868495       -1.23268669913570        0.02994390905277
N            1.42734744978691       -1.94020608207803        0.00073239258786
C            0.39637168624412       -1.05600193226410       -0.00821952986056
C            0.93025456969851        0.22266986045496        0.01534621541058
C            0.10168603182326        1.39615155477687       -0.00503668160997
O            0.49837744778360        2.56198668082588       -0.00427058166249
N           -1.26039666260607        1.05084871556445       -0.03114131457581
C           -2.22083147761035        2.14685880106100       -0.04998390706178
C           -1.82360876268475       -0.20044687679161       -0.04738091182025
O           -3.02023103729565       -0.38280436876298       -0.07059019331608
N           -0.93416354392541       -1.30069154478468       -0.03695210187562
C           -1.47168533487240       -2.64278474829306       -0.06007016969512
H            3.72224138509715        1.22316620347647        1.06885867793115
H            4.01217378811034        1.04235492772322       -0.67618332121925
H            2.69743865795893        2.10199579396249       -0.08886895053711
H            3.57766092040988       -1.65911349905592        0.04243111878913
H           -1.65947012815954        3.07822075248326       -0.02534893328903
H           -2.82618157574400        2.09345084377610       -0.95443263000003
H           -2.87856497411232        2.07665482917606        0.81575789521282
H           -1.16796894306745       -3.19401275750988        0.83192863797139
H           -1.14319576542504       -3.17333366517010       -0.95592494150059
H           -2.55698842385537       -2.55211488805096       -0.07425617317111
H            1.36027240731867       -2.94391815644734       -0.01379366529562
25
 energy: -6.545018159992 xtb: 6.6.1 (8d0f1dd)
C            3.25489864182283        1.18675370456888        0.09044421630689
N            2.31873062050835        0.10813843127834        0.03377000638599
C            2.61132579397000       -1.25027513260338        0.02949699048131
N            1.41160039109497       -1.93856279222619        0.00063613226516
C            0.39978000548497       -1.04901909092181       -0.00926870310033
C            0.92840981767081        0.23295452530043        0.01194847594834
C            0.10757792050095        1.38397633855627       -0.00783097204843
O            0.48295873388984        2.56820639260989       -0.00753122081265
N           -1.27280623260190        1.03673992226529       -0.03228371783576
C           -2.22254603226828        2.13605644332989       -0.05008866523845
C           -1.82966493453320       -0.20290543533501       -0.04826009424915
O           -3.03158683108815       -0.39222108704240       -0.07118956973243
N           -0.94145522640325       -1.29566124850473       -0.03719010458555
C           -1.47181046214070       -2.63636338091194       -0.05934534529568
H            3.74309655701868        1.23808520297642        1.07030543367365
H            4.02167358432275        1.06448539920929       -0.67852677213486
H            2.70034218499225        2.10848976898009       -0.07869799846468
H            3.58104202928033       -1.68987996322413        0.04253945729091
H           -1.63607000243848        3.05265021907918       -0.02506129898333
H           -2.82887524584315        2.09297489798608       -0.95531561692446
H           -2.88099166279476        2.07599730809367        0.81677962110507
H           -1.16390731911385       -3.18885854113505        0.83178758744185
H           -1.13996142585413       -3.16869382562122       -0.95426175522891
H           -2.55721992736325       -2.54436969765273       -0.07308991718552
H            1.32767368982254       -2.93966975688311       -0.01273227293169
25
 energy: -5.988930491532 xtb: 6.6.1 (8d0f1dd)
C            3.26741979577398        1.19391725226094        0.09539856836755
N            2.33014790430561        0.11184082032456        0.02890974362280
C            2.61341927068280       -1.26541543013869        0.02769856828510
N            1.39618964870192       -1.93409534197294        0.00054551721229
C            0.39994854716895       -1.04017090337342       -0.01137180106876
C            0.93167851004354        0.24180098709290        0.00704138251718
C            0.10768156594565        1.37743350419788       -0.01389696699393
O            0.45587023260043        2.57154789387438       -0.01551009837067
N           -1.28497989507371        1.02412329352276       -0.03543277231362
C           -2.22352096299392        2.12650553009521       -0.05083981691208
C           -1.83705610328844       -0.20938019656600       -0.05007481084785
O           -3.03923097811548       -0.40824899434773       -0.07208867895838
N           -0.94468513768773       -1.29046728347690       -0.03775487871796
C           -1.46830310370179       -2.63078729287412       -0.05743918649328
H            3.77314980459868        1.24866545939808        1.06836093954177
H            4.03148314627450        1.10101698303527       -0.68279417004516
H            2.70621345088130        2.11652059676494       -0.05415062602285
H            3.57348558268009       -1.72722008127400        0.04209982483442
H           -1.60643723524173        3.02372642503068       -0.02530776388051
H           -2.83165425984681        2.09472471990189       -0.95575650801565
H           -2.88164583743917        2.07677485343323        0.81739728293089
H           -1.15707961922119       -3.18104381798024        0.83411622574575
H           -1.13531192435370       -3.16290197255193       -0.95222956845120
H           -2.55392326712533       -2.53613112965427       -0.06991015140957
H            1.28935553236772       -2.93370727255046       -0.00997635840900
25
 energy: 3.177032177545 xtb: 6.6.1 (8d0f1dd)
C            3.31004699062320        1.21565913141576        0.11658880759170
N            2.37016066641064        0.11773381684091        0.01023371506886
C            2.61162579888221       -1.31429203833813        0.01758030807980
N            1.34460259014018       -1.91752112039977       -0.00052910547499
C            0.39742808793453       -1.00647946744135       -0.02092587857712
C            0.94776103628295        0.27199542696762       -0.01336069750601
C            0.10268884635170        1.36282104539737       -0.04233683442542
O            0.35637223624922        2.58408039870770       -0.05375941209973
N           -1.32529238229882        0.98325585615063       -0.05145798351310
C           -2.22544590491141        2.09810092262641       -0.05542343277824
C           -1.86435418193899       -0.23493133049824       -0.05879558297722
O           -3.06427882993333       -0.46843718444204       -0.07585609265891
N           -0.95139437903296       -1.27333338135036       -0.04064237233148
C           -1.44915206137851       -2.61519448278348       -0.04752393040066
H            3.89039552615448        1.26057224668735        1.05833666665259
H            4.05429507292553        1.24693503984214       -0.70601719075892
H            2.72331665315706        2.14461986800332        0.06459089779042
H            3.53414429186916       -1.86224272248491        0.03898605836172
H           -1.50548240538452        2.92823744018984       -0.02857009802413
H           -2.84182327543546        2.10660515882974       -0.95710915700182
H           -2.87956394908396        2.08312252755569        0.81884707284910
H           -1.12530920901228       -3.15230849024388        0.84759124608072
H           -1.11470446120468       -3.14569828692226       -0.94243736783704
H           -2.53554186567558       -2.51295108255916       -0.05351086273240
H            1.15171977624577       -2.91132068957885        0.00253512276957
25
 energy: 25.715082108961 xtb: 6.6.1 (8d0f1dd)
C            3.35113513154027        1.23714999852398        0.14410924392682
N            2.41085736702440        0.12294969637628       -0.01303232922860
C            2.60517868584188       -1.36409605541615        0.00395895566291
N            1.29024062941445       -1.89665555187862       -0.00201012835118
C            0.39313654801314       -0.96648806726593       -0.03375317182160
C            0.96575768163797        0.30704350606099       -0.03965690040065
C            0.09881531119212        1.35339501103719       -0.08092223874816
O            0.24901660911932        2.59771451036644       -0.10555121728829
N           -1.36817919849116        0.94276334684043       -0.07424059458737
C           -2.22550073005256        2.07076510268164       -0.06191053824188
C           -1.89415873936086       -0.26187085162767       -0.07087041112116
O           -3.08941363837771       -0.53396693844243       -0.08052702807328
N           -0.95622097899975       -1.25352242242357       -0.04511615767804
C           -1.42199441947188       -2.59952005665123       -0.03363846202975
H            4.02383590363490        1.24115782260229        1.04551170760004
H            4.05611314374628        1.40797182538328       -0.73940498004757
H            2.73962283832709        2.17737768954497        0.22499916939495
H            3.48443209076027       -2.00576474696455        0.03431190567948
H           -1.40220877496035        2.82897896139565       -0.03391923335194
H           -2.84979465912044        2.11858491874406       -0.95904980335136
H           -2.86964683466876        2.08567763435730        0.82122213806598
H           -1.08167269946603       -3.11756024596261        0.86680379992063
H           -1.08720123100989       -3.12858617656471       -0.92849098030236
H           -2.50970754528508       -2.49255100383302       -0.03041405655963
H            0.99977217694838       -2.88191930471192        0.01862520707926
25
 energy: 30.050774823798 xtb: 6.6.1 (8d0f1dd)
C            3.35074188171684        1.23920651359266        0.16142156825989
N            2.41938226670973        0.11762473825641       -0.02912719436693
C            2.58917365684829       -1.37237392328055       -0.00052752568628
N            1.28027596577118       -1.88005902941213       -0.00042857394669
C            0.38809257983691       -0.94385859935797       -0.04368417672450
C            0.97752371655318        0.32435013242243       -0.05938592462155
C            0.10753727223930        1.37083280935388       -0.11170781191290
O            0.21728426255354        2.59662299194851       -0.14487169051073
N           -1.38057780542288        0.94247025965228       -0.09339488855006
C           -2.22250392357802        2.07030005800839       -0.06445622289097
C           -1.90346021869854       -0.26933054490972       -0.08045882888083
O           -3.08734029581754       -0.55949963851452       -0.08323579106325
N           -0.94783564436810       -1.24251719800378       -0.05023622786230
C           -1.39658623729656       -2.59563222344432       -0.02399470782096
H            4.07139410033007        1.16804807402801        1.03387428160196
H            4.00391650339468        1.45295917030746       -0.75881746827105
H            2.74812933835906        2.19168140614026        0.33231257572571
H            3.44647288731865       -2.04632222320389        0.03222789787351
H           -1.39549144918595        2.80797964884737       -0.03540366234117
H           -2.84360339446995        2.11537672296331       -0.95796016990281
H           -2.84871173168861        2.06796043750383        0.82596104299704
H           -1.04859382455234       -3.09636326393560        0.88166056696569
H           -1.06816593009894       -3.12312951515758       -0.91978594659166
H           -2.48643570103862       -2.49204381584782       -0.01300395876256
H            0.94159639252057       -2.85525438578477        0.03005673343064
25
 energy: 25.754589373420 xtb: 6.6.1 (8d0f1dd)
C            3.33114438799973        1.21720056847040        0.19170877122499
N            2.41341686095620        0.08753328863581       -0.05068834395588
C            2.54494713808075       -1.35226736025728        0.00060440736787
N            1.30225406259149       -1.86137972872416        0.00440780836035
C            0.37491224497958       -0.91813516861123       -0.06405791381168
C            1.00190916006735        0.33199677920887       -0.09541113861793
C            0.13640828869905        1.42722905015713       -0.17323469207700
O            0.23874012449577        2.58723258576298       -0.23021223274967
N           -1.37458184346781        0.96850558374176       -0.13454388344110
C           -2.22821278221178        2.09371497995592       -0.06225207547999
C           -1.91036563905483       -0.27024077858518       -0.10046193922019
O           -3.07107604526793       -0.57652633323965       -0.08662545907083
N           -0.92040201936384       -1.23536970759561       -0.06408407804619
C           -1.34919670563054       -2.60466268380713       -0.00669733054208
H            4.10377981666533        1.00924504216148        0.99476300702868
H            3.88363066212018        1.48006260349859       -0.75063662633265
H            2.77419326221010        2.16105242485046        0.49544740607097
H            3.37039333673389       -2.04223490722324        0.02504922557244
H           -1.48622752381524        2.84452070180824       -0.02901403459226
H           -2.84637104428470        2.12938278428984       -0.94764559419889
H           -2.82011794751661        2.03737004173930        0.84243077818458
H           -0.98932308003191       -3.07096488541670        0.90904657679989
H           -1.03829434326626       -3.13042276135234       -0.90540535242742
H           -2.44232877669777       -2.51848315802892        0.02067967855570
H            0.91298307294565       -2.80533035926716        0.04386693154556
25
 energy: 41.696375987433 xtb: 6.6.1 (8d0f1dd)
C            3.34882757334018        1.20668584099061        0.23227744651665
N            2.43321970839826        0.07407263895085       -0.07568879004685
C            2.52052364256245       -1.36412749446485       -0.00702333240400
N            1.27926681208221       -1.84122898451342        0.00387223887862
C            0.36503596452262       -0.88047668596724       -0.08622053755512
C            1.02399151192271        0.35664063998614       -0.13554498336801
C            0.14873875358937        1.45204994963975       -0.23838489361789
O            0.18444030908926        2.61729952701207       -0.34277808899621
N           -1.39111764810265        0.96068587527923       -0.17798066736354
C           -2.23415695007321        2.09398301779515       -0.06353832473544
C           -1.93004349439827       -0.28213297765429       -0.12373389556864
O           -3.07948209900469       -0.61599926859413       -0.09110085616281
N           -0.91296324810174       -1.22246764175426       -0.07817337220419
C           -1.30479042883393       -2.60582943026156        0.01415581017894
H            4.20568651117343        0.88312335993746        0.96193532395606
H            3.80937983437880        1.59485069628189       -0.76115687229528
H            2.79878259009773        2.14037985310237        0.70985007300314
H            3.30455210476669       -2.11220784513287        0.01563826042807
H           -1.48658738824341        2.83172132685011       -0.02344298371085
H           -2.86524161839788        2.15597305623542       -0.93667714500291
H           -2.79980122632315        2.01988746248389        0.85554008614479
H           -0.92088327564754       -3.03808929188152        0.93918514428388
H           -1.00013434246244       -3.13543260436565       -0.88309923023352
H           -2.39952256279930       -2.53844200677570        0.05875695344365
H            0.81449363440023       -2.76189041100725        0.06036653257870
25
 energy: 37.067583478727 xtb: 6.6.1 (8d0f1dd)
C            3.37985737715827        1.16749803118896        0.26259382206857
N            2.44539035393305        0.05247813092100       -0.07753830048952
C            2.51380395795384       -1.32649720648151       -0.00043697699680
N            1.27347530971765       -1.85701740287086       -0.00120872404372
C            0.35659916082787       -0.86830373842261       -0.10351393146140
C            1.04283962659496        0.34398466820931       -0.16230964900226
C            0.13845113173031        1.45532479883236       -0.26537125413786
O            0.17703866220178        2.72584415413394       -0.47464392274386
N           -1.36152685494407        0.94673536953611       -0.20937039066048
C           -2.24949119455504        2.09868213382344       -0.05790296287443
C           -1.94066322204203       -0.28416484997264       -0.14497479030862
O           -3.10344394698846       -0.61488670887675       -0.09225783522562
N           -0.92036491685568       -1.24193564896721       -0.09424049703645
C           -1.28645675924009       -2.63055580207968        0.02781989904562
H            4.24324329825952        0.81220909828121        0.88740449279693
H            3.76076823432594        1.68750235109697       -0.69888822228894
H            2.83509859236172        1.99918129784157        0.84495335027238
H            3.26827099507000       -2.09847616126925        0.00082923981235
H           -1.52052369580498        2.91474263813352       -0.00709226574375
H           -2.91386815175499        2.22114737602846       -0.91619412889121
H           -2.81121367081834        2.03067193864571        0.86824902133862
H           -0.87612026708815       -3.03941252174571        0.95727035991497
H           -0.97737060361382       -3.17028314582428       -0.86690257936475
H           -2.37290097583510       -2.59211000489080        0.08679623065481
H            0.81132222734148       -2.74333019309903        0.06396391151271
25
 energy: 40.714373334421 xtb: 6.6.1 (8d0f1dd)
C            3.38611927213715        1.14230305014519        0.30580092834548
N            2.43994291525484        0.05249223904552       -0.09421016439431
C            2.49486507981754       -1.31303764818145        0.00503198003383
N            1.25093917844020       -1.83643134067884       -0.01161683105994
C            0.34671527012421       -0.83989919371053       -0.13711391360131
C            1.03669976890195        0.36568357210159       -0.22528487602720
C            0.13294892253594        1.47208029562057       -0.36878420418212
O            0.19933525615743        2.71663118971643       -0.57255537590752
N           -1.36608392507530        0.96347426880117       -0.26118951659231
C           -2.26444745416271        2.10347204248536       -0.04969538734209
C           -1.94522388539055       -0.26908252639898       -0.17597623504323
O           -3.10498164254581       -0.61001807821658       -0.09831232119285
N           -0.92674814119109       -1.23051982186769       -0.12050725169394
C           -1.24843215585587       -2.63374535415932        0.05050380004055
H            4.31432234233156        0.69642570219712        0.83741740849692
H            3.68821919897823        1.75910771123452       -0.65113728249112
H            2.86747001838441        1.92713855665052        1.02477399553100
H            3.22929892448306       -2.10937854402662       -0.00872014781519
H           -1.55036383996631        2.93597469288437        0.01033584188176
H           -2.95247197190543        2.25428716186802       -0.88740436502766
H           -2.80212457406862        2.00014652556354        0.89192677334156
H           -0.79843543847977       -3.01063641038719        0.98397130687832
H           -0.93705799747995       -3.19418293776666       -0.83345566258703
H           -2.33492918951338       -2.64206107003919        0.13502968604058
H            0.75663873602375       -2.71119548070857        0.07820571051507
25
 energy: 26.429470137561 xtb: 6.6.1 (8d0f1dd)
C            3.37874623515120        1.11464763966634        0.33583097137950
N            2.39878428516681        0.09682626943039       -0.10230724511819
C            2.49708652831732       -1.28217855865726        0.03096488933994
N            1.21976303243197       -1.81679715236666       -0.03520289012352
C            0.35006382886182       -0.83231492459730       -0.17037609011492
C            0.97487284804707        0.39203691360989       -0.29867708439162
C            0.07266996707931        1.45988142181152       -0.49311041621708
O            0.30691519440032        2.63283604401951       -0.58995624150081
N           -1.36350740663529        1.00258072024900       -0.29800582484071
C           -2.27843851016485        2.10054847677373       -0.03863222486807
C           -1.92005646172551       -0.22327355040312       -0.19558213406758
O           -3.09395600266041       -0.55249000587380       -0.10728127196238
N           -0.95448818875832       -1.22213029833847       -0.15130438462344
C           -1.23144960629148       -2.62317791113574        0.06835333307920
H            4.32618955571134        0.64689965995861        0.75296668769689
H            3.63497918002205        1.77195783043406       -0.52933299695404
H            2.92339583948139        1.79725242275847        1.11276634384883
H            3.24515678798907       -2.06153254923464       -0.02591684786181
H           -1.58906155143625        2.96850318005264        0.02849929751961
H           -2.99107855450005        2.27093649475283       -0.84862996274748
H           -2.80788461496768        1.96222991066089        0.91253818507798
H           -0.73818780252546       -2.98834090825503        0.99251402193583
H           -0.90393690690391       -3.22213155187589       -0.79597974707018
H           -2.31012848882683       -2.69478395023447        0.18283049327836
H            0.76576548067185       -2.70895702103320        0.09006503545297
25
 energy: 26.588199507484 xtb: 6.6.1 (8d0f1dd)
C            3.36757895129539        1.07061356763594        0.37710454246847
N            2.37485001471844        0.10044590212958       -0.13348066190680
C            2.48407670076893       -1.26060236207154        0.04873874958638
N            1.22594163753270       -1.81144365478791       -0.04579583810333
C            0.34620698258995       -0.83425308412033       -0.21121647877671
C            0.95461015937956        0.39524322568667       -0.35230629579211
C            0.04403664512634        1.47275210011800       -0.57471788323410
O            0.31532296702754        2.64130605121649       -0.73233196165431
N           -1.35634214005272        1.02991680772182       -0.35075060223951
C           -2.27430098971411        2.11873221328006       -0.02891017544893
C           -1.91283851108655       -0.20420735686553       -0.22556256028603
O           -3.08474353933023       -0.50755580846260       -0.12193179001785
N           -0.96041627034806       -1.22062937201699       -0.19230492723558
C           -1.20852077794229       -2.62106079123678        0.09117567816225
H            4.33409871996443        0.51908598297228        0.67552893806153
H            3.54470578211330        1.83894457906318       -0.44095360845334
H            2.97078990720404        1.66970759480985        1.30145220842812
H            3.23401765409134       -2.01345160254197       -0.05554925930449
H           -1.63787552164278        3.01519034524120        0.05992081145280
H           -3.02258750368677        2.30758433052952       -0.80412675969632
H           -2.78104818602167        1.92066796822856        0.92991928628649
H           -0.67836754749241       -2.94332289581017        1.01819112638868
H           -0.87933280875894       -3.24935120078283       -0.75404391935725
H           -2.28101317197284       -2.74751631867924        0.24079999775823
H            0.79336551417275       -2.69776761908490        0.10818527906098
25
 energy: 20.635085494682 xtb: 6.6.1 (8d0f1dd)
C            3.34459382702951        1.03378617288792        0.41274192144468
N            2.34717306790777        0.11705883536668       -0.16610772504588
C            2.48037299588038       -1.24855290531610        0.08048356229513
N            1.24570586812757       -1.81598467240169       -0.05662846130243
C            0.34717180863020       -0.85825146556214       -0.25372488447596
C            0.92942807316585        0.38426711530443       -0.37999184992164
C            0.00305024929758        1.47178794583613       -0.61516545972021
O            0.31439176582537        2.64797462677938       -0.87609831401457
N           -1.34793596226958        1.06209383038337       -0.39022335369371
C           -2.26367091751167        2.13751605659974       -0.01600424130152
C           -1.90035639422679       -0.18700505774260       -0.25032808104520
O           -3.07568339574647       -0.43992593000938       -0.13119438207010
N           -0.96473451081646       -1.22080555711121       -0.24218138238520
C           -1.20182106496030       -2.60753084693778        0.10624144040498
H            4.29031708945417        0.45048057042732        0.59146987615504
H            3.47408315053383        1.88915989497006       -0.31091357370829
H            3.02587369148183        1.51638606280557        1.41484862623506
H            3.25771495526113       -1.95432143853037       -0.10834948773773
H           -1.67927927361695        3.04333756383849        0.09903687968622
H           -3.04551505966426        2.32830786408356       -0.75448516283743
H           -2.75154361562343        1.88049090098477        0.93918923760021
H           -0.64924566884481       -2.88620765803321        1.03136574723380
H           -0.86883263132744       -3.26155107140228       -0.71500069591116
H           -2.25969915350940       -2.77701661542885        0.28817817476902
H            0.86065577345770       -2.71646561961940        0.12987548549415
25
 energy: 18.253373728957 xtb: 6.6.1 (8d0f1dd)
C            3.31202029243123        1.01167203452585        0.45377923980243
N            2.32829279254518        0.13609717933537       -0.18451785892798
C            2.48072698905715       -1.24007178140995        0.11688281544915
N            1.26587060283040       -1.81894388051664       -0.06806831420524
C            0.34721943144885       -0.88127452618113       -0.30211117951617
C            0.91745253534609        0.37287043982393       -0.40962661592893
C           -0.01731505505592        1.46616680596132       -0.68204388041563
O            0.29298959971292        2.62754184073561       -0.98472043567618
N           -1.34606112190062        1.08560702090782       -0.43487236840343
C           -2.25327585012899        2.15195052913549       -0.00135447507718
C           -1.89348701073553       -0.17839015547489       -0.28792821942072
O           -3.07471198904178       -0.38593896478713       -0.12953881781643
N           -0.96796991566160       -1.21828873243332       -0.30007343999975
C           -1.20361360072322       -2.58951055615459        0.12161978105638
H            4.25503067876618        0.40148215532065        0.51230255239880
H            3.40392851806060        1.93136132877695       -0.17463746390037
H            3.05537193016806        1.36864207893191        1.51128027036927
H            3.29477094189492       -1.89040899543270       -0.17612691109132
H           -1.69089711516526        3.05168201586280        0.14131303831237
H           -3.06408655058589        2.34530916115393       -0.70871793876788
H           -2.71386216723115        1.84216617547997        0.95073474828033
H           -0.63459911854888       -2.80878054443534        1.05165605837346
H           -0.86777351267804       -3.27189813528347       -0.67147435116671
H           -2.24692929338620       -2.78195803421480        0.33155735624311
H            0.93312265651675       -2.73805585745523        0.15172030617586
25