25
 energy: -42.106036974062 gnorm: 0.004157072630 xtb: 6.6.1 (8d0f1dd)
C            3.36554044244003        1.04504483677654        0.06107701282949
N            2.37638014279976        0.00187833384945        0.02808431177469
C            2.59851319703220       -1.30857523252730       -0.00499370569074
N            1.41931064037160       -1.97424380359131       -0.01193237696012
C            0.41507311151640       -1.05425384008284        0.01668445096713
C            1.01177979989253        0.20020123687985        0.04469146518126
C            0.25609219728598        1.41304812015805        0.05866356903085
O            0.67099440294648        2.55030303653184        0.08256265204192
N           -1.16210295250282        1.14460589807381        0.02470730037538
C           -1.98223831542711        2.20321634030839        0.00713336288766
C           -1.77212307102265       -0.14339472219519        0.00912331850581
O           -2.96575225966964       -0.26501204967102       -0.00532341797187
N           -0.92029460020607       -1.24458805549085        0.01201208155881
C           -1.49687363301868       -2.57724529957711        0.00164698988143
H            3.82400137493982        1.10238629977449        1.04975472696932
H            4.14293105303009        0.85187656552860       -0.67667617893881
H            2.87995876218300        1.99703341718198       -0.15160334032171
H            3.56341205248580       -1.77295744760958       -0.02683048192415
H           -1.53118227284675        3.17932148076806        0.02309891275092
H           -4.81641087417904        2.10186258685037       -0.39803352544280
H           -3.06423541932401        2.05760265019845       -0.07161613073601
H           -1.19352839456036       -3.12803032857556        0.89197932385711
H           -1.19531158857773       -3.11516882354048       -0.89739532010364
H           -2.58020374621227       -2.46848928672795        0.00299466382844
H            1.31670146472352       -2.97818337169072       -0.03863804645032
