72
 energy: -99.309752097290 gnorm: 0.002149486128 xtb: 6.6.1 (8d0f1dd)
N           -1.45723754282113        1.29640962900833        1.95629579170141
C           -1.65566728807943        1.84868515665449        0.84510920929289
C           -2.91423685915512        1.61065201038097        0.06137164320634
C           -3.64175926399463        0.33728455925638        0.59945309967876
C           -4.99031035364812        0.11983411889129       -0.00869311324853
C           -5.47903925339989       -1.11408730257611       -0.29430896987853
O           -6.70081647142522       -1.38430580572280       -0.81191712687951
C           -7.57968578419163       -0.31701683885507       -1.07783724887121
C           -4.68214235437735       -2.29102333567712       -0.05902436882680
O           -5.28740066825411       -3.45275065403458       -0.29256989065706
C           -4.60662480153490       -4.66363352392734       -0.04836007499164
C           -3.34655662106685       -2.11918374231413        0.35424777155877
C           -2.83352598813460       -0.88932506151652        0.60481801233466
C           -2.58273680109792        1.42924563262366       -1.43120150969174
C           -1.50099011760090        0.36935948976036       -1.70509441009667
C           -0.17829273109748        0.74332543186741       -1.15716344402679
N            0.53063491630281        0.04096884851769       -0.29109292067518
C            1.89492770952232        0.41232332725479        0.00719501167754
C            2.87349460398662       -0.42093219564555       -0.84299537909080
C            4.30677560621262       -0.09624023400780       -0.52628479966805
C            4.86134778545725        1.11298039276200       -0.91488889926993
C            6.18918333004880        1.40498669158029       -0.64488728889184
C            6.99455824310161        0.48803932850461        0.01515636999462
O            8.29806116301194        0.65495760747046        0.30994285128983
C            8.95145971971866        1.83162508326649       -0.10626200488581
C            6.43385343436514       -0.75274719298983        0.42312485813919
O            7.28593258188694       -1.58899778068439        1.04997471348604
C            6.83805601704276       -2.86594668956237        1.43755969293558
C            5.10050824707673       -1.01751315173443        0.15199242651475
C            0.03142381538953       -1.15942059590179        0.31054931657196
C           -3.80933683085096        2.88410627761169        0.23810402956790
C           -4.44469383100505        2.96583573041099        1.62750882240190
C           -3.05395162932763        4.19547995505447       -0.00442708070989
H           -5.60309205401981        0.98855263728408       -0.17549016735124
H           -7.82932398786149        0.23383763384261       -0.16591711014754
H           -8.48079602081712       -0.77494438479216       -1.48053177746434
H           -7.16162149368868        0.37129524884150       -1.81939067528788
H           -4.26744510715949       -4.72700126800725        0.98942153007834
H           -5.33118992940240       -5.45204437931447       -0.24245135073982
H           -3.75280427840505       -4.78339130781918       -0.72181728946501
H           -2.71622935633049       -2.99200027221620        0.45142255130319
H           -3.77714878969781        0.55694533160793        1.67338586415898
H           -3.49267510888301        1.13174597501463       -1.95450738246125
H           -2.25072638325394        2.37891791093239       -1.85147643392659
H           -1.83888012921072       -0.58945470540960       -1.31604175180616
H           -1.40468401343962        0.28846252186377       -2.79405937563980
H           -0.98020191201575        2.58559925074856        0.39363201155861
H            0.29492713468242        1.62611717822936       -1.56250360685807
H            2.09223418722481        0.23766467951607        1.06742907737416
H            2.04513096089665        1.47324257346824       -0.20112816314330
H            2.67460882767494       -0.21534680885097       -1.89760690622606
H            2.68924489976703       -1.48036473625033       -0.66132687039524
H            4.26442547533563        1.83612711579140       -1.44960917493629
H            6.59309015730499        2.35158106871126       -0.96446195117231
H            8.52449031405612        2.71837661621607        0.37213721508276
H            8.91269401810039        1.94780981874705       -1.19358871645309
H            9.98721548809112        1.71656215484534        0.20746588352687
H            7.70266147395617       -3.35635424860064        1.88063541787564
H            6.03802477298518       -2.80297364651530        2.18204982957474
H            6.49355458689048       -3.44823550688480        0.57715745181487
H            4.66874380462483       -1.95926814306732        0.45251248114238
H            0.00095494260652       -1.98243766707006       -0.40610914583302
H           -1.03450490560663       -0.99096754997668        0.66814762816893
H            0.65880636287718       -1.43891343822949        1.15198231815041
H           -4.60126740921531        2.82680916155761       -0.51560935222567
H           -3.68850068095741        2.84341686693214        2.40010523837833
H           -5.22024875434111        2.22034139880181        1.77622806541467
H           -4.90286725960349        3.94347031346977        1.75701181407645
H           -2.38276739238048        4.41618909066322        0.82192634576806
H           -2.48326381815409        4.18873273970034       -0.92907390210846
H           -3.77250057227121        5.00897596658543       -0.07212350164089
H           -0.60676443552368        1.55408916627366        2.44804363434955
