25
 energy: -42.158332090923 gnorm: 0.007546530942 xtb: 6.6.1 (8d0f1dd)
C            3.04374615787820        1.15091485403835        0.18766083107006
N            2.12659037009742        0.05546758338523        0.04617753837570
C            2.45449940734813       -1.20020596325637       -0.16590701273243
N            1.36060644624213       -1.96527547854705       -0.24869137986647
C            0.20572668609153       -1.17101578928001       -0.07951427599913
C            0.73324008617265        0.15503375181099        0.12772643101338
C            0.11191804358199        1.39135499952530        0.28106862336053
O            0.54505819271077        2.51129831152884        0.30604934183034
N           -1.43817538683767        1.28276454779958        0.44444121142126
C           -2.19872549718875        2.03636382053230       -0.54629620595316
C           -1.88643977355754        0.77291250645484        1.48435161966738
O           -2.14696125742319        0.33238628175292        2.51130823619172
N           -1.01165814340669       -1.52727920240204       -0.12974406918248
C           -1.45375805270987       -2.85600329200713       -0.40764886094712
H            2.90365020605431        1.63746816960229        1.15325848380186
H            4.06371621046060        0.78222561144956        0.10950936598208
H            2.86218055757298        1.89615403721185       -0.58751737275131
H            3.46157057393304       -1.56296914909877       -0.25607593744572
H           -1.67302915119589        2.97336847275965       -0.73600673298733
H           -2.25145793380505        1.45034234659965       -1.46398236492482
H           -3.20219075612289        2.24687964233702       -0.18393887199999
H           -1.65971571765716       -3.37402092125544        0.53269476860719
H           -0.75310266268411       -3.45958942691341       -0.99656696800140
H           -2.39350851633492       -2.77829978179050       -0.95465994061180
H            1.35665142487832       -2.96203739064230       -0.39652484001594
