25
 energy: -42.136025629405 gnorm: 0.002512195627 xtb: 6.6.1 (8d0f1dd)
C            3.24347954849453        1.11386699897935        0.05813827382657
N            2.30733878965395        0.02451271946455        0.01328757420218
C            2.60126323326531       -1.28082201364264        0.03390364015482
N            1.45538935807430       -2.00968141862577       -0.00009638625797
C            0.40428985728103       -1.14099214793903       -0.04375559427483
C            0.93422779322249        0.14691841762131       -0.03691060835012
C            0.11522763749311        1.31489929929252       -0.08965028603712
O            0.46883214033662        2.47680113213119       -0.09114426985888
N           -1.28411602774673        0.97345773778090       -0.15329611594487
C           -2.15721259015545        1.99073361531154       -0.22721279556671
C           -1.82596684497887       -0.33932795164434       -0.14135760102784
O           -3.01467585156797       -0.52371857868327       -0.17939866139008
N           -0.92128020067441       -1.39816743357649       -0.08228941352129
C           -1.43506440924986       -2.75346319735167       -0.07657159600886
H            3.74467438685969        1.14409893940259        1.02712632811877
H            3.99564280053220        0.99990858226173       -0.72230763804282
H            2.70168663096004        2.04746207152420       -0.08877993886641
H            3.58877456046272       -1.69301878808489        0.07151108056920
H           -1.76259798043600        2.99069506837391       -0.23275298777642
H           -3.20631044789219        1.77055220964902       -0.28021836603872
H           -3.46366541419429        4.24868715176743        1.49766654774704
H           -1.09548618828723       -3.28449668956624        0.81303955099787
H           -1.12022959030778       -3.28672689731686       -0.97469438749066
H           -2.52276993117913       -2.69606773487954       -0.06286894999283
H            1.40898025413408       -3.01787255064932       -0.00019578127016
