      -----------------------------------------------------------      
     |                   =====================                   |     
     |                           x T B                           |     
     |                   =====================                   |     
     |                         S. Grimme                         |     
     |          Mulliken Center for Theoretical Chemistry        |     
     |                    University of Bonn                     |     
      -----------------------------------------------------------      

   * xtb version 6.6.1 (8d0f1dd) compiled by 'conda@1efc2f54142f' on 2023-08-01

   xtb is free software: you can redistribute it and/or modify it under
   the terms of the GNU Lesser General Public License as published by
   the Free Software Foundation, either version 3 of the License, or
   (at your option) any later version.
   
   xtb is distributed in the hope that it will be useful,
   but WITHOUT ANY WARRANTY; without even the implied warranty of
   MERCHANTABILITY or FITNESS FOR A PARTICULAR PURPOSE.  See the
   GNU Lesser General Public License for more details.
   
   Cite this work as:
   * C. Bannwarth, E. Caldeweyher, S. Ehlert, A. Hansen, P. Pracht,
     J. Seibert, S. Spicher, S. Grimme, WIREs Comput. Mol. Sci., 2020, 11,
     e01493. DOI: 10.1002/wcms.1493
   
   for GFN2-xTB:
   * C. Bannwarth, S. Ehlert and S. Grimme., J. Chem. Theory Comput., 2019,
     15, 1652-1671. DOI: 10.1021/acs.jctc.8b01176
   for GFN1-xTB:
   * S. Grimme, C. Bannwarth, P. Shushkov, J. Chem. Theory Comput., 2017,
     13, 1989-2009. DOI: 10.1021/acs.jctc.7b00118
   for GFN0-xTB:
   * P. Pracht, E. Caldeweyher, S. Ehlert, S. Grimme, ChemRxiv, 2019, preprint.
     DOI: 10.26434/chemrxiv.8326202.v1
   for GFN-FF:
   * S. Spicher and S. Grimme, Angew. Chem. Int. Ed., 2020, 59, 15665-15673.
     DOI: 10.1002/anie.202004239
   
   for ALPB and GBSA implicit solvation:
   * S. Ehlert, M. Stahn, S. Spicher, S. Grimme, J. Chem. Theory Comput.,
     2021, 17, 4250-4261. DOI: 10.1021/acs.jctc.1c00471
   
   for DFT-D4:
   * E. Caldeweyher, C. Bannwarth and S. Grimme, J. Chem. Phys., 2017,
     147, 034112. DOI: 10.1063/1.4993215
   * E. Caldeweyher, S. Ehlert, A. Hansen, H. Neugebauer, S. Spicher,
     C. Bannwarth and S. Grimme, J. Chem. Phys., 2019, 150, 154122.
     DOI: 10.1063/1.5090222
   * E. Caldeweyher, J.-M. Mewes, S. Ehlert and S. Grimme, Phys. Chem. Chem. Phys.
     2020, 22, 8499-8512. DOI: 10.1039/D0CP00502A
   
   for sTDA-xTB:
   * S. Grimme and C. Bannwarth, J. Chem. Phys., 2016, 145, 054103.
     DOI: 10.1063/1.4959605
   
   in the mass-spec context:
   * V. Asgeirsson, C. Bauer and S. Grimme, Chem. Sci., 2017, 8, 4879.
     DOI: 10.1039/c7sc00601b
   * J. Koopman and S. Grimme, ACS Omega 2019, 4, 12, 15120-15133.
     DOI: 10.1021/acsomega.9b02011
   
   for metadynamics refer to:
   * S. Grimme, J. Chem. Theory Comput., 2019, 155, 2847-2862
     DOI: 10.1021/acs.jctc.9b00143
   
   for SPH calculations refer to:
   * S. Spicher and S. Grimme, J. Chem. Theory Comput., 2021, 17, 1701-1714
     DOI: 10.1021/acs.jctc.0c01306
   
   with help from (in alphabetical order)
   P. Atkinson, C. Bannwarth, F. Bohle, G. Brandenburg, E. Caldeweyher
   M. Checinski, S. Dohm, S. Ehlert, S. Ehrlich, I. Gerasimov, C. Hölzer
   A. Katbashev, J. Koopman, C. Lavigne, S. Lehtola, F. März, M. Müller,
   F. Musil, H. Neugebauer, J. Pisarek, C. Plett, P. Pracht, F. Pultar,
   J. Seibert, P. Shushkov, S. Spicher, M. Stahn, M. Steiner, T. Strunk,
   J. Stückrath, T. Rose, and J. Unsleber
   
 * started run on 2024/06/05 at 19:58:59.289     

           -------------------------------------------------
          |                Calculation Setup                |
           -------------------------------------------------

          program call               : xtb struc.xyz --opt loose --input .xc1 --gfn2
          hostname                   : n-62-29-9
          coordinate file            : struc.xyz
          omp threads                :                     1

   ID    Z sym.   atoms
    1    6 C      1, 3, 5-7, 10, 11, 14
    2    7 N      2, 4, 9, 13
    3    8 O      8, 12
    4    1 H      15-25
constraining bond 7 21 to    3.7133300 Å, actual value:    3.1541658 Å

           -------------------------------------------------
          |                 G F N 2 - x T B                 |
           -------------------------------------------------

        Reference                      10.1021/acs.jctc.8b01176
      * Hamiltonian:
        H0-scaling (s, p, d)           1.850000    2.230000    2.230000
        zeta-weighting                 0.500000
      * Dispersion:
        s8                             2.700000
        a1                             0.520000
        a2                             5.000000
        s9                             5.000000
      * Repulsion:
        kExp                           1.500000    1.000000
        rExp                           1.000000
      * Coulomb:
        alpha                          2.000000
        third order                    shell-resolved
        anisotropic                    true
        a3                             3.000000
        a5                             4.000000
        cn-shift                       1.200000
        cn-exp                         4.000000
        max-rad                        5.000000


          ...................................................
          :                      SETUP                      :
          :.................................................:
          :  # basis functions                  67          :
          :  # atomic orbitals                  67          :
          :  # shells                           39          :
          :  # electrons                        74          :
          :  max. iterations                   250          :
          :  Hamiltonian                  GFN2-xTB          :
          :  restarted?                      false          :
          :  GBSA solvation                  false          :
          :  PC potential                    false          :
          :  electronic temp.         7500.0000000     K    :
          :  accuracy                    1.0000000          :
          :  -> integral cutoff          0.2500000E+02      :
          :  -> integral neglect         0.1000000E-07      :
          :  -> SCF convergence          0.1000000E-05 Eh   :
          :  -> wf. convergence          0.1000000E-03 e    :
          :  Broyden damping             0.4000000          :
          ...................................................

 iter      E             dE          RMSdq      gap      omega  full diag
   1    -42.5960780 -0.425961E+02  0.440E+00    3.52       0.0  T
   2    -42.7780033 -0.181925E+00  0.248E+00    3.37       1.0  T
   3    -42.7871777 -0.917437E-02  0.149E+00    3.50       1.0  T
   4    -42.7817164  0.546128E-02  0.642E-01    3.42       1.0  T
   5    -42.7911189 -0.940247E-02  0.115E-01    3.49       1.0  T
   6    -42.7912109 -0.920486E-04  0.685E-02    3.46       1.0  T
   7    -42.7912647 -0.537856E-04  0.265E-02    3.48       1.0  T
   8    -42.7912686 -0.385526E-05  0.113E-02    3.47       1.8  T
   9    -42.7912697 -0.111307E-05  0.441E-03    3.47       4.5  T
  10    -42.7912698 -0.733569E-07  0.139E-03    3.47      14.4  T
  11    -42.7912698 -0.243437E-08  0.602E-04    3.47      33.2  T
  12    -42.7912698 -0.222032E-08  0.181E-04    3.47     110.6  T

   *** convergence criteria satisfied after 12 iterations ***

         #    Occupation            Energy/Eh            Energy/eV
      -------------------------------------------------------------
         1        2.0000           -0.9116047             -24.8060
       ...           ...                  ...                  ...
        31        1.9942           -0.6212459             -16.9050
        32        1.9930           -0.6166804             -16.7807
        33        1.9876           -0.6031136             -16.4116
        34        1.9710           -0.5827317             -15.8569
        35        1.9403           -0.5651917             -15.3796
        36        1.9387           -0.5645672             -15.3627
        37        1.9155           -0.5566412             -15.1470 (HOMO)
        38        0.1907           -0.4290919             -11.6762 (LUMO)
        39        0.0640           -0.4015676             -10.9272
        40        0.0206           -0.3740689             -10.1789
        41        0.0006           -0.2879107              -7.8344
        42        0.0000           -0.2065811              -5.6214
       ...           ...                  ...                  ...
        67                          0.5613577              15.2753
      -------------------------------------------------------------
                  HL-Gap            0.1275493 Eh            3.4708 eV
             Fermi-level           -0.4825284 Eh          -13.1303 eV

 SCC (total)                   0 d,  0 h,  0 min,  0.035 sec
 SCC setup                      ...        0 min,  0.000 sec (  0.922%)
 Dispersion                     ...        0 min,  0.000 sec (  1.145%)
 classical contributions        ...        0 min,  0.000 sec (  0.306%)
 integral evaluation            ...        0 min,  0.005 sec ( 14.458%)
 iterations                     ...        0 min,  0.018 sec ( 49.887%)
 molecular gradient             ...        0 min,  0.012 sec ( 32.777%)
 printout                       ...        0 min,  0.000 sec (  0.467%)

         :::::::::::::::::::::::::::::::::::::::::::::::::::::
         ::                     SUMMARY                     ::
         :::::::::::::::::::::::::::::::::::::::::::::::::::::
         :: total energy             -42.818323014608 Eh    ::
         :: gradient norm              1.487522764005 Eh/a0 ::
         :: HOMO-LUMO gap              3.470793873671 eV    ::
         ::.................................................::
         :: SCC energy               -42.791269777655 Eh    ::
         :: -> isotropic ES            0.136760385929 Eh    ::
         :: -> anisotropic ES         -0.005341405309 Eh    ::
         :: -> anisotropic XC          0.011501049227 Eh    ::
         :: -> dispersion             -0.022650340738 Eh    ::
         :: repulsion energy           0.531105277918 Eh    ::
         :: add. restraining          -0.558272673879 Eh    ::
         :: total charge               1.000000000010 e     ::
         :::::::::::::::::::::::::::::::::::::::::::::::::::::

      ----------------------------------------------------------- 
     |                   =====================                   |
     |                        A N C O P T                        |
     |                   =====================                   |
     |               Approximate Normal Coordinate               |
     |                Rational Function Optimizer                |
      ----------------------------------------------------------- 

          ...................................................
          :                      SETUP                      :
          :.................................................:
          :   optimization level             loose          :
          :   max. optcycles                   200          :
          :   ANC micro-cycles                  20          :
          :   degrees of freedom                69          :
          :.................................................:
          :   RF solver                   davidson          :
          :   write xtbopt.log                true          :
          :   linear?                        false          :
          :   energy convergence         0.5000000E-04 Eh   :
          :   grad. convergence          0.4000000E-02 Eh/α :
          :   maxmium RF displ.          1.0000000          :
          :   Hlow (freq-cutoff)         0.1000000E-01      :
          :   Hmax (freq-cutoff)         5.0000000          :
          :   S6 in model hess.         20.0000000          :
          ...................................................

generating ANC from model Hessian ...
Using Lindh-Hessian (1995)
 Shifting diagonal of input Hessian by    1.5154455107598714     
 Lowest  eigenvalues of input Hessian
    0.010000    0.000000    0.000000    0.000000    0.000000    0.000000
    0.000000    1.518296    1.521782    1.524533    1.525399    1.527080
    1.528628    1.533887    1.534931    1.539646    1.549215    1.556507
 Highest eigenvalues
    3.601377    3.663064    3.742600    3.802582    3.987873    4.094885


........................................................................
.............................. CYCLE    1 ..............................
........................................................................

 iter      E             dE          RMSdq      gap      omega  full diag
   1    -42.7912698 -0.427913E+02  0.838E-05    3.47       0.0  T
   2    -42.7912698 -0.247127E-10  0.452E-05    3.47     442.9  T
   3    -42.7912698 -0.149214E-11  0.279E-05    3.47     715.8  T
     SCC iter.                  ...        0 min,  0.005 sec
     gradient                   ...        0 min,  0.011 sec
 * total energy  :   -42.8183230 Eh     change       -0.2401990E-09 Eh
   gradient norm :     1.4875227 Eh/α   predicted     0.0000000E+00 (-100.00%)
   displ. norm   :     0.9891672 α      lambda       -0.1451859E+01
   maximum displ.:     0.9849553 α      in ANC's #1, #61, #52, ...

........................................................................
.............................. CYCLE    2 ..............................
........................................................................

 iter      E             dE          RMSdq      gap      omega  full diag
   1    -42.7368397 -0.427368E+02  0.112E+00    3.51       0.0  T
   2    -42.7470733 -0.102336E-01  0.775E-01    3.24       1.0  T
   3    -42.7500690 -0.299563E-02  0.404E-01    3.43       1.0  T
   4    -42.7503190 -0.250005E-03  0.183E-01    3.35       1.0  T
   5    -42.7507210 -0.401993E-03  0.454E-02    3.38       1.0  T
   6    -42.7507571 -0.361179E-04  0.185E-02    3.38       1.1  T
   7    -42.7507575 -0.470222E-06  0.933E-03    3.39       2.1  T
   8    -42.7507591 -0.150501E-05  0.199E-03    3.38      10.1  T
   9    -42.7507591 -0.547267E-07  0.777E-04    3.38      25.8  T
  10    -42.7507591 -0.223029E-08  0.277E-04    3.38      72.3  T
     SCC iter.                  ...        0 min,  0.014 sec
     gradient                   ...        0 min,  0.011 sec
 * total energy  :   -45.0766535 Eh     change       -0.2258330E+01 Eh
   gradient norm :     3.0981494 Eh/α   predicted    -0.1436216E+01 ( -36.40%)
   displ. norm   :     0.9942823 α      lambda       -0.3068689E+01
   maximum displ.:     0.9896870 α      in ANC's #1, #61, #62, ...

........................................................................
.............................. CYCLE    3 ..............................
........................................................................

 iter      E             dE          RMSdq      gap      omega  full diag
   1    -42.5311560 -0.425312E+02  0.130E+00    2.81       0.0  T
   2    -42.5324965 -0.134049E-02  0.126E+00    1.96       1.0  T
   3    -42.5626182 -0.301217E-01  0.521E-01    2.53       1.0  T
   4    -42.5625001  0.118162E-03  0.291E-01    2.39       1.0  T
   5    -42.5633327 -0.832674E-03  0.117E-01    2.45       1.0  T
   6    -42.5636071 -0.274319E-03  0.330E-02    2.46       1.0  T
   7    -42.5636171 -0.100523E-04  0.178E-02    2.46       1.1  T
   8    -42.5636201 -0.301426E-05  0.430E-03    2.46       4.6  T
   9    -42.5636203 -0.224222E-06  0.161E-03    2.46      12.5  T
  10    -42.5636204 -0.127530E-07  0.794E-04    2.46      25.2  T
  11    -42.5636204 -0.503204E-08  0.211E-04    2.46      94.8  T
     SCC iter.                  ...        0 min,  0.015 sec
     gradient                   ...        0 min,  0.012 sec
 * total energy  :   -48.9847338 Eh     change       -0.3908080E+01 Eh
   gradient norm :     4.8808563 Eh/α   predicted    -0.3051295E+01 ( -21.92%)
   displ. norm   :     0.9932933 α      lambda       -0.4831503E+01
   maximum displ.:     0.9831796 α      in ANC's #1, #69, #51, ...

........................................................................
.............................. CYCLE    4 ..............................
........................................................................

 iter      E             dE          RMSdq      gap      omega  full diag
   1    -42.2883529 -0.422884E+02  0.165E+00    1.03       0.0  T
   2    -42.2836753  0.467755E-02  0.123E+00    0.53       1.0  T
   3    -42.2615739  0.221014E-01  0.948E-01    1.38       1.0  T
   4    -42.2965909 -0.350170E-01  0.219E-01    0.79       1.0  T
   5    -42.2971202 -0.529306E-03  0.101E-01    0.86       1.0  T
   6    -42.2972983 -0.178071E-03  0.477E-02    0.84       1.0  T
   7    -42.2973394 -0.411517E-04  0.182E-02    0.85       1.1  T
   8    -42.2973439 -0.452080E-05  0.586E-03    0.85       3.4  T
   9    -42.2973440 -0.731134E-07  0.191E-03    0.85      10.5  T
  10    -42.2973440 -0.395932E-07  0.727E-04    0.85      27.5  T
  11    -42.2973440 -0.381085E-08  0.382E-04    0.85      52.3  T
     SCC iter.                  ...        0 min,  0.015 sec
     gradient                   ...        0 min,  0.011 sec
 * total energy  :   -54.7643256 Eh     change       -0.5779592E+01 Eh
   gradient norm :     6.7878687 Eh/α   predicted    -0.4799208E+01 ( -16.96%)
   displ. norm   :     0.9917948 α      lambda       -0.6712556E+01
   maximum displ.:     0.9716336 α      in ANC's #1, #61, #44, ...

........................................................................
.............................. CYCLE    5 ..............................
........................................................................

 iter      E             dE          RMSdq      gap      omega  full diag
   1    -42.1595237 -0.421595E+02  0.254E+00    0.28       0.0  T
   2    -42.1054633  0.540604E-01  0.229E+00    0.54       1.0  T
   3    -42.2072170 -0.101754E+00  0.142E+00    0.50       1.0  T
   4    -42.2649017 -0.576847E-01  0.520E-01    0.49       1.0  T
   5    -42.2548086  0.100931E-01  0.555E-01    0.92       1.0  T
   6    -42.2675233 -0.127147E-01  0.116E-01    0.60       1.0  T
   7    -42.2678842 -0.360899E-03  0.436E-02    0.63       1.0  T
   8    -42.2678950 -0.107697E-04  0.279E-02    0.63       1.0  T
   9    -42.2679136 -0.186796E-04  0.134E-02    0.63       1.5  T
  10    -42.2679196 -0.599089E-05  0.342E-03    0.62       5.8  T
  11    -42.2679199 -0.250013E-06  0.180E-03    0.62      11.1  T
  12    -42.2679199 -0.479874E-07  0.643E-04    0.62      31.1  T
  13    -42.2679199 -0.580265E-08  0.174E-04    0.62     115.0  T
     SCC iter.                  ...        0 min,  0.018 sec
     gradient                   ...        0 min,  0.011 sec
 * total energy  :   -57.4999142 Eh     change       -0.2735589E+01 Eh
   gradient norm :    19.0015767 Eh/α   predicted    -0.6657961E+01 ( 143.38%)
   displ. norm   :     0.5323087 α      lambda       -0.9903828E+01
   maximum displ.:     0.4378280 α      in ANC's #1, #69, #40, ...

........................................................................
.............................. CYCLE    6 ..............................
........................................................................

 iter      E             dE          RMSdq      gap      omega  full diag
   1    -42.2300283 -0.422300E+02  0.131E+00    0.41       0.0  T
   2    -42.1670516  0.629767E-01  0.186E+00    0.50       1.0  T
   3    -42.2710957 -0.104044E+00  0.622E-01    0.54       1.0  T
   4    -42.2709806  0.115103E-03  0.578E-01    0.08       1.0  T
   5    -42.2808992 -0.991855E-02  0.146E-01    0.28       1.0  T
   6    -42.2812570 -0.357812E-03  0.698E-02    0.29       1.0  T
   7    -42.2813875 -0.130544E-03  0.251E-02    0.30       1.0  T
   8    -42.2813983 -0.107217E-04  0.111E-02    0.31       1.8  T
   9    -42.2813987 -0.428436E-06  0.574E-03    0.30       3.5  T
  10    -42.2813997 -0.973782E-06  0.124E-03    0.31      16.2  T
  11    -42.2813997 -0.227957E-08  0.722E-04    0.31      27.7  T
  12    -42.2813997 -0.113152E-07  0.215E-04    0.31      93.2  T
     SCC iter.                  ...        0 min,  0.017 sec
     gradient                   ...        0 min,  0.011 sec
 * total energy  :   -58.0388028 Eh     change       -0.5388886E+00 Eh
   gradient norm :     6.0645595 Eh/α   predicted    -0.6355053E+01 (1079.29%)
   displ. norm   :     0.3818981 α      lambda       -0.9896824E+00
   maximum displ.:     0.1723128 α      in ANC's #34, #39, #38, ...

........................................................................
.............................. CYCLE    7 ..............................
........................................................................

 iter      E             dE          RMSdq      gap      omega  full diag
   1    -42.3096774 -0.423097E+02  0.749E-01    0.65       0.0  T
   2    -42.2863471  0.233303E-01  0.110E+00    0.16       1.0  T
   3    -42.3238873 -0.375402E-01  0.386E-01    0.43       1.0  T
   4    -42.3183177  0.556958E-02  0.486E-01    0.17       1.0  T
   5    -42.3242762 -0.595849E-02  0.130E-01    0.40       1.0  T
   6    -42.3247571 -0.480868E-03  0.562E-02    0.40       1.0  T
   7    -42.3248306 -0.734929E-04  0.179E-02    0.40       1.1  T
   8    -42.3248323 -0.173386E-05  0.121E-02    0.41       1.6  T
   9    -42.3248352 -0.293986E-05  0.354E-03    0.41       5.6  T
  10    -42.3248354 -0.201845E-06  0.142E-03    0.41      14.0  T
  11    -42.3248355 -0.185320E-07  0.756E-04    0.41      26.5  T
  12    -42.3248355 -0.104821E-07  0.301E-04    0.41      66.5  T
     SCC iter.                  ...        0 min,  0.017 sec
     gradient                   ...        0 min,  0.011 sec
 * total energy  :   -58.8432666 Eh     change       -0.8044638E+00 Eh
   gradient norm :     4.6583603 Eh/α   predicted    -0.5670119E+00 ( -29.52%)
   displ. norm   :     0.4955347 α      lambda       -0.1906228E+01
   maximum displ.:     0.4235979 α      in ANC's #1, #38, #34, ...

........................................................................
.............................. CYCLE    8 ..............................
........................................................................

 iter      E             dE          RMSdq      gap      omega  full diag
   1    -42.3312513 -0.423313E+02  0.917E-01    0.27       0.0  T
   2    -42.3091482  0.221031E-01  0.964E-01    0.96       1.0  T
   3    -42.3353534 -0.262052E-01  0.587E-01    0.19       1.0  T
   4    -42.3442611 -0.890762E-02  0.224E-01    0.52       1.0  T
   5    -42.3430498  0.121122E-02  0.234E-01    0.40       1.0  T
   6    -42.3451541 -0.210425E-02  0.168E-02    0.47       1.2  T
   7    -42.3451567 -0.264968E-05  0.102E-02    0.48       2.0  T
   8    -42.3451574 -0.625600E-06  0.576E-03    0.48       3.5  T
   9    -42.3451579 -0.560751E-06  0.140E-03    0.48      14.3  T
  10    -42.3451580 -0.305029E-07  0.674E-04    0.48      29.7  T
  11    -42.3451580 -0.306223E-08  0.389E-04    0.48      51.4  T
     SCC iter.                  ...        0 min,  0.015 sec
     gradient                   ...        0 min,  0.011 sec
 * total energy  :   -58.1368095 Eh     change        0.7064571E+00 Eh
   gradient norm :    16.0411107 Eh/α   predicted    -0.1187156E+01 (-268.04%)
   displ. norm   :     0.2801655 α      lambda       -0.4102065E+01
   maximum displ.:     0.1673317 α      in ANC's #1, #39, #69, ...

........................................................................
.............................. CYCLE    9 ..............................
........................................................................

 iter      E             dE          RMSdq      gap      omega  full diag
   1    -42.3479969 -0.423480E+02  0.472E-01    0.38       0.0  T
   2    -42.3443627  0.363423E-02  0.534E-01    0.20       1.0  T
   3    -42.3525001 -0.813741E-02  0.188E-01    0.39       1.0  T
   4    -42.3504941  0.200594E-02  0.256E-01    0.18       1.0  T
   5    -42.3528554 -0.236123E-02  0.783E-02    0.35       1.0  T
   6    -42.3530307 -0.175349E-03  0.189E-02    0.32       1.1  T
   7    -42.3530402 -0.948302E-05  0.904E-03    0.32       2.2  T
   8    -42.3530410 -0.830942E-06  0.459E-03    0.32       4.4  T
   9    -42.3530414 -0.338778E-06  0.163E-03    0.32      12.3  T
  10    -42.3530414 -0.557657E-07  0.600E-04    0.32      33.4  T
  11    -42.3530414 -0.569493E-09  0.311E-04    0.32      64.3  T
     SCC iter.                  ...        0 min,  0.015 sec
     gradient                   ...        0 min,  0.011 sec
 * total energy  :   -59.3157482 Eh     change       -0.1178939E+01 Eh
   gradient norm :     2.3290451 Eh/α   predicted    -0.2212023E+01 (  87.63%)
   displ. norm   :     0.1866675 α      lambda       -0.1493958E+00
   maximum displ.:     0.0997321 α      in ANC's #39, #49, #45, ...

........................................................................
.............................. CYCLE   10 ..............................
........................................................................

 iter      E             dE          RMSdq      gap      omega  full diag
   1    -42.3659125 -0.423659E+02  0.291E-01    0.31       0.0  T
   2    -42.3649151  0.997426E-03  0.276E-01    0.16       1.0  T
   3    -42.3649439 -0.287545E-04  0.183E-01    0.37       1.0  T
   4    -42.3658777 -0.933864E-03  0.113E-01    0.20       1.0  T
   5    -42.3663081 -0.430350E-03  0.203E-02    0.26       1.0  T
   6    -42.3663155 -0.742645E-05  0.118E-02    0.26       1.7  T
   7    -42.3663186 -0.312278E-05  0.382E-03    0.26       5.2  T
   8    -42.3663190 -0.342575E-06  0.190E-03    0.26      10.5  T
   9    -42.3663190 -0.489970E-07  0.102E-03    0.26      19.6  T
  10    -42.3663190 -0.109722E-07  0.364E-04    0.26      55.0  T
  11    -42.3663190 -0.220627E-08  0.138E-04    0.26     145.3  T
     SCC iter.                  ...        0 min,  0.015 sec
     gradient                   ...        0 min,  0.011 sec
 * total energy  :   -59.4079412 Eh     change       -0.9219291E-01 Eh
   gradient norm :     1.1105359 Eh/α   predicted    -0.7730021E-01 ( -16.15%)
   displ. norm   :     0.2595532 α      lambda       -0.9949568E-01
   maximum displ.:     0.0974931 α      in ANC's #41, #39, #38, ...

........................................................................
.............................. CYCLE   11 ..............................
........................................................................

 iter      E             dE          RMSdq      gap      omega  full diag
   1    -42.4021715 -0.424022E+02  0.413E-01    0.11       0.0  T
   2    -42.4017505  0.421055E-03  0.251E-01    0.20       1.0  T
   3    -42.3977245  0.402599E-02  0.420E-01    0.18       1.0  T
   4    -42.4030712 -0.534674E-02  0.967E-02    0.13       1.0  T
   5    -42.4030940 -0.227533E-04  0.839E-02    0.11       1.0  T
   6    -42.4032803 -0.186343E-03  0.178E-02    0.12       1.1  T
   7    -42.4032834 -0.307977E-05  0.110E-02    0.12       1.8  T
   8    -42.4032859 -0.246657E-05  0.319E-03    0.12       6.3  T
   9    -42.4032860 -0.150900E-06  0.151E-03    0.12      13.3  T
  10    -42.4032860 -0.531128E-08  0.670E-04    0.12      29.8  T
  11    -42.4032860 -0.711643E-08  0.243E-04    0.12      82.3  T
     SCC iter.                  ...        0 min,  0.015 sec
     gradient                   ...        0 min,  0.011 sec
 * total energy  :   -59.4791167 Eh     change       -0.7117558E-01 Eh
   gradient norm :     0.2639421 Eh/α   predicted    -0.5309980E-01 ( -25.40%)
   displ. norm   :     0.3896515 α      lambda       -0.7775210E-01
   maximum displ.:     0.1488704 α      in ANC's #41, #39, #44, ...

........................................................................
.............................. CYCLE   12 ..............................
........................................................................

 iter      E             dE          RMSdq      gap      omega  full diag
   1    -42.4600997 -0.424601E+02  0.628E-01    0.34       0.0  T
   2    -42.4567207  0.337905E-02  0.445E-01    0.13       1.0  T
   3    -42.4492030  0.751763E-02  0.699E-01    0.65       1.0  T
   4    -42.4630314 -0.138283E-01  0.233E-01    0.35       1.0  T
   5    -42.4638472 -0.815843E-03  0.108E-01    0.33       1.0  T
   6    -42.4640935 -0.246251E-03  0.259E-02    0.30       1.0  T
   7    -42.4641007 -0.720546E-05  0.142E-02    0.29       1.4  T
   8    -42.4641048 -0.414953E-05  0.435E-03    0.29       4.6  T
   9    -42.4641051 -0.283295E-06  0.201E-03    0.29      10.0  T
  10    -42.4641051 -0.143971E-07  0.559E-04    0.29      35.8  T
  11    -42.4641051 -0.269824E-08  0.299E-04    0.29      66.9  T
     SCC iter.                  ...        0 min,  0.015 sec
     gradient                   ...        0 min,  0.011 sec
 * total energy  :   -59.5397461 Eh     change       -0.6062941E-01 Eh
   gradient norm :     0.5663988 Eh/α   predicted    -0.4477937E-01 ( -26.14%)
   displ. norm   :     0.5650879 α      lambda       -0.1007101E+00
   maximum displ.:     0.2057059 α      in ANC's #39, #34, #38, ...

........................................................................
.............................. CYCLE   13 ..............................
........................................................................

 iter      E             dE          RMSdq      gap      omega  full diag
   1    -42.4886677 -0.424887E+02  0.924E-01    0.33       0.0  T
   2    -42.4769366  0.117311E-01  0.118E+00    1.19       1.0  T
   3    -42.5063174 -0.293808E-01  0.493E-01    0.36       1.0  T
   4    -42.4977076  0.860987E-02  0.736E-01    0.97       1.0  T
   5    -42.5123624 -0.146548E-01  0.154E-01    0.65       1.0  T
   6    -42.5129587 -0.596384E-03  0.476E-02    0.60       1.0  T
   7    -42.5129939 -0.351644E-04  0.203E-02    0.59       1.0  T
   8    -42.5130016 -0.765044E-05  0.111E-02    0.58       1.8  T
   9    -42.5130038 -0.227700E-05  0.426E-03    0.58       4.7  T
  10    -42.5130042 -0.369634E-06  0.138E-03    0.58      14.5  T
  11    -42.5130042 -0.151921E-07  0.450E-04    0.58      44.4  T
  12    -42.5130042 -0.218870E-08  0.190E-04    0.58     105.3  T
     SCC iter.                  ...        0 min,  0.017 sec
     gradient                   ...        0 min,  0.011 sec
 * total energy  :   -59.5791120 Eh     change       -0.3936589E-01 Eh
   gradient norm :     0.2162524 Eh/α   predicted    -0.6643483E-01 (  68.76%)
   displ. norm   :     0.0908232 α      lambda       -0.1734589E-01
   maximum displ.:     0.0369660 α      in ANC's #52, #39, #38, ...

........................................................................
.............................. CYCLE   14 ..............................
........................................................................

 iter      E             dE          RMSdq      gap      omega  full diag
   1    -42.5143651 -0.425144E+02  0.230E-01    0.68       0.0  T
   2    -42.5083052  0.605987E-02  0.458E-01    0.31       1.0  T
   3    -42.5163129 -0.800770E-02  0.116E-01    0.62       1.0  T
   4    -42.5164807 -0.167863E-03  0.777E-02    0.55       1.0  T
   5    -42.5165601 -0.793789E-04  0.259E-02    0.57       1.0  T
   6    -42.5165747 -0.145912E-04  0.779E-03    0.57       2.6  T
   7    -42.5165760 -0.125606E-05  0.380E-03    0.57       5.3  T
   8    -42.5165762 -0.199120E-06  0.188E-03    0.57      10.6  T
   9    -42.5165762 -0.698440E-07  0.710E-04    0.58      28.2  T
  10    -42.5165762 -0.682043E-08  0.245E-04    0.58      81.7  T
     SCC iter.                  ...        0 min,  0.014 sec
     gradient                   ...        0 min,  0.011 sec
 * total energy  :   -59.5920495 Eh     change       -0.1293746E-01 Eh
   gradient norm :     0.2755864 Eh/α   predicted    -0.8744561E-02 ( -32.41%)
   displ. norm   :     0.2258187 α      lambda       -0.3000078E-01
   maximum displ.:     0.0879616 α      in ANC's #52, #24, #9, ...

........................................................................
.............................. CYCLE   15 ..............................
........................................................................

 iter      E             dE          RMSdq      gap      omega  full diag
   1    -42.5170705 -0.425171E+02  0.529E-01    0.87       0.0  T
   2    -42.4874787  0.295919E-01  0.963E-01    0.16       1.0  T
   3    -42.5229864 -0.355078E-01  0.305E-01    0.79       1.0  T
   4    -42.5253988 -0.241239E-02  0.117E-01    0.64       1.0  T
   5    -42.5253190  0.798327E-04  0.568E-02    0.65       1.0  T
   6    -42.5254114 -0.924149E-04  0.132E-02    0.64       1.5  T
   7    -42.5254147 -0.335469E-05  0.647E-03    0.64       3.1  T
   8    -42.5254152 -0.441312E-06  0.172E-03    0.64      11.6  T
   9    -42.5254152 -0.200524E-07  0.762E-04    0.64      26.2  T
  10    -42.5254152 -0.859645E-08  0.386E-04    0.64      51.7  T
     SCC iter.                  ...        0 min,  0.014 sec
     gradient                   ...        0 min,  0.011 sec
 * total energy  :   -59.6106741 Eh     change       -0.1862457E-01 Eh
   gradient norm :     0.2227184 Eh/α   predicted    -0.1576550E-01 ( -15.35%)
   displ. norm   :     0.5357401 α      lambda       -0.4551362E-01
   maximum displ.:     0.1950392 α      in ANC's #52, #9, #61, ...

........................................................................
.............................. CYCLE   16 ..............................
........................................................................

 iter      E             dE          RMSdq      gap      omega  full diag
   1    -42.5421189 -0.425421E+02  0.107E+00    1.51       0.0  T
   2    -42.4530269  0.890921E-01  0.160E+00    0.10       1.0  T
   3    -42.5524315 -0.994046E-01  0.690E-01    1.43       1.0  T
   4    -42.5642965 -0.118650E-01  0.319E-01    1.14       1.0  T
   5    -42.5656634 -0.136688E-02  0.946E-02    1.08       1.0  T
   6    -42.5659087 -0.245368E-03  0.226E-02    1.03       1.0  T
   7    -42.5659175 -0.871811E-05  0.998E-03    1.04       2.0  T
   8    -42.5659175 -0.328293E-07  0.544E-03    1.04       3.7  T
   9    -42.5659183 -0.822337E-06  0.155E-03    1.04      12.9  T
  10    -42.5659183 -0.295535E-07  0.653E-04    1.03      30.6  T
  11    -42.5659183 -0.375790E-08  0.250E-04    1.04      80.0  T
     SCC iter.                  ...        0 min,  0.015 sec
     gradient                   ...        0 min,  0.011 sec
 * total energy  :   -59.6187632 Eh     change       -0.8089123E-02 Eh
   gradient norm :     1.1564595 Eh/α   predicted    -0.2928813E-01 ( 262.07%)
   displ. norm   :     0.0630136 α      lambda       -0.3768304E-01
   maximum displ.:     0.0221667 α      in ANC's #45, #44, #39, ...

........................................................................
.............................. CYCLE   17 ..............................
........................................................................

 iter      E             dE          RMSdq      gap      omega  full diag
   1    -42.5641031 -0.425641E+02  0.147E-01    0.94       0.0  T
   2    -42.5616490  0.245407E-02  0.297E-01    1.21       1.0  T
   3    -42.5649229 -0.327391E-02  0.544E-02    1.02       1.0  T
   4    -42.5648819  0.410529E-04  0.540E-02    1.05       1.0  T
   5    -42.5649426 -0.607091E-04  0.195E-02    1.03       1.0  T
   6    -42.5649492 -0.655271E-05  0.375E-03    1.02       5.3  T
   7    -42.5649494 -0.233223E-06  0.204E-03    1.02       9.8  T
   8    -42.5649494 -0.500845E-07  0.703E-04    1.02      28.5  T
   9    -42.5649494 -0.705209E-08  0.242E-04    1.02      82.6  T
     SCC iter.                  ...        0 min,  0.013 sec
     gradient                   ...        0 min,  0.011 sec
 * total energy  :   -59.6404118 Eh     change       -0.2164863E-01 Eh
   gradient norm :     0.1569967 Eh/α   predicted    -0.1891636E-01 ( -12.62%)
   displ. norm   :     0.2245698 α      lambda       -0.1302333E-01
   maximum displ.:     0.0763675 α      in ANC's #9, #41, #7, ...

........................................................................
.............................. CYCLE   18 ..............................
........................................................................

 iter      E             dE          RMSdq      gap      omega  full diag
   1    -42.5778014 -0.425778E+02  0.271E-01    1.22       0.0  T
   2    -42.5768249  0.976499E-03  0.204E-01    1.05       1.0  T
   3    -42.5768208  0.417137E-05  0.243E-01    1.31       1.0  T
   4    -42.5784112 -0.159042E-02  0.766E-02    1.19       1.0  T
   5    -42.5784675 -0.562706E-04  0.216E-02    1.18       1.0  T
   6    -42.5784797 -0.122431E-04  0.778E-03    1.18       2.6  T
   7    -42.5784803 -0.568556E-06  0.351E-03    1.17       5.7  T
   8    -42.5784805 -0.259694E-06  0.962E-04    1.17      20.8  T
   9    -42.5784806 -0.108794E-07  0.501E-04    1.17      39.9  T
     SCC iter.                  ...        0 min,  0.013 sec
     gradient                   ...        0 min,  0.011 sec
 * total energy  :   -59.6510420 Eh     change       -0.1063020E-01 Eh
   gradient norm :     0.1612474 Eh/α   predicted    -0.6839862E-02 ( -35.66%)
   displ. norm   :     0.4234397 α      lambda       -0.2012896E-01
   maximum displ.:     0.1447951 α      in ANC's #9, #41, #7, ...

........................................................................
.............................. CYCLE   19 ..............................
........................................................................

 iter      E             dE          RMSdq      gap      omega  full diag
   1    -42.5969040 -0.425969E+02  0.395E-01    1.44       0.0  T
   2    -42.5971575 -0.253404E-03  0.287E-01    1.35       1.0  T
   3    -42.5977087 -0.551220E-03  0.239E-01    1.54       1.0  T
   4    -42.5980535 -0.344839E-03  0.132E-01    1.33       1.0  T
   5    -42.5987310 -0.677499E-03  0.481E-02    1.45       1.0  T
   6    -42.5987891 -0.581083E-04  0.115E-02    1.43       1.7  T
   7    -42.5987904 -0.130484E-05  0.680E-03    1.43       2.9  T
   8    -42.5987912 -0.773606E-06  0.212E-03    1.43       9.4  T
   9    -42.5987913 -0.709140E-07  0.839E-04    1.43      23.8  T
  10    -42.5987913 -0.423653E-08  0.462E-04    1.43      43.3  T
     SCC iter.                  ...        0 min,  0.014 sec
     gradient                   ...        0 min,  0.011 sec
 * total energy  :   -59.6653887 Eh     change       -0.1434666E-01 Eh
   gradient norm :     0.1281791 Eh/α   predicted    -0.1186875E-01 ( -17.27%)
   displ. norm   :     0.3389523 α      lambda       -0.9331283E-02
   maximum displ.:     0.1163510 α      in ANC's #9, #41, #52, ...

........................................................................
.............................. CYCLE   20 ..............................
........................................................................

 iter      E             dE          RMSdq      gap      omega  full diag
   1    -42.6047900 -0.426048E+02  0.244E-01    1.61       0.0  T
   2    -42.6047922 -0.223191E-05  0.153E-01    1.58       1.0  T
   3    -42.6041900  0.602203E-03  0.165E-01    1.70       1.0  T
   4    -42.6047259 -0.535904E-03  0.695E-02    1.55       1.0  T
   5    -42.6049423 -0.216432E-03  0.135E-02    1.61       1.5  T
   6    -42.6049462 -0.390573E-05  0.675E-03    1.61       3.0  T
   7    -42.6049469 -0.654890E-06  0.176E-03    1.61      11.3  T
   8    -42.6049469 -0.464987E-07  0.624E-04    1.61      32.0  T
   9    -42.6049469 -0.247185E-08  0.396E-04    1.61      50.5  T
     SCC iter.                  ...        0 min,  0.013 sec
     gradient                   ...        0 min,  0.011 sec
 * total energy  :   -59.6718392 Eh     change       -0.6450538E-02 Eh
   gradient norm :     0.0758612 Eh/α   predicted    -0.5201844E-02 ( -19.36%)
   displ. norm   :     0.2344841 α      lambda       -0.6079669E-02
   maximum displ.:     0.0765511 α      in ANC's #9, #52, #40, ...
 * RMSD in coord.:     1.0651880 α      energy gain  -0.1685352E+02 Eh

generating ANC from model Hessian ...
Using Lindh-Hessian (1995)
 Shifting diagonal of input Hessian by    8.1461272086944050E-003
 Lowest  eigenvalues of input Hessian
    0.000000    0.000000    0.000000    0.000000    0.000000    0.000000
    0.010000    0.011602    0.012990    0.014796    0.016718    0.018591
    0.019538    0.021918    0.024271    0.025240    0.028588    0.030680
 Highest eigenvalues
    2.160960    2.197038    2.290275    2.349294   16.314206   22.377906


........................................................................
.............................. CYCLE   21 ..............................
........................................................................

 iter      E             dE          RMSdq      gap      omega  full diag
   1    -42.6054343 -0.426054E+02  0.187E-01    1.71       0.0  T
   2    -42.6054709 -0.365282E-04  0.118E-01    1.74       1.0  T
   3    -42.6051977  0.273159E-03  0.112E-01    1.65       1.0  T
   4    -42.6054537 -0.256000E-03  0.652E-02    1.76       1.0  T
   5    -42.6055921 -0.138384E-03  0.952E-03    1.71       2.1  T
   6    -42.6055940 -0.188252E-05  0.463E-03    1.72       4.3  T
   7    -42.6055942 -0.242972E-06  0.157E-03    1.72      12.7  T
   8    -42.6055942 -0.364094E-07  0.563E-04    1.72      35.5  T
   9    -42.6055942 -0.345707E-08  0.296E-04    1.72      67.7  T
     SCC iter.                  ...        0 min,  0.013 sec
     gradient                   ...        0 min,  0.011 sec
 * total energy  :   -59.6766093 Eh     change       -0.4770060E-02 Eh
   gradient norm :     0.0823364 Eh/α   predicted     0.0000000E+00 (-100.00%)
   displ. norm   :     0.5394922 α      lambda       -0.2733795E-01
   maximum displ.:     0.3413283 α      in ANC's #17, #15, #3, ...

........................................................................
.............................. CYCLE   22 ..............................
........................................................................

 iter      E             dE          RMSdq      gap      omega  full diag
   1    -42.6146318 -0.426146E+02  0.649E-01    2.16       0.0  T
   2    -42.6166120 -0.198016E-02  0.431E-01    1.91       1.0  T
   3    -42.6188507 -0.223871E-02  0.256E-01    2.11       1.0  T
   4    -42.6182233  0.627376E-03  0.178E-01    1.94       1.0  T
   5    -42.6192436 -0.102023E-02  0.545E-02    2.07       1.0  T
   6    -42.6193502 -0.106696E-03  0.114E-02    2.03       1.8  T
   7    -42.6193529 -0.265127E-05  0.554E-03    2.04       3.6  T
   8    -42.6193530 -0.122838E-06  0.217E-03    2.04       9.2  T
   9    -42.6193531 -0.562839E-07  0.103E-03    2.04      19.4  T
  10    -42.6193531 -0.108615E-07  0.402E-04    2.04      49.8  T
  11    -42.6193531 -0.211699E-08  0.148E-04    2.04     134.9  T
     SCC iter.                  ...        0 min,  0.015 sec
     gradient                   ...        0 min,  0.011 sec
 * total energy  :   -59.6805547 Eh     change       -0.3945366E-02 Eh
   gradient norm :     1.3154452 Eh/α   predicted    -0.1764736E-01 ( 347.29%)
   displ. norm   :     0.5595343 α      lambda       -0.7229831E-01
   maximum displ.:     0.3680654 α      in ANC's #17, #15, #18, ...

........................................................................
.............................. CYCLE   23 ..............................
........................................................................

 iter      E             dE          RMSdq      gap      omega  full diag
   1    -42.5989169 -0.425989E+02  0.762E-01    2.21       0.0  T
   2    -42.6016023 -0.268542E-02  0.630E-01    2.09       1.0  T
   3    -42.6095331 -0.793076E-02  0.266E-01    2.20       1.0  T
   4    -42.6089481  0.584955E-03  0.167E-01    2.29       1.0  T
   5    -42.6096898 -0.741687E-03  0.619E-02    2.18       1.0  T
   6    -42.6098017 -0.111866E-03  0.140E-02    2.22       1.4  T
   7    -42.6098060 -0.426699E-05  0.726E-03    2.22       2.8  T
   8    -42.6098066 -0.653053E-06  0.324E-03    2.22       6.2  T
   9    -42.6098067 -0.533522E-07  0.135E-03    2.22      14.8  T
  10    -42.6098067 -0.196349E-07  0.511E-04    2.22      39.2  T
  11    -42.6098067 -0.314479E-08  0.160E-04    2.22     125.0  T
     SCC iter.                  ...        0 min,  0.015 sec
     gradient                   ...        0 min,  0.011 sec
 * total energy  :   -59.7017645 Eh     change       -0.2120986E-01 Eh
   gradient norm :     0.4808303 Eh/α   predicted    -0.4746691E-01 ( 123.80%)
   displ. norm   :     0.5323276 α      lambda       -0.3487311E-01
   maximum displ.:     0.3132330 α      in ANC's #11, #12, #13, ...

........................................................................
.............................. CYCLE   24 ..............................
........................................................................

 iter      E             dE          RMSdq      gap      omega  full diag
   1    -42.6532598 -0.426533E+02  0.420E-01    2.18       0.0  T
   2    -42.6534077 -0.147931E-03  0.319E-01    2.30       1.0  T
   3    -42.6545706 -0.116284E-02  0.192E-01    2.16       1.0  T
   4    -42.6548840 -0.313464E-03  0.101E-01    2.28       1.0  T
   5    -42.6550533 -0.169272E-03  0.282E-02    2.21       1.0  T
   6    -42.6550738 -0.204484E-04  0.914E-03    2.23       2.2  T
   7    -42.6550740 -0.216699E-06  0.573E-03    2.23       3.5  T
   8    -42.6550743 -0.346791E-06  0.141E-03    2.23      14.1  T
   9    -42.6550743 -0.216481E-07  0.628E-04    2.23      31.9  T
  10    -42.6550743 -0.237262E-08  0.218E-04    2.23      91.8  T
     SCC iter.                  ...        0 min,  0.014 sec
     gradient                   ...        0 min,  0.011 sec
 * total energy  :   -59.7284153 Eh     change       -0.2665077E-01 Eh
   gradient norm :     0.2756946 Eh/α   predicted    -0.2237779E-01 ( -16.03%)
   displ. norm   :     0.8324773 α      lambda       -0.3836117E-01
   maximum displ.:     0.4154817 α      in ANC's #17, #13, #12, ...

........................................................................
.............................. CYCLE   25 ..............................
........................................................................

 iter      E             dE          RMSdq      gap      omega  full diag
   1    -42.6647223 -0.426647E+02  0.714E-01    2.24       0.0  T
   2    -42.6668678 -0.214549E-02  0.542E-01    1.82       1.0  T
   3    -42.6702641 -0.339637E-02  0.298E-01    2.14       1.0  T
   4    -42.6698272  0.436910E-03  0.173E-01    1.93       1.0  T
   5    -42.6707941 -0.966905E-03  0.404E-02    2.05       1.0  T
   6    -42.6708293 -0.351685E-04  0.121E-02    2.04       1.7  T
   7    -42.6708293  0.402144E-07  0.701E-03    2.04       2.9  T
   8    -42.6708302 -0.959860E-06  0.201E-03    2.04       9.9  T
   9    -42.6708303 -0.748825E-07  0.902E-04    2.04      22.2  T
  10    -42.6708303 -0.125487E-07  0.378E-04    2.04      52.9  T
     SCC iter.                  ...        0 min,  0.014 sec
     gradient                   ...        0 min,  0.011 sec
 * total energy  :   -59.7339700 Eh     change       -0.5554760E-02 Eh
   gradient norm :     0.7452756 Eh/α   predicted    -0.3247311E-01 ( 484.60%)
   displ. norm   :     0.3221579 α      lambda       -0.3050369E-01
   maximum displ.:     0.1275110 α      in ANC's #17, #3, #18, ...

........................................................................
.............................. CYCLE   26 ..............................
........................................................................

 iter      E             dE          RMSdq      gap      omega  full diag
   1    -42.6880019 -0.426880E+02  0.353E-01    1.94       0.0  T
   2    -42.6879932  0.872454E-05  0.309E-01    2.30       1.0  T
   3    -42.6896415 -0.164831E-02  0.149E-01    2.07       1.0  T
   4    -42.6896502 -0.873578E-05  0.790E-02    2.13       1.0  T
   5    -42.6897822 -0.131949E-03  0.164E-02    2.11       1.2  T
   6    -42.6897877 -0.549661E-05  0.674E-03    2.11       3.0  T
   7    -42.6897877 -0.481255E-07  0.392E-03    2.11       5.1  T
   8    -42.6897879 -0.202593E-06  0.107E-03    2.11      18.7  T
   9    -42.6897879 -0.106472E-07  0.588E-04    2.11      34.0  T
  10    -42.6897879 -0.259901E-08  0.276E-04    2.11      72.3  T
     SCC iter.                  ...        0 min,  0.014 sec
     gradient                   ...        0 min,  0.011 sec
 * total energy  :   -59.7476770 Eh     change       -0.1370701E-01 Eh
   gradient norm :     0.1455375 Eh/α   predicted    -0.1683478E-01 (  22.82%)
   displ. norm   :     0.2456106 α      lambda       -0.4091122E-02
   maximum displ.:     0.1129332 α      in ANC's #3, #11, #12, ...

........................................................................
.............................. CYCLE   27 ..............................
........................................................................

 iter      E             dE          RMSdq      gap      omega  full diag
   1    -42.6895869 -0.426896E+02  0.227E-01    2.21       0.0  T
   2    -42.6896885 -0.101619E-03  0.140E-01    2.21       1.0  T
   3    -42.6896571  0.313610E-04  0.829E-02    2.22       1.0  T
   4    -42.6897354 -0.782993E-04  0.268E-02    2.19       1.0  T
   5    -42.6897532 -0.177401E-04  0.737E-03    2.21       2.7  T
   6    -42.6897540 -0.790925E-06  0.423E-03    2.21       4.7  T
   7    -42.6897541 -0.121283E-06  0.190E-03    2.21      10.5  T
   8    -42.6897542 -0.755824E-07  0.488E-04    2.21      41.0  T
   9    -42.6897542 -0.144453E-08  0.250E-04    2.21      80.2  T
     SCC iter.                  ...        0 min,  0.013 sec
     gradient                   ...        0 min,  0.011 sec
 * total energy  :   -59.7493873 Eh     change       -0.1710218E-02 Eh
   gradient norm :     0.0726474 Eh/α   predicted    -0.2169020E-02 (  26.83%)
   displ. norm   :     0.3412594 α      lambda       -0.3052830E-02
   maximum displ.:     0.1502744 α      in ANC's #2, #3, #13, ...

........................................................................
.............................. CYCLE   28 ..............................
........................................................................

 iter      E             dE          RMSdq      gap      omega  full diag
   1    -42.6922881 -0.426923E+02  0.232E-01    2.20       0.0  T
   2    -42.6924049 -0.116775E-03  0.156E-01    2.25       1.0  T
   3    -42.6923615  0.433495E-04  0.870E-02    2.18       1.0  T
   4    -42.6924581 -0.965910E-04  0.472E-02    2.25       1.0  T
   5    -42.6925163 -0.581994E-04  0.601E-03    2.22       3.3  T
   6    -42.6925170 -0.625569E-06  0.311E-03    2.22       6.4  T
   7    -42.6925170 -0.609421E-07  0.131E-03    2.22      15.3  T
   8    -42.6925171 -0.335859E-07  0.355E-04    2.22      56.3  T
   9    -42.6925171 -0.121975E-08  0.188E-04    2.22     106.2  T
     SCC iter.                  ...        0 min,  0.013 sec
     gradient                   ...        0 min,  0.011 sec
 * total energy  :   -59.7507363 Eh     change       -0.1349036E-02 Eh
   gradient norm :     0.0669382 Eh/α   predicted    -0.1704188E-02 (  26.33%)
   displ. norm   :     0.1866388 α      lambda       -0.1396941E-02
   maximum displ.:     0.1367907 α      in ANC's #1, #10, #5, ...

........................................................................
.............................. CYCLE   29 ..............................
........................................................................

 iter      E             dE          RMSdq      gap      omega  full diag
   1    -42.6909917 -0.426910E+02  0.102E-01    2.23       0.0  T
   2    -42.6910104 -0.187422E-04  0.660E-02    2.24       1.0  T
   3    -42.6910072  0.325636E-05  0.362E-02    2.23       1.0  T
   4    -42.6910235 -0.163679E-04  0.802E-03    2.23       2.5  T
   5    -42.6910247 -0.119739E-05  0.270E-03    2.23       7.4  T
   6    -42.6910247  0.235543E-07  0.197E-03    2.23      10.2  T
   7    -42.6910248 -0.568808E-07  0.711E-04    2.23      28.1  T
   8    -42.6910248 -0.139184E-07  0.229E-04    2.23      87.3  T
     SCC iter.                  ...        0 min,  0.011 sec
     gradient                   ...        0 min,  0.011 sec
 * total energy  :   -59.7514843 Eh     change       -0.7480101E-03 Eh
   gradient norm :     0.0216742 Eh/α   predicted    -0.7228053E-03 (  -3.37%)
   displ. norm   :     0.2165014 α      lambda       -0.1007927E-02
   maximum displ.:     0.1417940 α      in ANC's #1, #2, #8, ...

........................................................................
.............................. CYCLE   30 ..............................
........................................................................

 iter      E             dE          RMSdq      gap      omega  full diag
   1    -42.6909541 -0.426910E+02  0.131E-01    2.26       0.0  T
   2    -42.6909964 -0.422878E-04  0.822E-02    2.29       1.0  T
   3    -42.6909922  0.419807E-05  0.456E-02    2.26       1.0  T
   4    -42.6910120 -0.198247E-04  0.144E-02    2.29       1.4  T
   5    -42.6910185 -0.644820E-05  0.442E-03    2.27       4.5  T
   6    -42.6910190 -0.510956E-06  0.166E-03    2.28      12.0  T
   7    -42.6910190 -0.882352E-08  0.698E-04    2.28      28.6  T
   8    -42.6910190 -0.890718E-08  0.178E-04    2.28     112.4  T
     SCC iter.                  ...        0 min,  0.011 sec
     gradient                   ...        0 min,  0.011 sec
 * total energy  :   -59.7520319 Eh     change       -0.5475458E-03 Eh
   gradient norm :     0.0216615 Eh/α   predicted    -0.5275912E-03 (  -3.64%)
   displ. norm   :     0.1919230 α      lambda       -0.5256188E-03
   maximum displ.:     0.1059612 α      in ANC's #1, #2, #3, ...

........................................................................
.............................. CYCLE   31 ..............................
........................................................................

 iter      E             dE          RMSdq      gap      omega  full diag
   1    -42.6939523 -0.426940E+02  0.906E-02    2.28       0.0  T
   2    -42.6939612 -0.897050E-05  0.600E-02    2.33       1.0  T
   3    -42.6939801 -0.188367E-04  0.424E-02    2.28       1.0  T
   4    -42.6940023 -0.222673E-04  0.153E-02    2.31       1.3  T
   5    -42.6940079 -0.559998E-05  0.309E-03    2.30       6.5  T
   6    -42.6940081 -0.199027E-06  0.122E-03    2.30      16.3  T
   7    -42.6940081 -0.294229E-08  0.546E-04    2.30      36.6  T
   8    -42.6940081 -0.452991E-08  0.149E-04    2.30     134.4  T
     SCC iter.                  ...        0 min,  0.011 sec
     gradient                   ...        0 min,  0.011 sec
 * total energy  :   -59.7522918 Eh     change       -0.2599052E-03 Eh
   gradient norm :     0.0152180 Eh/α   predicted    -0.2724920E-03 (   4.84%)
   displ. norm   :     0.2171366 α      lambda       -0.4731292E-03
   maximum displ.:     0.1515775 α      in ANC's #1, #2, #10, ...

........................................................................
.............................. CYCLE   32 ..............................
........................................................................

 iter      E             dE          RMSdq      gap      omega  full diag
   1    -42.6939241 -0.426939E+02  0.122E-01    2.33       0.0  T
   2    -42.6939375 -0.133622E-04  0.708E-02    2.35       1.0  T
   3    -42.6939227  0.147929E-04  0.381E-02    2.33       1.0  T
   4    -42.6939449 -0.222133E-04  0.553E-03    2.34       3.6  T
   5    -42.6939458 -0.926236E-06  0.229E-03    2.34       8.7  T
   6    -42.6939459 -0.433207E-07  0.137E-03    2.34      14.6  T
   7    -42.6939459 -0.149472E-07  0.616E-04    2.34      32.4  T
   8    -42.6939459 -0.940656E-08  0.153E-04    2.34     130.9  T
     SCC iter.                  ...        0 min,  0.011 sec
     gradient                   ...        0 min,  0.012 sec
 * total energy  :   -59.7525063 Eh     change       -0.2145136E-03 Eh
   gradient norm :     0.0150223 Eh/α   predicted    -0.2477252E-03 (  15.48%)
   displ. norm   :     0.0848623 α      lambda       -0.2477588E-03
   maximum displ.:     0.0510289 α      in ANC's #1, #5, #12, ...

........................................................................
.............................. CYCLE   33 ..............................
........................................................................

 iter      E             dE          RMSdq      gap      omega  full diag
   1    -42.6971368 -0.426971E+02  0.403E-02    2.36       0.0  T
   2    -42.6971435 -0.666649E-05  0.247E-02    2.34       1.0  T
   3    -42.6971429  0.573591E-06  0.157E-02    2.36       1.3  T
   4    -42.6971452 -0.228829E-05  0.848E-03    2.34       2.4  T
   5    -42.6971471 -0.192963E-05  0.137E-03    2.35      14.6  T
   6    -42.6971471 -0.334494E-07  0.677E-04    2.35      29.6  T
   7    -42.6971471 -0.176625E-08  0.251E-04    2.35      79.8  T
     SCC iter.                  ...        0 min,  0.010 sec
     gradient                   ...        0 min,  0.012 sec
 * total energy  :   -59.7526765 Eh     change       -0.1702231E-03 Eh
   gradient norm :     0.0128992 Eh/α   predicted    -0.1247768E-03 ( -26.70%)
   displ. norm   :     0.2041953 α      lambda       -0.3786178E-03
   maximum displ.:     0.1153590 α      in ANC's #1, #5, #3, ...

........................................................................
.............................. CYCLE   34 ..............................
........................................................................

 iter      E             dE          RMSdq      gap      omega  full diag
   1    -42.6978146 -0.426978E+02  0.905E-02    2.34       0.0  T
   2    -42.6978212 -0.660952E-05  0.587E-02    2.38       1.0  T
   3    -42.6978133  0.793269E-05  0.425E-02    2.33       1.0  T
   4    -42.6978476 -0.343114E-04  0.121E-02    2.36       1.7  T
   5    -42.6978513 -0.368058E-05  0.248E-03    2.36       8.1  T
   6    -42.6978514 -0.100387E-06  0.119E-03    2.36      16.8  T
   7    -42.6978514 -0.511709E-08  0.462E-04    2.36      43.3  T
   8    -42.6978514 -0.318738E-08  0.153E-04    2.36     131.1  T
     SCC iter.                  ...        0 min,  0.011 sec
     gradient                   ...        0 min,  0.011 sec
 * total energy  :   -59.7528815 Eh     change       -0.2050285E-03 Eh
   gradient norm :     0.0101585 Eh/α   predicted    -0.1972057E-03 (  -3.82%)
   displ. norm   :     0.1396352 α      lambda       -0.1507498E-03
   maximum displ.:     0.1093590 α      in ANC's #1, #13, #10, ...

........................................................................
.............................. CYCLE   35 ..............................
........................................................................

 iter      E             dE          RMSdq      gap      omega  full diag
   1    -42.6982909 -0.426983E+02  0.565E-02    2.37       0.0  T
   2    -42.6983046 -0.136520E-04  0.341E-02    2.40       1.0  T
   3    -42.6983109 -0.630574E-05  0.216E-02    2.37       1.0  T
   4    -42.6983132 -0.231545E-05  0.107E-02    2.39       1.9  T
   5    -42.6983162 -0.299590E-05  0.238E-03    2.38       8.4  T
   6    -42.6983163 -0.142713E-06  0.909E-04    2.38      22.0  T
   7    -42.6983163 -0.261855E-08  0.418E-04    2.38      47.9  T
     SCC iter.                  ...        0 min,  0.010 sec
     gradient                   ...        0 min,  0.012 sec
 * total energy  :   -59.7529879 Eh     change       -0.1063293E-03 Eh
   gradient norm :     0.0168342 Eh/α   predicted    -0.7685088E-04 ( -27.72%)
   displ. norm   :     0.1440875 α      lambda       -0.1416988E-03
   maximum displ.:     0.1004248 α      in ANC's #1, #5, #13, ...

........................................................................
.............................. CYCLE   36 ..............................
........................................................................

 iter      E             dE          RMSdq      gap      omega  full diag
   1    -42.6983483 -0.426983E+02  0.587E-02    2.39       0.0  T
   2    -42.6983552 -0.689425E-05  0.368E-02    2.42       1.0  T
   3    -42.6983596 -0.446457E-05  0.250E-02    2.39       1.0  T
   4    -42.6983667 -0.710999E-05  0.100E-02    2.41       2.0  T
   5    -42.6983692 -0.247137E-05  0.185E-03    2.40      10.8  T
   6    -42.6983693 -0.697098E-07  0.920E-04    2.40      21.7  T
   7    -42.6983693 -0.458861E-08  0.359E-04    2.40      55.7  T
     SCC iter.                  ...        0 min,  0.010 sec
     gradient                   ...        0 min,  0.011 sec
 * total energy  :   -59.7530945 Eh     change       -0.1066336E-03 Eh
   gradient norm :     0.0203491 Eh/α   predicted    -0.7232679E-04 ( -32.17%)
   displ. norm   :     0.1641785 α      lambda       -0.1660686E-03
   maximum displ.:     0.0901398 α      in ANC's #1, #5, #11, ...

........................................................................
.............................. CYCLE   37 ..............................
........................................................................

 iter      E             dE          RMSdq      gap      omega  full diag
   1    -42.6981875 -0.426982E+02  0.738E-02    2.41       0.0  T
   2    -42.6981931 -0.556150E-05  0.460E-02    2.44       1.0  T
   3    -42.6981862  0.683203E-05  0.333E-02    2.40       1.0  T
   4    -42.6982063 -0.200469E-04  0.103E-02    2.43       1.9  T
   5    -42.6982089 -0.260557E-05  0.181E-03    2.42      11.1  T
   6    -42.6982089 -0.508522E-07  0.996E-04    2.42      20.1  T
   7    -42.6982089 -0.702457E-08  0.342E-04    2.42      58.4  T
     SCC iter.                  ...        0 min,  0.010 sec
     gradient                   ...        0 min,  0.011 sec
 * total energy  :   -59.7532144 Eh     change       -0.1199119E-03 Eh
   gradient norm :     0.0206467 Eh/α   predicted    -0.8528280E-04 ( -28.88%)
   displ. norm   :     0.1343456 α      lambda       -0.1371813E-03
   maximum displ.:     0.0817688 α      in ANC's #5, #11, #4, ...

........................................................................
.............................. CYCLE   38 ..............................
........................................................................

 iter      E             dE          RMSdq      gap      omega  full diag
   1    -42.6981917 -0.426982E+02  0.634E-02    2.42       0.0  T
   2    -42.6981937 -0.201733E-05  0.388E-02    2.44       1.0  T
   3    -42.6981765  0.171898E-04  0.280E-02    2.41       1.0  T
   4    -42.6981982 -0.216940E-04  0.598E-03    2.43       3.3  T
   5    -42.6981991 -0.868591E-06  0.117E-03    2.43      17.2  T
   6    -42.6981991 -0.112801E-07  0.705E-04    2.43      28.4  T
   7    -42.6981991 -0.449190E-08  0.190E-04    2.43     105.3  T
     SCC iter.                  ...        0 min,  0.010 sec
     gradient                   ...        0 min,  0.011 sec
 * total energy  :   -59.7533110 Eh     change       -0.9658031E-04 Eh
   gradient norm :     0.0150596 Eh/α   predicted    -0.6983249E-04 ( -27.69%)
   displ. norm   :     0.0948624 α      lambda       -0.8792738E-04
   maximum displ.:     0.0574325 α      in ANC's #5, #4, #11, ...

........................................................................
.............................. CYCLE   39 ..............................
........................................................................

 iter      E             dE          RMSdq      gap      omega  full diag
   1    -42.6982640 -0.426983E+02  0.421E-02    2.43       0.0  T
   2    -42.6982649 -0.833526E-06  0.250E-02    2.43       1.0  T
   3    -42.6982603  0.456110E-05  0.134E-02    2.42       1.5  T
   4    -42.6982654 -0.509245E-05  0.296E-03    2.43       6.8  T
   5    -42.6982656 -0.250574E-06  0.720E-04    2.43      27.8  T
   6    -42.6982656 -0.276300E-08  0.443E-04    2.43      45.2  T
     SCC iter.                  ...        0 min,  0.009 sec
     gradient                   ...        0 min,  0.011 sec
 * total energy  :   -59.7533713 Eh     change       -0.6032511E-04 Eh
   gradient norm :     0.0062864 Eh/α   predicted    -0.4436426E-04 ( -26.46%)
   displ. norm   :     0.0691497 α      lambda       -0.4467597E-04
   maximum displ.:     0.0364372 α      in ANC's #5, #4, #3, ...

........................................................................
.............................. CYCLE   40 ..............................
........................................................................

 iter      E             dE          RMSdq      gap      omega  full diag
   1    -42.6985874 -0.426986E+02  0.227E-02    2.43       0.0  T
   2    -42.6985878 -0.354505E-06  0.133E-02    2.42       1.5  T
   3    -42.6985871  0.673918E-06  0.597E-03    2.43       3.4  T
   4    -42.6985879 -0.802821E-06  0.140E-03    2.42      14.3  T
   5    -42.6985880 -0.462044E-07  0.461E-04    2.42      43.4  T
   6    -42.6985880 -0.419867E-09  0.266E-04    2.42      75.1  T
     SCC iter.                  ...        0 min,  0.009 sec
     gradient                   ...        0 min,  0.011 sec
 * total energy  :   -59.7534034 Eh     change       -0.3212957E-04 Eh
   gradient norm :     0.0035107 Eh/α   predicted    -0.2244684E-04 ( -30.14%)
   displ. norm   :     0.0729005 α      lambda       -0.3595396E-04
   maximum displ.:     0.0368784 α      in ANC's #4, #5, #3, ...

   *** GEOMETRY OPTIMIZATION CONVERGED AFTER 40 ITERATIONS ***

------------------------------------------------------------------------
 total energy gain   :       -16.9350804 Eh   -10626.9234 kcal/mol
 total RMSD          :         1.2568533 a0        0.6651 Å
 total power (kW/mol):     -1111.5761891 (step)********** (real)
------------------------------------------------------------------------

 ANCopt (total)                0 d,  0 h,  0 min,  1.211 sec
 optimizer setup                ...        0 min,  0.000 sec (  0.036%)
 model hessian                  ...        0 min,  0.014 sec (  1.166%)
 ANC generation                 ...        0 min,  0.002 sec (  0.158%)
 coordinate transformation      ...        0 min,  0.000 sec (  0.027%)
 single point calculation       ...        0 min,  1.182 sec ( 97.602%)
 optimization log               ...        0 min,  0.003 sec (  0.272%)
 hessian update                 ...        0 min,  0.000 sec (  0.037%)
 rational function              ...        0 min,  0.007 sec (  0.560%)

================
 final structure:
================
25
 xtb: 6.6.1 (8d0f1dd)
C            3.12303353633799        1.19621283792265        0.20731977325217
N            2.14685656843518        0.14496151728287        0.10594890536041
C            2.39148936667045       -1.13080359219661       -0.19544829790942
N            1.22766278604314       -1.81383762010974       -0.20034032470083
C            0.21474366019862       -0.94311033774589        0.11307954691749
C            0.80417781037562        0.29031550495101        0.32575409500551
C            0.06092614639795        1.58945980038804        0.76192946533690
O            0.46546148350130        2.61170246890302        0.13832139257699
N           -1.58398075166250        1.02997392536655       -0.13231967925057
C           -2.22217296038996        2.00728175907060       -0.67187404760145
C           -2.08687891615408       -0.26802945463847       -0.08939013492794
O           -3.25304996355399       -0.54626917437932       -0.21177456936080
N           -1.11232887491747       -1.25234686345193        0.11334157300918
C           -1.53893961311526       -2.63758294205338        0.12977383910131
H            3.54645503152392        1.22871054709935        1.21359001879369
H            3.92552400491724        1.02931746296386       -0.50868643493982
H            2.63662861268546        2.15021752417132       -0.00252992380803
H            3.35641507928661       -1.54857971736195       -0.40070239267216
H           -1.76307920043271        2.98589324376588       -0.62188791398330
H           -3.16731066255715        1.87006652011971       -1.17778453562142
H           -0.14119323751867        1.57088830380968        1.13451817907853
H           -1.06253358878710       -3.16709668448892        0.95475421798871
H           -1.31498751015283       -3.13508382489887       -0.81676665501722
H           -2.61948320889861       -2.64773764931946        0.27154318379331
H            1.12699591586732       -2.79628501356905       -0.40919766252140

 Bond Distances (Angstroems)
 ---------------------------
C1-N2=1.4382         C1-H15=1.0922        C1-H16=1.0884        C1-H17=1.0912        N2-C1=1.4382         N2-C3=1.3335         
N2-C6=1.3683         C3-N2=1.3335         C3-N4=1.3495         C3-H18=1.0713        N4-C3=1.3495         N4-C5=1.3720         
N4-H25=1.0094        C5-N4=1.3720         C5-C6=1.3835         C5-N13=1.3626        C6-N2=1.3683         C6-C5=1.3835         
C6-C7=1.5590         C7-C6=1.5590         C7-O8=1.2639         C7-H21=0.4243        O8-C7=1.2639         N9-C10=1.2859        
N9-C11=1.3927        C10-N9=1.2859        C10-H19=1.0821       C10-H20=1.0808       C11-N9=1.3927        C11-O12=1.2051       
C11-N13=1.3999       O12-C11=1.2051       N13-C5=1.3626        N13-C11=1.3999       N13-C14=1.4495       C14-N13=1.4495       
C14-H22=1.0899       C14-H23=1.0925       C14-H24=1.0899       H15-C1=1.0922        H16-C1=1.0884        H17-C1=1.0912        
H18-C3=1.0713        H19-C10=1.0821       H20-C10=1.0808       H21-C7=0.4243        H22-C14=1.0899       H23-C14=1.0925       
H24-C14=1.0899       H25-N4=1.0094        
 C  H  Rav=1.0203 sigma=0.1988  Rmin=0.4243  Rmax=1.0925    10
 C  C  Rav=1.4712 sigma=0.0878  Rmin=1.3835  Rmax=1.5590     2
 N  H  Rav=1.0094 sigma=0.0000  Rmin=1.0094  Rmax=1.0094     1
 N  C  Rav=1.3752 sigma=0.0458  Rmin=1.2859  Rmax=1.4495    10
 O  C  Rav=1.2345 sigma=0.0294  Rmin=1.2051  Rmax=1.2639     2

 selected bond angles (degree)
 --------------------
H15-C1-N2=110.48               H16-C1-N2=110.00               H16-C1-H15=108.96              H17-C1-N2=108.84               
H17-C1-H15=108.90              H17-C1-H16=109.65              C3-N2-C1=126.21                C6-N2-C1=125.25                
C6-N2-C3=108.54                N4-C3-N2=109.08                H18-C3-N2=125.56               H18-C3-N4=125.36               
C5-N4-C3=108.34                H25-N4-C3=125.41               H25-N4-C5=126.25               C6-C5-N4=106.64                
N13-C5-N4=125.10               N13-C5-C6=128.11               C5-C6-N2=107.38                C7-C6-N2=126.96                
C7-C6-C5=125.65                O8-C7-C6=112.54                H21-C7-C6=115.87               H21-C7-O8=128.40               
C11-N9-C10=122.82              H19-C10-N9=117.22              H20-C10-N9=122.27              H20-C10-H19=120.49             

 selected dihedral angles (degree)
 ---------------------------------
C3-N2-C1-H15=273.11           C3-N2-C1-H16= 33.44           C3-N2-C1-H17=153.59           C6-N2-C1-H15= 92.05           
C6-N2-C1-H16=212.38           C6-N2-C1-H17=332.52           N4-C3-N2-C1=180.22            N4-C3-N2-C6=  1.14            
H18-C3-N2-C1=  0.25           H18-C3-N2-C6=181.16           C5-N4-C3-N2=359.77            C5-N4-C3-H18=179.74           
H25-N4-C3-N2=179.21           H25-N4-C3-H18=359.19          C6-C5-N4-C3=359.25            C6-C5-N4-H25=179.82           
N13-C5-N4-C3=175.21           N13-C5-N4-H25=355.77          C5-C6-N2-C1=179.32            C5-C6-N2-C3=358.41            
C7-C6-N2-C1=358.25            C7-C6-N2-C3=177.34            N2-C6-C5-N4=  1.42            N2-C6-C5-N13=185.63           
C7-C6-C5-N4=182.47            C7-C6-C5-N13=  6.68           O8-C7-C6-N2= 43.21            O8-C7-C6-C5=221.95            
H21-C7-C6-N2=241.64           H21-C7-C6-C5= 60.39           H19-C10-N9-C11=177.78         H20-C10-N9-C11=356.40         
           -------------------------------------------------
          |                Final Singlepoint                |
           -------------------------------------------------

          ...................................................
          :                      SETUP                      :
          :.................................................:
          :  # basis functions                  67          :
          :  # atomic orbitals                  67          :
          :  # shells                           39          :
          :  # electrons                        74          :
          :  max. iterations                   250          :
          :  Hamiltonian                  GFN2-xTB          :
          :  restarted?                      false          :
          :  GBSA solvation                  false          :
          :  PC potential                    false          :
          :  electronic temp.         7500.0000000     K    :
          :  accuracy                    1.0000000          :
          :  -> integral cutoff          0.2500000E+02      :
          :  -> integral neglect         0.1000000E-07      :
          :  -> SCF convergence          0.1000000E-05 Eh   :
          :  -> wf. convergence          0.1000000E-03 e    :
          :  Broyden damping             0.4000000          :
          ...................................................

 iter      E             dE          RMSdq      gap      omega  full diag
   1    -42.6985880 -0.426986E+02  0.123E-04    2.42       0.0  T
   2    -42.6985880  0.741451E-10  0.115E-04    2.42     174.3  T
   3    -42.6985880 -0.416243E-09  0.386E-05    2.42     517.9  T

   *** convergence criteria satisfied after 3 iterations ***

         #    Occupation            Energy/Eh            Energy/eV
      -------------------------------------------------------------
         1        2.0000           -0.9063187             -24.6622
       ...           ...                  ...                  ...
        31        1.9935           -0.6238871             -16.9768
        32        1.9910           -0.6162130             -16.7680
        33        1.9892           -0.6117493             -16.6465
        34        1.9715           -0.5885521             -16.0153
        35        1.9216           -0.5638629             -15.3435
        36        1.8454           -0.5467853             -14.8788
        37        1.7986           -0.5398875             -14.6911 (HOMO)
        38        0.3467           -0.4507845             -12.2665 (LUMO)
        39        0.1028           -0.4186371             -11.3917
        40        0.0525           -0.4020562             -10.9405
        41        0.0058           -0.3491219              -9.5001
        42        0.0025           -0.3288128              -8.9475
       ...           ...                  ...                  ...
        67                         10.4768408             285.0893
      -------------------------------------------------------------
                  HL-Gap            0.0891030 Eh            2.4246 eV
             Fermi-level           -0.4878866 Eh          -13.2761 eV

 SCC (total)                   0 d,  0 h,  0 min,  0.021 sec
 SCC setup                      ...        0 min,  0.000 sec (  0.836%)
 Dispersion                     ...        0 min,  0.000 sec (  0.866%)
 classical contributions        ...        0 min,  0.000 sec (  0.325%)
 integral evaluation            ...        0 min,  0.004 sec ( 20.976%)
 iterations                     ...        0 min,  0.005 sec ( 21.932%)
 molecular gradient             ...        0 min,  0.011 sec ( 54.481%)
 printout                       ...        0 min,  0.000 sec (  0.528%)

         :::::::::::::::::::::::::::::::::::::::::::::::::::::
         ::                     SUMMARY                     ::
         :::::::::::::::::::::::::::::::::::::::::::::::::::::
         :: total energy             -59.753403439636 Eh    ::
         :: gradient norm              0.003515370596 Eh/a0 ::
         :: HOMO-LUMO gap              2.424616146356 eV    ::
         ::.................................................::
         :: SCC energy               -42.698587960087 Eh    ::
         :: -> isotropic ES            0.141726267682 Eh    ::
         :: -> anisotropic ES         -0.008225733343 Eh    ::
         :: -> anisotropic XC          0.015429495958 Eh    ::
         :: -> dispersion             -0.023058546721 Eh    ::
         :: repulsion energy           2.260553626224 Eh    ::
         :: add. restraining         -19.315534862848 Eh    ::
         :: total charge               1.000000000000 e     ::
         :::::::::::::::::::::::::::::::::::::::::::::::::::::

           -------------------------------------------------
          |                Property Printout                |
           -------------------------------------------------

    * Orbital Energies and Occupations

         #    Occupation            Energy/Eh            Energy/eV
      -------------------------------------------------------------
         1        2.0000           -0.9063187             -24.6622
       ...           ...                  ...                  ...
        25        1.9991           -0.6707847             -18.2530
        26        1.9990           -0.6674761             -18.1629
        27        1.9986           -0.6612501             -17.9935
        28        1.9958           -0.6343662             -17.2620
        29        1.9950           -0.6300976             -17.1458
        30        1.9942           -0.6267193             -17.0539
        31        1.9935           -0.6238871             -16.9768
        32        1.9910           -0.6162130             -16.7680
        33        1.9892           -0.6117493             -16.6465
        34        1.9715           -0.5885521             -16.0153
        35        1.9216           -0.5638629             -15.3435
        36        1.8454           -0.5467853             -14.8788
        37        1.7986           -0.5398875             -14.6911 (HOMO)
        38        0.3467           -0.4507845             -12.2665 (LUMO)
        39        0.1028           -0.4186371             -11.3917
        40        0.0525           -0.4020562             -10.9405
        41        0.0058           -0.3491219              -9.5001
        42        0.0025           -0.3288128              -8.9475
        43        0.0000           -0.1922921              -5.2325
        44        0.0000           -0.1866819              -5.0799
        45        0.0000           -0.1537364              -4.1834
        46        0.0000           -0.0944297              -2.5696
        47                         -0.0681211              -1.8537
        48                         -0.0451096              -1.2275
       ...                                ...                  ...
        67                         10.4768408             285.0893
      -------------------------------------------------------------
                  HL-Gap            0.0891030 Eh            2.4246 eV
             Fermi-level           -0.4878866 Eh          -13.2761 eV

     #   Z          covCN         q      C6AA      α(0)
     1   6 C        3.692    -0.092    22.457     6.781
     2   7 N        2.842     0.082    19.818     6.612
     3   6 C        3.036     0.044    26.978     8.519
     4   7 N        2.800    -0.062    22.438     7.035
     5   6 C        3.023     0.104    25.677     8.312
     6   6 C        3.092    -0.013    28.236     8.710
     7   6 C        3.198     0.149    24.273     8.030
     8   8 O        0.862    -0.384    21.352     6.195
     9   7 N        2.268    -0.145    24.443     7.339
    10   6 C        2.792     0.035    27.198     8.543
    11   6 C        2.729     0.322    21.520     7.595
    12   8 O        0.858    -0.340    20.525     6.074
    13   7 N        2.737    -0.054    22.282     7.011
    14   6 C        3.700    -0.071    22.036     6.713
    15   1 H        0.924     0.109     1.709     2.044
    16   1 H        0.925     0.105     1.743     2.064
    17   1 H        0.924     0.139     1.470     1.896
    18   1 H        0.926     0.122     1.596     1.976
    19   1 H        0.925     0.136     1.491     1.910
    20   1 H        0.926     0.121     1.606     1.982
    21   1 H        0.939     0.171     1.259     1.754
    22   1 H        0.925     0.085     1.927     2.171
    23   1 H        0.924     0.083     1.944     2.180
    24   1 H        0.925     0.127     1.562     1.954
    25   1 H        0.860     0.228     0.975     1.546

 Mol. C6AA /au·bohr⁶  :       6617.510395
 Mol. C8AA /au·bohr⁸  :     152551.943724
 Mol. α(0) /au        :        124.946077


Wiberg/Mayer (AO) data.
largest (>0.10) Wiberg bond orders for each atom

 ---------------------------------------------------------------------------
     #   Z sym  total        # sym  WBO       # sym  WBO       # sym  WBO
 ---------------------------------------------------------------------------
     1   6 C    3.905 --     2 N    0.988    16 H    0.966    15 H    0.952
                            17 H    0.952
     2   7 N    3.664 --     3 C    1.349     6 C    1.196     1 C    0.988
     3   6 C    3.798 --     2 N    1.349     4 N    1.280    18 H    0.953
     4   7 N    3.558 --     3 C    1.280     5 C    1.172    25 H    0.918
     5   6 C    3.889 --     6 C    1.395     4 N    1.172    13 N    1.152
     6   6 C    3.789 --     5 C    1.395     2 N    1.196     7 C    0.919
     7   6 C    3.869 --     8 O    1.590    21 H    0.939     6 C    0.919
                             9 N    0.346
     8   8 O    1.823 --     7 C    1.590     9 N    0.116
     9   7 N    3.300 --    10 C    1.659    11 C    1.053     7 C    0.346
                             8 O    0.116
    10   6 C    3.601 --     9 N    1.659    19 H    0.943    20 H    0.937
    11   6 C    3.874 --    12 O    1.681    13 N    1.066     9 N    1.053
    12   8 O    1.957 --    11 C    1.681    13 N    0.118
    13   7 N    3.464 --     5 C    1.152    11 C    1.066    14 C    0.980
                            12 O    0.118
    14   6 C    3.914 --    13 N    0.980    22 H    0.969    23 H    0.962
                            24 H    0.960
    15   1 H    0.980 --     1 C    0.952
    16   1 H    0.984 --     1 C    0.966
    17   1 H    0.976 --     1 C    0.952
    18   1 H    0.984 --     3 C    0.953
    19   1 H    0.971 --    10 C    0.943
    20   1 H    0.966 --    10 C    0.937
    21   1 H    0.955 --     7 C    0.939
    22   1 H    0.983 --    14 C    0.969
    23   1 H    0.980 --    14 C    0.962
    24   1 H    0.979 --    14 C    0.960
    25   1 H    0.947 --     4 N    0.918
 ---------------------------------------------------------------------------

Topologies differ in total number of bonds
Writing topology from bond orders to xtbtopo.mol

molecular dipole:
                 x           y           z       tot (Debye)
 q only:        2.201      -1.660       0.067
   full:        2.243      -2.032      -0.007       7.694
molecular quadrupole (traceless):
                xx          xy          yy          xz          yz          zz
 q only:        9.201      -5.983       5.066       1.486       0.333     -14.266
  q+dip:        8.399     -10.100       4.732       2.124       1.315     -13.132
   full:        7.642      -9.819       3.946       1.783       1.182     -11.588

           -------------------------------------------------
          |                Geometry Summary                 |
           -------------------------------------------------

      molecular mass/u    :      195.1988581
   center of mass at/Å    :       -0.1105353       0.0272663       0.0197276
  moments of inertia/u·Å² :        0.4782347E+03   0.7448941E+03   0.1180306E+04
rotational constants/cm⁻¹ :        0.3524971E-01   0.2263091E-01   0.1428243E-01

 * 24 selected distances

     #   Z          #   Z                                           value/Å
     1   6 C        2   7 N                                       1.4381680
     2   7 N        3   6 C                                       1.3335151
     3   6 C        4   7 N                                       1.3494636
     4   7 N        5   6 C                                       1.3720071
     2   7 N        6   6 C                                       1.3682941
     5   6 C        6   6 C                                       1.3834749
     7   6 C        8   8 O                                       1.2639289
     9   7 N       10   6 C                                       1.2859001
     9   7 N       11   6 C                                       1.3926818
    11   6 C       12   8 O                                       1.2051350
     5   6 C       13   7 N                                       1.3626258
    11   6 C       13   7 N                                       1.3999032
    13   7 N       14   6 C                                       1.4495331 (max)
     1   6 C       15   1 H                                       1.0922096
     1   6 C       16   1 H                                       1.0883520
     1   6 C       17   1 H                                       1.0912157
     3   6 C       18   1 H                                       1.0713300
    10   6 C       19   1 H                                       1.0821027
    10   6 C       20   1 H                                       1.0807678
     7   6 C       21   1 H                                       0.4242871 (min)
    14   6 C       22   1 H                                       1.0899268
    14   6 C       23   1 H                                       1.0925204
    14   6 C       24   1 H                                       1.0898515
     4   7 N       25   1 H                                       1.0094346

 * 5 distinct bonds (by element types)

   Z      Z             #   av. dist./Å        max./Å        min./Å
   1 H    6 C          10     1.0202564     1.0925204     0.4242871
   6 C    6 C           1     1.3834749     1.3834749     1.3834749
   1 H    7 N           1     1.0094346     1.0094346     1.0094346
   6 C    7 N          10     1.3752092     1.4495331     1.2859001
   6 C    8 O           2     1.2345320     1.2639289     1.2051350


optimized geometry written to: xtbopt.xyz


           -------------------------------------------------
          | TOTAL ENERGY              -59.753403439636 Eh   |
          | GRADIENT NORM               0.003515370596 Eh/α |
          | HOMO-LUMO GAP               2.424616146356 eV   |
           -------------------------------------------------

------------------------------------------------------------------------
 * finished run on 2024/06/05 at 19:59:00.593     
------------------------------------------------------------------------
 total:
 * wall-time:     0 d,  0 h,  0 min,  1.303 sec
 *  cpu-time:     0 d,  0 h,  0 min,  1.280 sec
 * ratio c/w:     0.983 speedup
 SCF:
 * wall-time:     0 d,  0 h,  0 min,  0.035 sec
 *  cpu-time:     0 d,  0 h,  0 min,  0.035 sec
 * ratio c/w:     1.000 speedup
 ANC optimizer:
 * wall-time:     0 d,  0 h,  0 min,  1.237 sec
 *  cpu-time:     0 d,  0 h,  0 min,  1.233 sec
 * ratio c/w:     0.997 speedup

