72
 energy: -99.370739677480 gnorm: 0.001484961019 xtb: 6.6.1 (8d0f1dd)
N           -3.40598023702350        2.62943064580118        2.57464931452301
C           -2.55063725424872        2.52827389951931        1.61328218134693
C           -2.64609699637805        3.25538962189306        0.42386146687777
C           -4.27197456918842       -0.27215838884312        0.15204013152022
C           -4.84909774693773       -1.05237305869969       -0.83889630603057
C           -5.20864105847941       -2.36828573523869       -0.57795891651106
O           -5.77733576302959       -3.21550778937226       -1.45584652613359
C           -6.10499662231391       -2.75715809815256       -2.74656355252729
C           -4.97757597304275       -2.90969307520956        0.71906489439592
O           -5.36265535739809       -4.18961635896417        0.87999802622496
C           -5.21527072863179       -4.80185621300900        2.14007339337470
C           -4.39669788980643       -2.11074503957574        1.69515680261596
C           -4.04696846484329       -0.79986288756687        1.41029846118312
C           -1.60574375069818        3.06222923628974       -0.63832418023845
C           -1.00719070113652        1.69268240408546       -0.65603081862852
C            0.27041237013000        1.44816524660399       -0.31270468879880
N            0.87865937786965        0.23506948292760       -0.25928602044636
C            2.29619593116306        0.14492060849480       -0.03973508089736
C            3.10273609449782        0.06123939681249       -1.35507802270494
C            4.57228482675029        0.08420243862988       -1.05513344291041
C            5.28834918343982        1.27207468564102       -1.09884792292280
C            6.63777048642792        1.30237122702972       -0.78633670779329
C            7.30321426904849        0.14214178991013       -0.41217527510558
O            8.60445925388996        0.05184992198408       -0.08914872703278
C            9.40992723844281        1.20760567671181       -0.13411042097575
C            6.57606878369405       -1.08160303713691       -0.35683955531658
O            7.29515086280261       -2.15602598476792        0.01888326409732
C            6.67356655781303       -3.41741763056151        0.08306397541050
C            5.22739930066783       -1.08624227541216       -0.67919839718162
C            0.18452294397630       -0.94751812360316       -0.69972390394015
C           -3.71704602361541        4.27589175980894        0.20725460473061
C           -5.10214918979521        3.61485119746896        0.18957136581950
C           -3.67402346371316        5.35052088582893        1.30001164911371
H           -5.02573119795020       -0.62486359163450       -1.81301298196426
H           -6.82120125407276       -1.93100525832483       -2.70710944487193
H           -6.56126173954189       -3.60690668933321       -3.25074558146548
H           -5.21445364194862       -2.44321770177043       -3.29978404365727
H           -5.79889475772489       -4.28398665547448        2.90716639403412
H           -5.59613146635576       -5.81407357328394        2.01879166416477
H           -4.16544013030189       -4.84337005449270        2.44597674751587
H           -4.22316030181794       -2.50163366437717        2.68458579137412
H           -3.60911206009494       -0.18724344200899        2.18187979427191
H           -2.05896486674732        3.27347259913605       -1.61228973570303
H           -0.81622624216084        3.80958052164463       -0.48785909035599
H           -4.01114215747683        0.75414338203906       -0.05424799178086
H           -1.66982724094394        0.89382295721367       -0.94951447351650
H           -1.68648556817789        1.85237317884644        1.68041307597216
H            0.90470678152687        2.27373717324404       -0.01585079810482
H            2.50717161619549       -0.74096639155627        0.56694079368490
H            2.62656423227600        1.02321422650995        0.51930610724519
H            2.83494159739952        0.91168945412883       -1.98398021796973
H            2.83785365714090       -0.85632765529555       -1.88244472668031
H            4.79556687920768        2.18720444161566       -1.38987878745006
H            7.16747983439205        2.23954189656644       -0.83783819152531
H            9.06549741651222        1.96283227332459        0.57868617818077
H            9.43617768077626        1.63809406706936       -1.13937727295320
H           10.40910745434399        0.87797617300014        0.14393337893508
H            7.44996337521623       -4.10994640867994        0.40286513781554
H            5.85834916118782       -3.42659863357345        0.81361941204648
H            6.29303244962579       -3.72661061262818       -0.89530601004571
H            4.67122762126425       -2.01012270506186       -0.65068840060880
H           -0.01977191364226       -0.91655144771573       -1.77455452149617
H           -0.76632291545381       -1.04435012906213       -0.17205037880078
H            0.79020771373804       -1.82432749530117       -0.48370251647184
H           -3.55022942290265        4.76098398683657       -0.76159866561112
H           -5.27383720177659        3.10714188442075        1.13429997778359
H           -5.17790181540278        2.89550231180603       -0.62318855228502
H           -5.86809512277096        4.37295381089367        0.05060181829370
H           -3.86084483801675        4.89305537437332        2.26752802355502
H           -2.70246401547585        5.83933830417638        1.32036948399149
H           -4.43645819643924        6.10071648991197        1.10854845756820
H           -3.22800949664168        2.09602069645715        3.41550392457651
