      -----------------------------------------------------------      
     |                   =====================                   |     
     |                           x T B                           |     
     |                   =====================                   |     
     |                         S. Grimme                         |     
     |          Mulliken Center for Theoretical Chemistry        |     
     |                    University of Bonn                     |     
      -----------------------------------------------------------      

   * xtb version 6.6.1 (8d0f1dd) compiled by 'conda@1efc2f54142f' on 2023-08-01

   xtb is free software: you can redistribute it and/or modify it under
   the terms of the GNU Lesser General Public License as published by
   the Free Software Foundation, either version 3 of the License, or
   (at your option) any later version.
   
   xtb is distributed in the hope that it will be useful,
   but WITHOUT ANY WARRANTY; without even the implied warranty of
   MERCHANTABILITY or FITNESS FOR A PARTICULAR PURPOSE.  See the
   GNU Lesser General Public License for more details.
   
   Cite this work as:
   * C. Bannwarth, E. Caldeweyher, S. Ehlert, A. Hansen, P. Pracht,
     J. Seibert, S. Spicher, S. Grimme, WIREs Comput. Mol. Sci., 2020, 11,
     e01493. DOI: 10.1002/wcms.1493
   
   for GFN2-xTB:
   * C. Bannwarth, S. Ehlert and S. Grimme., J. Chem. Theory Comput., 2019,
     15, 1652-1671. DOI: 10.1021/acs.jctc.8b01176
   for GFN1-xTB:
   * S. Grimme, C. Bannwarth, P. Shushkov, J. Chem. Theory Comput., 2017,
     13, 1989-2009. DOI: 10.1021/acs.jctc.7b00118
   for GFN0-xTB:
   * P. Pracht, E. Caldeweyher, S. Ehlert, S. Grimme, ChemRxiv, 2019, preprint.
     DOI: 10.26434/chemrxiv.8326202.v1
   for GFN-FF:
   * S. Spicher and S. Grimme, Angew. Chem. Int. Ed., 2020, 59, 15665-15673.
     DOI: 10.1002/anie.202004239
   
   for ALPB and GBSA implicit solvation:
   * S. Ehlert, M. Stahn, S. Spicher, S. Grimme, J. Chem. Theory Comput.,
     2021, 17, 4250-4261. DOI: 10.1021/acs.jctc.1c00471
   
   for DFT-D4:
   * E. Caldeweyher, C. Bannwarth and S. Grimme, J. Chem. Phys., 2017,
     147, 034112. DOI: 10.1063/1.4993215
   * E. Caldeweyher, S. Ehlert, A. Hansen, H. Neugebauer, S. Spicher,
     C. Bannwarth and S. Grimme, J. Chem. Phys., 2019, 150, 154122.
     DOI: 10.1063/1.5090222
   * E. Caldeweyher, J.-M. Mewes, S. Ehlert and S. Grimme, Phys. Chem. Chem. Phys.
     2020, 22, 8499-8512. DOI: 10.1039/D0CP00502A
   
   for sTDA-xTB:
   * S. Grimme and C. Bannwarth, J. Chem. Phys., 2016, 145, 054103.
     DOI: 10.1063/1.4959605
   
   in the mass-spec context:
   * V. Asgeirsson, C. Bauer and S. Grimme, Chem. Sci., 2017, 8, 4879.
     DOI: 10.1039/c7sc00601b
   * J. Koopman and S. Grimme, ACS Omega 2019, 4, 12, 15120-15133.
     DOI: 10.1021/acsomega.9b02011
   
   for metadynamics refer to:
   * S. Grimme, J. Chem. Theory Comput., 2019, 155, 2847-2862
     DOI: 10.1021/acs.jctc.9b00143
   
   for SPH calculations refer to:
   * S. Spicher and S. Grimme, J. Chem. Theory Comput., 2021, 17, 1701-1714
     DOI: 10.1021/acs.jctc.0c01306
   
   with help from (in alphabetical order)
   P. Atkinson, C. Bannwarth, F. Bohle, G. Brandenburg, E. Caldeweyher
   M. Checinski, S. Dohm, S. Ehlert, S. Ehrlich, I. Gerasimov, C. Hölzer
   A. Katbashev, J. Koopman, C. Lavigne, S. Lehtola, F. März, M. Müller,
   F. Musil, H. Neugebauer, J. Pisarek, C. Plett, P. Pracht, F. Pultar,
   J. Seibert, P. Shushkov, S. Spicher, M. Stahn, M. Steiner, T. Strunk,
   J. Stückrath, T. Rose, and J. Unsleber
   
 * started run on 2024/04/06 at 11:14:27.203     

           -------------------------------------------------
          |                Calculation Setup                |
           -------------------------------------------------

          program call               : xtb struc.xyz --opt loose --input .xc1 --gfn2
          hostname                   : n-62-30-23
          coordinate file            : struc.xyz
          omp threads                :                     1

   ID    Z sym.   atoms
    1    7 N      1, 17
    2    6 C      2-6, 8, 9, 11-16, 18-23, 25, 26, 28-33
    3    8 O      7, 10, 24, 27
    4    1 H      34-72
constraining bond 26 29 to    4.0000000 Å, actual value:    1.3826131 Å

           -------------------------------------------------
          |                 G F N 2 - x T B                 |
           -------------------------------------------------

        Reference                      10.1021/acs.jctc.8b01176
      * Hamiltonian:
        H0-scaling (s, p, d)           1.850000    2.230000    2.230000
        zeta-weighting                 0.500000
      * Dispersion:
        s8                             2.700000
        a1                             0.520000
        a2                             5.000000
        s9                             5.000000
      * Repulsion:
        kExp                           1.500000    1.000000
        rExp                           1.000000
      * Coulomb:
        alpha                          2.000000
        third order                    shell-resolved
        anisotropic                    true
        a3                             3.000000
        a5                             4.000000
        cn-shift                       1.200000
        cn-exp                         4.000000
        max-rad                        5.000000


          ...................................................
          :                      SETUP                      :
          :.................................................:
          :  # basis functions                 171          :
          :  # atomic orbitals                 171          :
          :  # shells                          105          :
          :  # electrons                       180          :
          :  max. iterations                   250          :
          :  Hamiltonian                  GFN2-xTB          :
          :  restarted?                      false          :
          :  GBSA solvation                  false          :
          :  PC potential                    false          :
          :  electronic temp.         5000.0000000     K    :
          :  accuracy                    1.0000000          :
          :  -> integral cutoff          0.2500000E+02      :
          :  -> integral neglect         0.1000000E-07      :
          :  -> SCF convergence          0.1000000E-05 Eh   :
          :  -> wf. convergence          0.1000000E-03 e    :
          :  Broyden damping             0.4000000          :
          ...................................................

 iter      E             dE          RMSdq      gap      omega  full diag
   1   -100.5973919 -0.100597E+03  0.374E+00    3.20       0.0  T
   2   -100.7362642 -0.138872E+00  0.221E+00    1.08       1.0  T
   3   -100.7049001  0.313641E-01  0.141E+00    3.29       1.0  T
   4   -100.7721690 -0.672689E-01  0.526E-01    1.50       1.0  T
   5   -100.7894292 -0.172602E-01  0.190E-01    1.98       1.0  T
   6   -100.7911978 -0.176856E-02  0.792E-02    1.77       1.0  T
   7   -100.7914750 -0.277198E-03  0.375E-02    1.83       1.0  T
   8   -100.7914914 -0.164582E-04  0.140E-02    1.83       1.0  T
   9   -100.7914976 -0.616739E-05  0.474E-03    1.82       2.5  T
  10   -100.7914988 -0.118227E-05  0.172E-03    1.82       6.8  T
  11   -100.7914989 -0.139928E-06  0.766E-04    1.82      15.4  T
  12   -100.7914989 -0.773143E-08  0.318E-04    1.82      37.0  T

   *** convergence criteria satisfied after 12 iterations ***

         #    Occupation            Energy/Eh            Energy/eV
      -------------------------------------------------------------
         1        2.0000           -0.8078051             -21.9815
       ...           ...                  ...                  ...
        84        1.9966           -0.5157491             -14.0342
        85        1.9959           -0.5128261             -13.9547
        86        1.9840           -0.4911498             -13.3649
        87        1.9795           -0.4872543             -13.2589
        88        1.9640           -0.4782114             -13.0128
        89        1.8920           -0.4602041             -12.5228
        90        1.8557           -0.4553147             -12.3897 (HOMO)
        91        0.3166           -0.3884132             -10.5693 (LUMO)
        92        0.0218           -0.3434697              -9.3463
        93        0.0041           -0.3169887              -8.6257
        94        0.0034           -0.3139726              -8.5436
        95        0.0029           -0.3112618              -8.4699
       ...           ...                  ...                  ...
       171                          0.5822580              15.8440
      -------------------------------------------------------------
                  HL-Gap            0.0669015 Eh            1.8205 eV
             Fermi-level           -0.4148687 Eh          -11.2892 eV

 SCC (total)                   0 d,  0 h,  0 min,  0.190 sec
 SCC setup                      ...        0 min,  0.001 sec (  0.652%)
 Dispersion                     ...        0 min,  0.002 sec (  1.040%)
 classical contributions        ...        0 min,  0.001 sec (  0.278%)
 integral evaluation            ...        0 min,  0.018 sec (  9.607%)
 iterations                     ...        0 min,  0.098 sec ( 51.449%)
 molecular gradient             ...        0 min,  0.069 sec ( 36.631%)
 printout                       ...        0 min,  0.001 sec (  0.333%)

         :::::::::::::::::::::::::::::::::::::::::::::::::::::
         ::                     SUMMARY                     ::
         :::::::::::::::::::::::::::::::::::::::::::::::::::::
         :: total energy             -98.180913925979 Eh    ::
         :: gradient norm              0.704523536846 Eh/a0 ::
         :: HOMO-LUMO gap              1.820481192090 eV    ::
         ::.................................................::
         :: SCC energy              -100.791498925389 Eh    ::
         :: -> isotropic ES            0.109302908418 Eh    ::
         :: -> anisotropic ES          0.005415138735 Eh    ::
         :: -> anisotropic XC          0.042392697176 Eh    ::
         :: -> dispersion             -0.075527661009 Eh    ::
         :: repulsion energy           1.386151658689 Eh    ::
         :: add. restraining           1.223216988216 Eh    ::
         :: total charge               1.000000000108 e     ::
         :::::::::::::::::::::::::::::::::::::::::::::::::::::

      ----------------------------------------------------------- 
     |                   =====================                   |
     |                        A N C O P T                        |
     |                   =====================                   |
     |               Approximate Normal Coordinate               |
     |                Rational Function Optimizer                |
      ----------------------------------------------------------- 

          ...................................................
          :                      SETUP                      :
          :.................................................:
          :   optimization level             loose          :
          :   max. optcycles                   200          :
          :   ANC micro-cycles                  20          :
          :   degrees of freedom               210          :
          :.................................................:
          :   RF solver                   davidson          :
          :   write xtbopt.log                true          :
          :   linear?                        false          :
          :   energy convergence         0.5000000E-04 Eh   :
          :   grad. convergence          0.4000000E-02 Eh/α :
          :   maxmium RF displ.          1.0000000          :
          :   Hlow (freq-cutoff)         0.1000000E-01      :
          :   Hmax (freq-cutoff)         5.0000000          :
          :   S6 in model hess.         20.0000000          :
          ...................................................

generating ANC from model Hessian ...
Using Lindh-Hessian (1995)
 Shifting diagonal of input Hessian by   0.21243414288850035     
 Lowest  eigenvalues of input Hessian
    0.010000    0.207113    0.000000    0.000000    0.000000    0.000000
    0.000000    0.000000    0.212569    0.212607    0.212622    0.212796
    0.212976    0.213281    0.213431    0.213679    0.214155    0.214208
 Highest eigenvalues
    2.205012    2.238410    2.248392    2.381877    2.389489    2.465600


........................................................................
.............................. CYCLE    1 ..............................
........................................................................

 iter      E             dE          RMSdq      gap      omega  full diag
   1   -100.7914989 -0.100791E+03  0.114E-04    1.82       0.0  T
   2   -100.7914989 -0.678995E-10  0.713E-05    1.82     165.2  T
   3   -100.7914989  0.665210E-10  0.496E-05    1.82     237.5  T
     SCC iter.                  ...        0 min,  0.026 sec
     gradient                   ...        0 min,  0.070 sec
 * total energy  :   -98.1809139 Eh     change       -0.4035485E-08 Eh
   gradient norm :     0.7045242 Eh/α   predicted     0.0000000E+00 (-100.00%)
   displ. norm   :     0.3508622 α      lambda       -0.2246842E+00
   maximum displ.:     0.2008513 α      in ANC's #210, #205, #196, ...

........................................................................
.............................. CYCLE    2 ..............................
........................................................................

 iter      E             dE          RMSdq      gap      omega  full diag
   1   -100.7527072 -0.100753E+03  0.269E-01    1.55       0.0  T
   2   -100.7531262 -0.419007E-03  0.178E-01    1.81       1.0  T
   3   -100.7528332  0.292967E-03  0.139E-01    1.55       1.0  T
   4   -100.7538346 -0.100140E-02  0.576E-02    1.75       1.0  T
   5   -100.7540915 -0.256925E-03  0.190E-02    1.67       1.0  T
   6   -100.7541119 -0.204174E-04  0.306E-03    1.69       3.8  T
   7   -100.7541123 -0.331058E-06  0.235E-03    1.68       5.0  T
   8   -100.7541125 -0.189991E-06  0.993E-04    1.68      11.9  T
   9   -100.7541125 -0.197010E-07  0.422E-04    1.68      27.9  T
     SCC iter.                  ...        0 min,  0.074 sec
     gradient                   ...        0 min,  0.069 sec
 * total energy  :   -98.3634898 Eh     change       -0.1825759E+00 Eh
   gradient norm :     0.4725031 Eh/α   predicted    -0.1261728E+00 ( -30.89%)
   displ. norm   :     0.5274548 α      lambda       -0.2311406E+00
   maximum displ.:     0.3133478 α      in ANC's #210, #205, #152, ...

........................................................................
.............................. CYCLE    3 ..............................
........................................................................

 iter      E             dE          RMSdq      gap      omega  full diag
   1   -100.6870722 -0.100687E+03  0.425E-01    1.32       0.0  T
   2   -100.6859720  0.110019E-02  0.288E-01    1.74       1.0  T
   3   -100.6807262  0.524584E-02  0.292E-01    1.18       1.0  T
   4   -100.6892533 -0.852711E-02  0.833E-02    1.57       1.0  T
   5   -100.6897463 -0.492987E-03  0.212E-02    1.50       1.0  T
   6   -100.6897792 -0.329514E-04  0.143E-02    1.49       1.0  T
   7   -100.6897934 -0.142014E-04  0.304E-03    1.50       3.9  T
   8   -100.6897933  0.540973E-07  0.194E-03    1.50       6.1  T
   9   -100.6897935 -0.134551E-06  0.679E-04    1.50      17.4  T
  10   -100.6897935 -0.150133E-07  0.299E-04    1.50      39.4  T
     SCC iter.                  ...        0 min,  0.081 sec
     gradient                   ...        0 min,  0.075 sec
 * total energy  :   -98.5546930 Eh     change       -0.1912032E+00 Eh
   gradient norm :     0.3147971 Eh/α   predicted    -0.1477245E+00 ( -22.74%)
   displ. norm   :     0.6900507 α      lambda       -0.2053683E+00
   maximum displ.:     0.3898029 α      in ANC's #210, #205, #123, ...

........................................................................
.............................. CYCLE    4 ..............................
........................................................................

 iter      E             dE          RMSdq      gap      omega  full diag
   1   -100.5910180 -0.100591E+03  0.702E-01    1.14       0.0  T
   2   -100.5653095  0.257085E-01  0.543E-01    2.02       1.0  T
   3   -100.5323677  0.329418E-01  0.741E-01    0.76       1.0  T
   4   -100.5927430 -0.603753E-01  0.252E-01    1.47       1.0  T
   5   -100.5973372 -0.459419E-02  0.147E-01    1.52       1.0  T
   6   -100.5992104 -0.187322E-02  0.251E-02    1.45       1.0  T
   7   -100.5992432 -0.327492E-04  0.154E-02    1.44       1.0  T
   8   -100.5992506 -0.741398E-05  0.678E-03    1.44       1.7  T
   9   -100.5992517 -0.114875E-05  0.220E-03    1.44       5.4  T
  10   -100.5992520 -0.280653E-06  0.797E-04    1.44      14.8  T
  11   -100.5992520 -0.140010E-07  0.340E-04    1.44      34.6  T
     SCC iter.                  ...        0 min,  0.089 sec
     gradient                   ...        0 min,  0.069 sec
 * total energy  :   -98.7323919 Eh     change       -0.1776989E+00 Eh
   gradient norm :     0.2392012 Eh/α   predicted    -0.1515807E+00 ( -14.70%)
   displ. norm   :     0.8167631 α      lambda       -0.1872148E+00
   maximum displ.:     0.4587996 α      in ANC's #210, #205, #123, ...

........................................................................
.............................. CYCLE    5 ..............................
........................................................................

 iter      E             dE          RMSdq      gap      omega  full diag
   1   -100.4771546 -0.100477E+03  0.884E-01    0.30       0.0  T
   2   -100.3186350  0.158520E+00  0.110E+00    0.76       1.0  T
   3   -100.4041518 -0.855168E-01  0.950E-01    0.15       1.0  T
   4   -100.4496471 -0.454953E-01  0.680E-01    0.79       1.0  T
   5   -100.4975094 -0.478622E-01  0.196E-01    0.69       1.0  T
   6   -100.5010172 -0.350784E-02  0.821E-02    0.66       1.0  T
   7   -100.5016406 -0.623377E-03  0.442E-02    0.65       1.0  T
   8   -100.5018013 -0.160684E-03  0.146E-02    0.62       1.0  T
   9   -100.5017927  0.855150E-05  0.119E-02    0.63       1.0  T
  10   -100.5018078 -0.150680E-04  0.198E-03    0.62       5.9  T
  11   -100.5018079 -0.156151E-06  0.865E-04    0.62      13.6  T
  12   -100.5018079 -0.163759E-07  0.351E-04    0.62      33.6  T
     SCC iter.                  ...        0 min,  0.097 sec
     gradient                   ...        0 min,  0.069 sec
 * total energy  :   -98.8963817 Eh     change       -0.1639898E+00 Eh
   gradient norm :     0.1842268 Eh/α   predicted    -0.1560531E+00 (  -4.84%)
   displ. norm   :     0.7932727 α      lambda       -0.1345740E+00
   maximum displ.:     0.4636112 α      in ANC's #210, #205, #123, ...

........................................................................
.............................. CYCLE    6 ..............................
........................................................................

 iter      E             dE          RMSdq      gap      omega  full diag
   1   -100.4088845 -0.100409E+03  0.368E-01    0.20       0.0  T
   2   -100.3874338  0.214507E-01  0.483E-01    0.40       1.0  T
   3   -100.3949505 -0.751676E-02  0.401E-01    0.15       1.0  T
   4   -100.4036478 -0.869728E-02  0.276E-01    0.36       1.0  T
   5   -100.4067983 -0.315051E-02  0.217E-01    0.21       1.0  T
   6   -100.4124708 -0.567251E-02  0.458E-02    0.26       1.0  T
   7   -100.4127112 -0.240350E-03  0.780E-03    0.24       1.5  T
   8   -100.4127116 -0.398307E-06  0.523E-03    0.24       2.3  T
   9   -100.4127132 -0.166461E-05  0.224E-03    0.24       5.3  T
  10   -100.4127136 -0.399043E-06  0.534E-04    0.24      22.1  T
  11   -100.4127136 -0.130126E-08  0.278E-04    0.24      42.4  T
     SCC iter.                  ...        0 min,  0.089 sec
     gradient                   ...        0 min,  0.069 sec
 * total energy  :   -98.9896149 Eh     change       -0.9323324E-01 Eh
   gradient norm :     0.1033494 Eh/α   predicted    -0.1096295E+00 (  17.59%)
   displ. norm   :     0.4757326 α      lambda       -0.3851473E-01
   maximum displ.:     0.2036363 α      in ANC's #210, #55, #46, ...

........................................................................
.............................. CYCLE    7 ..............................
........................................................................

 iter      E             dE          RMSdq      gap      omega  full diag
   1   -100.3908031 -0.100391E+03  0.242E-01    0.24       0.0  T
   2   -100.3738320  0.169711E-01  0.357E-01    0.06       1.0  T
   3   -100.3863186 -0.124866E-01  0.245E-01    0.30       1.0  T
   4   -100.3840714  0.224726E-02  0.268E-01    0.13       1.0  T
   5   -100.3904593 -0.638792E-02  0.118E-01    0.30       1.0  T
   6   -100.3924781 -0.201882E-02  0.244E-02    0.23       1.0  T
   7   -100.3925508 -0.727301E-04  0.388E-03    0.22       3.0  T
   8   -100.3925511 -0.302965E-06  0.278E-03    0.22       4.2  T
   9   -100.3925513 -0.181844E-06  0.151E-03    0.22       7.8  T
  10   -100.3925516 -0.246363E-06  0.365E-04    0.22      32.3  T
  11   -100.3925516 -0.970768E-08  0.154E-04    0.22      76.4  T
     SCC iter.                  ...        0 min,  0.089 sec
     gradient                   ...        0 min,  0.069 sec
 * total energy  :   -99.0186254 Eh     change       -0.2901052E-01 Eh
   gradient norm :     0.0809300 Eh/α   predicted    -0.2361584E-01 ( -18.60%)
   displ. norm   :     0.5464448 α      lambda       -0.3346696E-01
   maximum displ.:     0.1587004 α      in ANC's #55, #46, #1, ...

........................................................................
.............................. CYCLE    8 ..............................
........................................................................

 iter      E             dE          RMSdq      gap      omega  full diag
   1   -100.4069147 -0.100407E+03  0.258E-01    0.21       0.0  T
   2   -100.3673240  0.395907E-01  0.541E-01    0.05       1.0  T
   3   -100.4076892 -0.403652E-01  0.190E-01    0.27       1.0  T
   4   -100.4007785  0.691066E-02  0.293E-01    0.13       1.0  T
   5   -100.4098222 -0.904370E-02  0.870E-02    0.26       1.0  T
   6   -100.4108505 -0.102827E-02  0.135E-02    0.21       1.0  T
   7   -100.4108589 -0.836312E-05  0.908E-03    0.21       1.3  T
   8   -100.4108647 -0.584287E-05  0.390E-03    0.21       3.0  T
   9   -100.4108651 -0.448101E-06  0.242E-03    0.21       4.9  T
  10   -100.4108658 -0.636472E-06  0.581E-04    0.21      20.3  T
  11   -100.4108658 -0.277607E-07  0.237E-04    0.21      49.7  T
     SCC iter.                  ...        0 min,  0.089 sec
     gradient                   ...        0 min,  0.069 sec
 * total energy  :   -99.0458734 Eh     change       -0.2724801E-01 Eh
   gradient norm :     0.0724718 Eh/α   predicted    -0.2173014E-01 ( -20.25%)
   displ. norm   :     0.6473323 α      lambda       -0.3208750E-01
   maximum displ.:     0.2075060 α      in ANC's #37, #55, #46, ...

........................................................................
.............................. CYCLE    9 ..............................
........................................................................

 iter      E             dE          RMSdq      gap      omega  full diag
   1   -100.4390622 -0.100439E+03  0.288E-01    0.15       0.0  T
   2   -100.3847878  0.542744E-01  0.673E-01    0.09       1.0  T
   3   -100.4443095 -0.595217E-01  0.144E-01    0.17       1.0  T
   4   -100.4445214 -0.211859E-03  0.857E-02    0.16       1.0  T
   5   -100.4441809  0.340486E-03  0.824E-02    0.21       1.0  T
   6   -100.4441785  0.236080E-05  0.846E-02    0.15       1.0  T
   7   -100.4450849 -0.906420E-03  0.916E-03    0.18       1.3  T
   8   -100.4450905 -0.557183E-05  0.379E-03    0.17       3.1  T
   9   -100.4450913 -0.829935E-06  0.185E-03    0.17       6.4  T
  10   -100.4450917 -0.362278E-06  0.475E-04    0.17      24.8  T
  11   -100.4450917 -0.949730E-08  0.237E-04    0.17      49.7  T
     SCC iter.                  ...        0 min,  0.089 sec
     gradient                   ...        0 min,  0.069 sec
 * total energy  :   -99.0719310 Eh     change       -0.2605756E-01 Eh
   gradient norm :     0.0850521 Eh/α   predicted    -0.2276677E-01 ( -12.63%)
   displ. norm   :     0.6543828 α      lambda       -0.2709384E-01
   maximum displ.:     0.2374348 α      in ANC's #37, #39, #45, ...

........................................................................
.............................. CYCLE   10 ..............................
........................................................................

 iter      E             dE          RMSdq      gap      omega  full diag
   1   -100.4639823 -0.100464E+03  0.295E-01    0.18       0.0  T
   2   -100.4006584  0.633239E-01  0.757E-01    0.25       1.0  T
   3   -100.4693157 -0.686573E-01  0.151E-01    0.17       1.0  T
   4   -100.4591461  0.101696E-01  0.303E-01    0.28       1.0  T
   5   -100.4682538 -0.910768E-02  0.122E-01    0.17       1.0  T
   6   -100.4701059 -0.185211E-02  0.309E-02    0.17       1.0  T
   7   -100.4701983 -0.924166E-04  0.100E-02    0.17       1.2  T
   8   -100.4702073 -0.896834E-05  0.310E-03    0.17       3.8  T
   9   -100.4702078 -0.452249E-06  0.141E-03    0.17       8.3  T
  10   -100.4702079 -0.194107E-06  0.458E-04    0.17      25.7  T
  11   -100.4702080 -0.453626E-08  0.251E-04    0.17      47.0  T
     SCC iter.                  ...        0 min,  0.089 sec
     gradient                   ...        0 min,  0.069 sec
 * total energy  :   -99.0940473 Eh     change       -0.2211632E-01 Eh
   gradient norm :     0.0857798 Eh/α   predicted    -0.1934829E-01 ( -12.52%)
   displ. norm   :     0.5987736 α      lambda       -0.2224975E-01
   maximum displ.:     0.2408513 α      in ANC's #37, #39, #45, ...

........................................................................
.............................. CYCLE   11 ..............................
........................................................................

 iter      E             dE          RMSdq      gap      omega  full diag
   1   -100.4880770 -0.100488E+03  0.258E-01    0.20       0.0  T
   2   -100.4620651  0.260120E-01  0.502E-01    0.21       1.0  T
   3   -100.4896962 -0.276311E-01  0.154E-01    0.21       1.0  T
   4   -100.4820034  0.769283E-02  0.283E-01    0.25       1.0  T
   5   -100.4878754 -0.587207E-02  0.147E-01    0.23       1.0  T
   6   -100.4908036 -0.292816E-02  0.168E-02    0.19       1.0  T
   7   -100.4908227 -0.191052E-04  0.798E-03    0.19       1.5  T
   8   -100.4908280 -0.531304E-05  0.233E-03    0.19       5.1  T
   9   -100.4908282 -0.202531E-06  0.934E-04    0.19      12.6  T
  10   -100.4908283 -0.413293E-07  0.419E-04    0.19      28.1  T
     SCC iter.                  ...        0 min,  0.081 sec
     gradient                   ...        0 min,  0.069 sec
 * total energy  :   -99.1112494 Eh     change       -0.1720209E-01 Eh
   gradient norm :     0.0627528 Eh/α   predicted    -0.1511356E-01 ( -12.14%)
   displ. norm   :     0.5185384 α      lambda       -0.1412043E-01
   maximum displ.:     0.2201100 α      in ANC's #37, #39, #27, ...

........................................................................
.............................. CYCLE   12 ..............................
........................................................................

 iter      E             dE          RMSdq      gap      omega  full diag
   1   -100.4964433 -0.100496E+03  0.232E-01    0.21       0.0  T
   2   -100.4820361  0.144072E-01  0.373E-01    0.29       1.0  T
   3   -100.4939617 -0.119256E-01  0.198E-01    0.21       1.0  T
   4   -100.4876528  0.630884E-02  0.307E-01    0.33       1.0  T
   5   -100.4966874 -0.903459E-02  0.989E-02    0.21       1.0  T
   6   -100.4978976 -0.121018E-02  0.113E-02    0.22       1.0  T
   7   -100.4979059 -0.835898E-05  0.508E-03    0.21       2.3  T
   8   -100.4979079 -0.200314E-05  0.219E-03    0.21       5.4  T
   9   -100.4979082 -0.220834E-06  0.994E-04    0.21      11.9  T
  10   -100.4979082 -0.557206E-07  0.289E-04    0.21      40.8  T
     SCC iter.                  ...        0 min,  0.081 sec
     gradient                   ...        0 min,  0.069 sec
 * total energy  :   -99.1216431 Eh     change       -0.1039364E-01 Eh
   gradient norm :     0.0430963 Eh/α   predicted    -0.8958640E-02 ( -13.81%)
   displ. norm   :     0.4226526 α      lambda       -0.7996682E-02
   maximum displ.:     0.1817886 α      in ANC's #37, #39, #27, ...

........................................................................
.............................. CYCLE   13 ..............................
........................................................................

 iter      E             dE          RMSdq      gap      omega  full diag
   1   -100.4968252 -0.100497E+03  0.189E-01    0.22       0.0  T
   2   -100.4898253  0.699988E-02  0.274E-01    0.30       1.0  T
   3   -100.4932899 -0.346456E-02  0.197E-01    0.21       1.0  T
   4   -100.4921902  0.109963E-02  0.229E-01    0.30       1.0  T
   5   -100.4964407 -0.425045E-02  0.897E-02    0.23       1.0  T
   6   -100.4975666 -0.112596E-02  0.126E-02    0.23       1.0  T
   7   -100.4975799 -0.132939E-04  0.381E-03    0.22       3.1  T
   8   -100.4975812 -0.131826E-05  0.163E-03    0.22       7.2  T
   9   -100.4975813 -0.811154E-07  0.898E-04    0.22      13.1  T
  10   -100.4975814 -0.488297E-07  0.238E-04    0.22      49.5  T
     SCC iter.                  ...        0 min,  0.081 sec
     gradient                   ...        0 min,  0.069 sec
 * total energy  :   -99.1275081 Eh     change       -0.5865029E-02 Eh
   gradient norm :     0.0348173 Eh/α   predicted    -0.4712945E-02 ( -19.64%)
   displ. norm   :     0.3470848 α      lambda       -0.5611526E-02
   maximum displ.:     0.1444465 α      in ANC's #37, #39, #27, ...

........................................................................
.............................. CYCLE   14 ..............................
........................................................................

 iter      E             dE          RMSdq      gap      omega  full diag
   1   -100.4916628 -0.100492E+03  0.128E-01    0.23       0.0  T
   2   -100.4905988  0.106406E-02  0.125E-01    0.22       1.0  T
   3   -100.4901069  0.491876E-03  0.134E-01    0.24       1.0  T
   4   -100.4917201 -0.161321E-02  0.596E-02    0.22       1.0  T
   5   -100.4911712  0.548895E-03  0.853E-02    0.26       1.0  T
   6   -100.4919891 -0.817879E-03  0.181E-02    0.22       1.0  T
   7   -100.4920270 -0.379173E-04  0.335E-03    0.23       3.5  T
   8   -100.4920279 -0.853175E-06  0.140E-03    0.23       8.4  T
   9   -100.4920279 -0.211545E-07  0.993E-04    0.23      11.9  T
  10   -100.4920280 -0.775813E-07  0.266E-04    0.23      44.3  T
     SCC iter.                  ...        0 min,  0.081 sec
     gradient                   ...        0 min,  0.069 sec
 * total energy  :   -99.1316043 Eh     change       -0.4096187E-02 Eh
   gradient norm :     0.0312078 Eh/α   predicted    -0.3143776E-02 ( -23.25%)
   displ. norm   :     0.3379612 α      lambda       -0.4835492E-02
   maximum displ.:     0.1204319 α      in ANC's #37, #39, #22, ...

........................................................................
.............................. CYCLE   15 ..............................
........................................................................

 iter      E             dE          RMSdq      gap      omega  full diag
   1   -100.4954274 -0.100495E+03  0.149E-01    0.23       0.0  T
   2   -100.4938684  0.155901E-02  0.141E-01    0.20       1.0  T
   3   -100.4879272  0.594117E-02  0.282E-01    0.36       1.0  T
   4   -100.4953287 -0.740148E-02  0.767E-02    0.23       1.0  T
   5   -100.4946637  0.665022E-03  0.872E-02    0.24       1.0  T
   6   -100.4957248 -0.106109E-02  0.163E-02    0.23       1.0  T
   7   -100.4957536 -0.288748E-04  0.336E-03    0.22       3.5  T
   8   -100.4957544 -0.757152E-06  0.141E-03    0.23       8.3  T
   9   -100.4957544  0.603620E-08  0.823E-04    0.22      14.3  T
  10   -100.4957544 -0.557849E-07  0.301E-04    0.23      39.1  T
     SCC iter.                  ...        0 min,  0.081 sec
     gradient                   ...        0 min,  0.069 sec
 * total energy  :   -99.1350252 Eh     change       -0.3420927E-02 Eh
   gradient norm :     0.0310613 Eh/α   predicted    -0.2693950E-02 ( -21.25%)
   displ. norm   :     0.3792230 α      lambda       -0.4618834E-02
   maximum displ.:     0.1659736 α      in ANC's #1, #46, #22, ...

........................................................................
.............................. CYCLE   16 ..............................
........................................................................

 iter      E             dE          RMSdq      gap      omega  full diag
   1   -100.4963773 -0.100496E+03  0.152E-01    0.28       0.0  T
   2   -100.4663334  0.300439E-01  0.530E-01    0.31       1.0  T
   3   -100.4977131 -0.313797E-01  0.670E-02    0.23       1.0  T
   4   -100.4974552  0.257941E-03  0.488E-02    0.24       1.0  T
   5   -100.4970858  0.369410E-03  0.728E-02    0.23       1.0  T
   6   -100.4977407 -0.654962E-03  0.676E-03    0.23       1.7  T
   7   -100.4977451 -0.441628E-05  0.207E-03    0.23       5.7  T
   8   -100.4977453 -0.169384E-06  0.110E-03    0.23      10.7  T
   9   -100.4977453 -0.320467E-07  0.454E-04    0.23      26.0  T
  10   -100.4977453  0.363488E-08  0.358E-04    0.23      32.9  T
     SCC iter.                  ...        0 min,  0.081 sec
     gradient                   ...        0 min,  0.069 sec
 * total energy  :   -99.1381260 Eh     change       -0.3100811E-02 Eh
   gradient norm :     0.0371860 Eh/α   predicted    -0.2641606E-02 ( -14.81%)
   displ. norm   :     0.3568859 α      lambda       -0.4162024E-02
   maximum displ.:     0.1577163 α      in ANC's #46, #22, #55, ...

........................................................................
.............................. CYCLE   17 ..............................
........................................................................

 iter      E             dE          RMSdq      gap      omega  full diag
   1   -100.5076538 -0.100508E+03  0.149E-01    0.27       0.0  T
   2   -100.4962112  0.114426E-01  0.328E-01    0.19       1.0  T
   3   -100.5066366 -0.104254E-01  0.139E-01    0.29       1.0  T
   4   -100.5079948 -0.135820E-02  0.417E-02    0.24       1.0  T
   5   -100.5079989 -0.413657E-05  0.343E-02    0.24       1.0  T
   6   -100.5081544 -0.155484E-03  0.666E-03    0.23       1.8  T
   7   -100.5081587 -0.429448E-05  0.290E-03    0.23       4.1  T
   8   -100.5081592 -0.483374E-06  0.120E-03    0.23       9.8  T
   9   -100.5081593 -0.568248E-07  0.360E-04    0.23      32.7  T
  10   -100.5081593 -0.277680E-08  0.247E-04    0.23      47.7  T
     SCC iter.                  ...        0 min,  0.081 sec
     gradient                   ...        0 min,  0.069 sec
 * total energy  :   -99.1412167 Eh     change       -0.3090648E-02 Eh
   gradient norm :     0.0348574 Eh/α   predicted    -0.2346093E-02 ( -24.09%)
   displ. norm   :     0.3971538 α      lambda       -0.4349268E-02
   maximum displ.:     0.1786996 α      in ANC's #46, #22, #55, ...

........................................................................
.............................. CYCLE   18 ..............................
........................................................................

 iter      E             dE          RMSdq      gap      omega  full diag
   1   -100.5172609 -0.100517E+03  0.148E-01    0.30       0.0  T
   2   -100.4994020  0.178589E-01  0.413E-01    0.21       1.0  T
   3   -100.5175709 -0.181689E-01  0.916E-02    0.28       1.0  T
   4   -100.5179878 -0.416913E-03  0.283E-02    0.24       1.0  T
   5   -100.5180433 -0.555617E-04  0.891E-03    0.25       1.3  T
   6   -100.5180430  0.307711E-06  0.858E-03    0.25       1.4  T
   7   -100.5180503 -0.725884E-05  0.418E-03    0.25       2.8  T
   8   -100.5180521 -0.179154E-05  0.112E-03    0.25      10.5  T
   9   -100.5180521 -0.450317E-07  0.571E-04    0.25      20.7  T
  10   -100.5180522 -0.391041E-07  0.146E-04    0.25      80.5  T
     SCC iter.                  ...        0 min,  0.080 sec
     gradient                   ...        0 min,  0.069 sec
 * total energy  :   -99.1444860 Eh     change       -0.3269374E-02 Eh
   gradient norm :     0.0289063 Eh/α   predicted    -0.2517656E-02 ( -22.99%)
   displ. norm   :     0.3833029 α      lambda       -0.3393760E-02
   maximum displ.:     0.1469716 α      in ANC's #46, #22, #27, ...

........................................................................
.............................. CYCLE   19 ..............................
........................................................................

 iter      E             dE          RMSdq      gap      omega  full diag
   1   -100.5235269 -0.100524E+03  0.118E-01    0.28       0.0  T
   2   -100.5220618  0.146509E-02  0.134E-01    0.22       1.0  T
   3   -100.5208975  0.116431E-02  0.168E-01    0.36       1.0  T
   4   -100.5223755 -0.147799E-02  0.956E-02    0.24       1.0  T
   5   -100.5236092 -0.123377E-02  0.158E-02    0.27       1.0  T
   6   -100.5236294 -0.201360E-04  0.445E-03    0.27       2.6  T
   7   -100.5236306 -0.121001E-05  0.233E-03    0.27       5.1  T
   8   -100.5236309 -0.288472E-06  0.912E-04    0.27      12.9  T
   9   -100.5236309 -0.441279E-07  0.424E-04    0.27      27.8  T
     SCC iter.                  ...        0 min,  0.073 sec
     gradient                   ...        0 min,  0.069 sec
 * total energy  :   -99.1468702 Eh     change       -0.2384202E-02 Eh
   gradient norm :     0.0208587 Eh/α   predicted    -0.1946202E-02 ( -18.37%)
   displ. norm   :     0.3083496 α      lambda       -0.1979902E-02
   maximum displ.:     0.1605422 α      in ANC's #1, #22, #46, ...

........................................................................
.............................. CYCLE   20 ..............................
........................................................................

 iter      E             dE          RMSdq      gap      omega  full diag
   1   -100.5261897 -0.100526E+03  0.108E-01    0.28       0.0  T
   2   -100.5261961 -0.638347E-05  0.639E-02    0.28       1.0  T
   3   -100.5259725  0.223527E-03  0.418E-02    0.27       1.0  T
   4   -100.5259212  0.513759E-04  0.485E-02    0.30       1.0  T
   5   -100.5261860 -0.264868E-03  0.135E-02    0.28       1.0  T
   6   -100.5262027 -0.166663E-04  0.512E-03    0.28       2.3  T
   7   -100.5262053 -0.263871E-05  0.167E-03    0.28       7.0  T
   8   -100.5262055 -0.126498E-06  0.696E-04    0.28      16.9  T
   9   -100.5262055 -0.427069E-07  0.225E-04    0.28      52.4  T
     SCC iter.                  ...        0 min,  0.074 sec
     gradient                   ...        0 min,  0.069 sec
 * total energy  :   -99.1482775 Eh     change       -0.1407234E-02 Eh
   gradient norm :     0.0204438 Eh/α   predicted    -0.1084111E-02 ( -22.96%)
   displ. norm   :     0.2819045 α      lambda       -0.1672716E-02
   maximum displ.:     0.1068670 α      in ANC's #1, #22, #27, ...
 * RMSD in coord.:     0.7790449 α      energy gain  -0.9673635E+00 Eh

generating ANC from model Hessian ...
Using Lindh-Hessian (1995)
 Shifting diagonal of input Hessian by    1.0281230295871052E-002
 Lowest  eigenvalues of input Hessian
    0.010000    0.010271    0.000000    0.000000    0.000000    0.000000
    0.000000    0.000000    0.010304    0.010468    0.010530    0.010674
    0.010721    0.010884    0.010926    0.011228    0.011609    0.011800
 Highest eigenvalues
    1.987934    2.042872    2.105250    2.113578    2.182742    2.460734


........................................................................
.............................. CYCLE   21 ..............................
........................................................................

 iter      E             dE          RMSdq      gap      omega  full diag
   1   -100.5263807 -0.100526E+03  0.905E-02    0.27       0.0  T
   2   -100.5228343  0.354634E-02  0.190E-01    0.40       1.0  T
   3   -100.5263993 -0.356498E-02  0.573E-02    0.28       1.0  T
   4   -100.5264086 -0.933676E-05  0.332E-02    0.29       1.0  T
   5   -100.5265370 -0.128368E-03  0.114E-02    0.29       1.0  T
   6   -100.5265512 -0.141363E-04  0.359E-03    0.29       3.3  T
   7   -100.5265523 -0.117028E-05  0.109E-03    0.29      10.8  T
   8   -100.5265523 -0.150594E-07  0.625E-04    0.29      18.9  T
   9   -100.5265524 -0.174489E-07  0.199E-04    0.29      59.3  T
     SCC iter.                  ...        0 min,  0.073 sec
     gradient                   ...        0 min,  0.068 sec
 * total energy  :   -99.1494797 Eh     change       -0.1202235E-02 Eh
   gradient norm :     0.0181748 Eh/α   predicted     0.0000000E+00 (-100.00%)
   displ. norm   :     0.3703501 α      lambda       -0.3307748E-02
   maximum displ.:     0.1472006 α      in ANC's #7, #13, #6, ...

........................................................................
.............................. CYCLE   22 ..............................
........................................................................

 iter      E             dE          RMSdq      gap      omega  full diag
   1   -100.5266812 -0.100527E+03  0.106E-01    0.31       0.0  T
   2   -100.5262639  0.417375E-03  0.812E-02    0.30       1.0  T
   3   -100.5233938  0.287003E-02  0.167E-01    0.35       1.0  T
   4   -100.5263368 -0.294302E-02  0.587E-02    0.28       1.0  T
   5   -100.5266072 -0.270346E-03  0.354E-02    0.33       1.0  T
   6   -100.5267388 -0.131583E-03  0.349E-03    0.31       3.4  T
   7   -100.5267396 -0.828284E-06  0.158E-03    0.31       7.5  T
   8   -100.5267396 -0.151138E-07  0.101E-03    0.31      11.6  T
   9   -100.5267397 -0.562281E-07  0.422E-04    0.31      27.9  T
  10   -100.5267397 -0.118118E-07  0.153E-04    0.31      76.9  T
     SCC iter.                  ...        0 min,  0.081 sec
     gradient                   ...        0 min,  0.069 sec
 * total energy  :   -99.1521169 Eh     change       -0.2637190E-02 Eh
   gradient norm :     0.0107307 Eh/α   predicted    -0.1880731E-02 ( -28.68%)
   displ. norm   :     0.6038767 α      lambda       -0.3360150E-02
   maximum displ.:     0.2743869 α      in ANC's #7, #6, #13, ...

........................................................................
.............................. CYCLE   23 ..............................
........................................................................

 iter      E             dE          RMSdq      gap      omega  full diag
   1   -100.5234896 -0.100523E+03  0.186E-01    0.37       0.0  T
   2   -100.5214292  0.206040E-02  0.158E-01    0.30       1.0  T
   3   -100.5142230  0.720618E-02  0.292E-01    0.49       1.0  T
   4   -100.5213772 -0.715421E-02  0.140E-01    0.30       1.0  T
   5   -100.5234493 -0.207202E-02  0.527E-02    0.38       1.0  T
   6   -100.5237215 -0.272197E-03  0.597E-03    0.36       2.0  T
   7   -100.5237237 -0.220683E-05  0.293E-03    0.35       4.0  T
   8   -100.5237236  0.487538E-07  0.208E-03    0.36       5.7  T
   9   -100.5237240 -0.338528E-06  0.781E-04    0.35      15.1  T
  10   -100.5237240 -0.468317E-07  0.261E-04    0.35      45.2  T
     SCC iter.                  ...        0 min,  0.081 sec
     gradient                   ...        0 min,  0.069 sec
 * total energy  :   -99.1545684 Eh     change       -0.2451547E-02 Eh
   gradient norm :     0.0169280 Eh/α   predicted    -0.2292743E-02 (  -6.48%)
   displ. norm   :     0.4945911 α      lambda       -0.1978121E-02
   maximum displ.:     0.2338834 α      in ANC's #7, #6, #15, ...

........................................................................
.............................. CYCLE   24 ..............................
........................................................................

 iter      E             dE          RMSdq      gap      omega  full diag
   1   -100.5240224 -0.100524E+03  0.152E-01    0.42       0.0  T
   2   -100.5189975  0.502494E-02  0.218E-01    0.28       1.0  T
   3   -100.5217934 -0.279592E-02  0.171E-01    0.49       1.0  T
   4   -100.5204363  0.135718E-02  0.180E-01    0.34       1.0  T
   5   -100.5243746 -0.393839E-02  0.267E-02    0.41       1.0  T
   6   -100.5244340 -0.593339E-04  0.443E-03    0.39       2.7  T
   7   -100.5244352 -0.126509E-05  0.198E-03    0.39       6.0  T
   8   -100.5244351  0.105510E-06  0.148E-03    0.39       7.9  T
   9   -100.5244353 -0.190859E-06  0.321E-04    0.39      36.7  T
  10   -100.5244353 -0.545539E-08  0.148E-04    0.39      79.8  T
     SCC iter.                  ...        0 min,  0.080 sec
     gradient                   ...        0 min,  0.069 sec
 * total energy  :   -99.1561334 Eh     change       -0.1565000E-02 Eh
   gradient norm :     0.0201858 Eh/α   predicted    -0.1231072E-02 ( -21.34%)
   displ. norm   :     0.5367222 α      lambda       -0.2505956E-02
   maximum displ.:     0.2200612 α      in ANC's #7, #15, #8, ...

........................................................................
.............................. CYCLE   25 ..............................
........................................................................

 iter      E             dE          RMSdq      gap      omega  full diag
   1   -100.5294854 -0.100529E+03  0.176E-01    0.49       0.0  T
   2   -100.5161134  0.133719E-01  0.358E-01    0.24       1.0  T
   3   -100.5291307 -0.130173E-01  0.139E-01    0.51       1.0  T
   4   -100.5244592  0.467149E-02  0.220E-01    0.38       1.0  T
   5   -100.5304538 -0.599461E-02  0.253E-02    0.45       1.0  T
   6   -100.5305005 -0.466884E-04  0.492E-03    0.44       2.4  T
   7   -100.5305020 -0.149125E-05  0.244E-03    0.43       4.8  T
   8   -100.5305021 -0.119308E-06  0.158E-03    0.44       7.5  T
   9   -100.5305022 -0.132204E-06  0.688E-04    0.43      17.1  T
  10   -100.5305023 -0.330966E-07  0.204E-04    0.43      57.7  T
     SCC iter.                  ...        0 min,  0.080 sec
     gradient                   ...        0 min,  0.069 sec
 * total energy  :   -99.1581493 Eh     change       -0.2015887E-02 Eh
   gradient norm :     0.0187433 Eh/α   predicted    -0.1613926E-02 ( -19.94%)
   displ. norm   :     0.6500086 α      lambda       -0.2833352E-02
   maximum displ.:     0.2566878 α      in ANC's #7, #8, #15, ...

........................................................................
.............................. CYCLE   26 ..............................
........................................................................

 iter      E             dE          RMSdq      gap      omega  full diag
   1   -100.5310498 -0.100531E+03  0.220E-01    0.54       0.0  T
   2   -100.5235068  0.754300E-02  0.285E-01    0.33       1.0  T
   3   -100.5266492 -0.314239E-02  0.239E-01    0.65       1.0  T
   4   -100.5265483  0.100935E-03  0.202E-01    0.46       1.0  T
   5   -100.5313527 -0.480445E-02  0.617E-02    0.52       1.0  T
   6   -100.5317397 -0.387003E-03  0.822E-03    0.49       1.4  T
   7   -100.5317440 -0.430709E-05  0.328E-03    0.49       3.6  T
   8   -100.5317438  0.269187E-06  0.258E-03    0.49       4.6  T
   9   -100.5317443 -0.583106E-06  0.825E-04    0.49      14.3  T
  10   -100.5317444 -0.431512E-07  0.235E-04    0.49      50.1  T
     SCC iter.                  ...        0 min,  0.080 sec
     gradient                   ...        0 min,  0.069 sec
 * total energy  :   -99.1604418 Eh     change       -0.2292516E-02 Eh
   gradient norm :     0.0237942 Eh/α   predicted    -0.2015239E-02 ( -12.09%)
   displ. norm   :     0.6221873 α      lambda       -0.3746033E-02
   maximum displ.:     0.2322564 α      in ANC's #8, #15, #7, ...

........................................................................
.............................. CYCLE   27 ..............................
........................................................................

 iter      E             dE          RMSdq      gap      omega  full diag
   1   -100.5394734 -0.100539E+03  0.229E-01    0.65       0.0  T
   2   -100.5143447  0.251287E-01  0.504E-01    0.24       1.0  T
   3   -100.5402067 -0.258620E-01  0.146E-01    0.62       1.0  T
   4   -100.5317135  0.849323E-02  0.272E-01    0.51       1.0  T
   5   -100.5412443 -0.953079E-02  0.313E-02    0.56       1.0  T
   6   -100.5413208 -0.765491E-04  0.593E-03    0.55       2.0  T
   7   -100.5413229 -0.209779E-05  0.326E-03    0.55       3.6  T
   8   -100.5413234 -0.424375E-06  0.172E-03    0.55       6.9  T
   9   -100.5413235 -0.112981E-06  0.598E-04    0.55      19.7  T
  10   -100.5413235 -0.112902E-07  0.381E-04    0.55      30.9  T
     SCC iter.                  ...        0 min,  0.080 sec
     gradient                   ...        0 min,  0.070 sec
 * total energy  :   -99.1629370 Eh     change       -0.2495114E-02 Eh
   gradient norm :     0.0243534 Eh/α   predicted    -0.2598104E-02 (   4.13%)
   displ. norm   :     0.7293502 α      lambda       -0.3251295E-02
   maximum displ.:     0.2945859 α      in ANC's #7, #8, #6, ...

........................................................................
.............................. CYCLE   28 ..............................
........................................................................

 iter      E             dE          RMSdq      gap      omega  full diag
   1   -100.5298502 -0.100530E+03  0.231E-01    0.65       0.0  T
   2   -100.5274337  0.241646E-02  0.194E-01    0.49       1.0  T
   3   -100.5171756  0.102581E-01  0.354E-01    0.88       1.0  T
   4   -100.5286813 -0.115056E-01  0.107E-01    0.62       1.0  T
   5   -100.5295952 -0.913959E-03  0.668E-02    0.63       1.0  T
   6   -100.5301197 -0.524457E-03  0.889E-03    0.61       1.3  T
   7   -100.5301240 -0.434087E-05  0.393E-03    0.61       3.0  T
   8   -100.5301239  0.160078E-06  0.273E-03    0.61       4.3  T
   9   -100.5301245 -0.630678E-06  0.891E-04    0.61      13.2  T
  10   -100.5301246 -0.482860E-07  0.288E-04    0.61      41.0  T
     SCC iter.                  ...        0 min,  0.080 sec
     gradient                   ...        0 min,  0.069 sec
 * total energy  :   -99.1651369 Eh     change       -0.2199909E-02 Eh
   gradient norm :     0.0275003 Eh/α   predicted    -0.2490414E-02 (  13.21%)
   displ. norm   :     0.4514574 α      lambda       -0.2558233E-02
   maximum displ.:     0.1568241 α      in ANC's #20, #8, #15, ...

........................................................................
.............................. CYCLE   29 ..............................
........................................................................

 iter      E             dE          RMSdq      gap      omega  full diag
   1   -100.5337533 -0.100534E+03  0.125E-01    0.60       0.0  T
   2   -100.5313535  0.239978E-02  0.165E-01    0.73       1.0  T
   3   -100.5326878 -0.133425E-02  0.124E-01    0.54       1.0  T
   4   -100.5326615  0.262212E-04  0.108E-01    0.67       1.0  T
   5   -100.5338347 -0.117314E-02  0.392E-02    0.62       1.0  T
   6   -100.5340265 -0.191864E-03  0.636E-03    0.63       1.9  T
   7   -100.5340295 -0.298129E-05  0.234E-03    0.63       5.0  T
   8   -100.5340297 -0.209277E-06  0.158E-03    0.63       7.5  T
   9   -100.5340299 -0.174147E-06  0.465E-04    0.63      25.4  T
  10   -100.5340299 -0.115399E-07  0.148E-04    0.63      79.7  T
     SCC iter.                  ...        0 min,  0.080 sec
     gradient                   ...        0 min,  0.069 sec
 * total energy  :   -99.1668901 Eh     change       -0.1753193E-02 Eh
   gradient norm :     0.0229225 Eh/α   predicted    -0.1539822E-02 ( -12.17%)
   displ. norm   :     0.5352941 α      lambda       -0.2657241E-02
   maximum displ.:     0.1650958 α      in ANC's #8, #7, #15, ...

........................................................................
.............................. CYCLE   30 ..............................
........................................................................

 iter      E             dE          RMSdq      gap      omega  full diag
   1   -100.5343582 -0.100534E+03  0.149E-01    0.70       0.0  T
   2   -100.5326126  0.174562E-02  0.152E-01    0.56       1.0  T
   3   -100.5312206  0.139196E-02  0.185E-01    0.80       1.0  T
   4   -100.5332993 -0.207870E-02  0.994E-02    0.65       1.0  T
   5   -100.5344425 -0.114324E-02  0.307E-02    0.67       1.0  T
   6   -100.5345501 -0.107585E-03  0.411E-03    0.66       2.9  T
   7   -100.5345508 -0.633259E-06  0.244E-03    0.66       4.8  T
   8   -100.5345508 -0.614912E-07  0.159E-03    0.66       7.4  T
   9   -100.5345510 -0.173573E-06  0.319E-04    0.66      37.0  T
  10   -100.5345510 -0.314043E-08  0.146E-04    0.66      81.0  T
     SCC iter.                  ...        0 min,  0.080 sec
     gradient                   ...        0 min,  0.069 sec
 * total energy  :   -99.1685930 Eh     change       -0.1702987E-02 Eh
   gradient norm :     0.0168112 Eh/α   predicted    -0.1709324E-02 (   0.37%)
   displ. norm   :     0.5325257 α      lambda       -0.1760098E-02
   maximum displ.:     0.1748681 α      in ANC's #8, #7, #15, ...

........................................................................
.............................. CYCLE   31 ..............................
........................................................................

 iter      E             dE          RMSdq      gap      omega  full diag
   1   -100.5320836 -0.100532E+03  0.154E-01    0.62       0.0  T
   2   -100.5275368  0.454675E-02  0.229E-01    0.83       1.0  T
   3   -100.5307701 -0.323326E-02  0.143E-01    0.57       1.0  T
   4   -100.5310602 -0.290091E-03  0.117E-01    0.71       1.0  T
   5   -100.5319800 -0.919881E-03  0.709E-02    0.67       1.0  T
   6   -100.5326229 -0.642852E-03  0.902E-03    0.67       1.3  T
   7   -100.5326285 -0.559634E-05  0.303E-03    0.67       3.9  T
   8   -100.5326291 -0.652023E-06  0.176E-03    0.67       6.7  T
   9   -100.5326293 -0.140393E-06  0.956E-04    0.67      12.3  T
  10   -100.5326293 -0.438932E-07  0.227E-04    0.66      51.9  T
     SCC iter.                  ...        0 min,  0.080 sec
     gradient                   ...        0 min,  0.069 sec
 * total energy  :   -99.1698516 Eh     change       -0.1258514E-02 Eh
   gradient norm :     0.0142028 Eh/α   predicted    -0.1129623E-02 ( -10.24%)
   displ. norm   :     0.4511647 α      lambda       -0.1640097E-02
   maximum displ.:     0.1332165 α      in ANC's #11, #9, #8, ...

........................................................................
.............................. CYCLE   32 ..............................
........................................................................

 iter      E             dE          RMSdq      gap      omega  full diag
   1   -100.5488773 -0.100549E+03  0.112E-01    0.62       0.0  T
   2   -100.5448572  0.402001E-02  0.196E-01    0.77       1.0  T
   3   -100.5485067 -0.364947E-02  0.940E-02    0.60       1.0  T
   4   -100.5488704 -0.363665E-03  0.534E-02    0.67       1.0  T
   5   -100.5490041 -0.133684E-03  0.419E-02    0.63       1.0  T
   6   -100.5491959 -0.191879E-03  0.558E-03    0.65       2.1  T
   7   -100.5491974 -0.145902E-05  0.359E-03    0.65       3.3  T
   8   -100.5491985 -0.113909E-05  0.130E-03    0.65       9.1  T
   9   -100.5491986 -0.904617E-07  0.351E-04    0.65      33.6  T
  10   -100.5491986 -0.642679E-08  0.149E-04    0.65      79.4  T
     SCC iter.                  ...        0 min,  0.081 sec
     gradient                   ...        0 min,  0.069 sec
 * total energy  :   -99.1705448 Eh     change       -0.6932601E-03 Eh
   gradient norm :     0.0170246 Eh/α   predicted    -0.9869728E-03 (  42.37%)
   displ. norm   :     0.5864390 α      lambda       -0.1520399E-02
   maximum displ.:     0.1918465 α      in ANC's #8, #7, #11, ...

........................................................................
.............................. CYCLE   33 ..............................
........................................................................

 iter      E             dE          RMSdq      gap      omega  full diag
   1   -100.5317459 -0.100532E+03  0.178E-01    0.57       0.0  T
   2   -100.5204494  0.112965E-01  0.343E-01    0.83       1.0  T
   3   -100.5320484 -0.115990E-01  0.113E-01    0.59       1.0  T
   4   -100.5279496  0.409881E-02  0.193E-01    0.69       1.0  T
   5   -100.5327665 -0.481694E-02  0.245E-02    0.65       1.0  T
   6   -100.5328094 -0.429106E-04  0.119E-02    0.65       1.0  T
   7   -100.5328203 -0.108750E-04  0.355E-03    0.65       3.3  T
   8   -100.5328207 -0.416851E-06  0.198E-03    0.65       6.0  T
   9   -100.5328208 -0.876747E-07  0.669E-04    0.65      17.6  T
  10   -100.5328208 -0.259916E-07  0.322E-04    0.65      36.6  T
     SCC iter.                  ...        0 min,  0.081 sec
     gradient                   ...        0 min,  0.069 sec
 * total energy  :   -99.1708183 Eh     change       -0.2734878E-03 Eh
   gradient norm :     0.0234335 Eh/α   predicted    -0.1021643E-02 ( 273.56%)
   displ. norm   :     0.1661570 α      lambda       -0.1326294E-02
   maximum displ.:     0.0663313 α      in ANC's #3, #21, #7, ...

........................................................................
.............................. CYCLE   34 ..............................
........................................................................

 iter      E             dE          RMSdq      gap      omega  full diag
   1   -100.5406845 -0.100541E+03  0.589E-02    0.65       0.0  T
   2   -100.5405671  0.117423E-03  0.503E-02    0.65       1.0  T
   3   -100.5400938  0.473329E-03  0.750E-02    0.62       1.0  T
   4   -100.5406531 -0.559350E-03  0.311E-02    0.66       1.0  T
   5   -100.5405878  0.653505E-04  0.384E-02    0.61       1.0  T
   6   -100.5407406 -0.152793E-03  0.762E-03    0.64       1.5  T
   7   -100.5407457 -0.508578E-05  0.240E-03    0.64       4.9  T
   8   -100.5407461 -0.395198E-06  0.106E-03    0.64      11.1  T
   9   -100.5407461 -0.724491E-08  0.490E-04    0.64      24.0  T
  10   -100.5407461 -0.172432E-07  0.203E-04    0.64      57.9  T
     SCC iter.                  ...        0 min,  0.081 sec
     gradient                   ...        0 min,  0.069 sec
 * total energy  :   -99.1713921 Eh     change       -0.5738217E-03 Eh
   gradient norm :     0.0143158 Eh/α   predicted    -0.6814564E-03 (  18.76%)
   displ. norm   :     0.1682925 α      lambda       -0.5515831E-03
   maximum displ.:     0.0698456 α      in ANC's #11, #1, #9, ...

........................................................................
.............................. CYCLE   35 ..............................
........................................................................

 iter      E             dE          RMSdq      gap      omega  full diag
   1   -100.5438460 -0.100544E+03  0.410E-02    0.65       0.0  T
   2   -100.5431993  0.646720E-03  0.858E-02    0.59       1.0  T
   3   -100.5439114 -0.712115E-03  0.232E-02    0.64       1.0  T
   4   -100.5436160  0.295442E-03  0.486E-02    0.61       1.0  T
   5   -100.5439122 -0.296194E-03  0.857E-03    0.64       1.4  T
   6   -100.5439183 -0.611069E-05  0.291E-03    0.64       4.0  T
   7   -100.5439189 -0.567459E-06  0.127E-03    0.64       9.3  T
   8   -100.5439190 -0.124088E-06  0.615E-04    0.64      19.2  T
   9   -100.5439190 -0.189388E-07  0.157E-04    0.64      74.9  T
     SCC iter.                  ...        0 min,  0.073 sec
     gradient                   ...        0 min,  0.069 sec
 * total energy  :   -99.1717007 Eh     change       -0.3085757E-03 Eh
   gradient norm :     0.0099700 Eh/α   predicted    -0.2836029E-03 (  -8.09%)
   displ. norm   :     0.3117617 α      lambda       -0.4891997E-03
   maximum displ.:     0.1317378 α      in ANC's #11, #1, #9, ...

........................................................................
.............................. CYCLE   36 ..............................
........................................................................

 iter      E             dE          RMSdq      gap      omega  full diag
   1   -100.5455998 -0.100546E+03  0.689E-02    0.63       0.0  T
   2   -100.5452831  0.316736E-03  0.660E-02    0.68       1.0  T
   3   -100.5445449  0.738106E-03  0.999E-02    0.58       1.0  T
   4   -100.5456065 -0.106157E-02  0.136E-02    0.64       1.0  T
   5   -100.5456188 -0.123054E-04  0.769E-03    0.64       1.5  T
   6   -100.5456246 -0.579667E-05  0.327E-03    0.64       3.6  T
   7   -100.5456255 -0.896288E-06  0.116E-03    0.64      10.2  T
   8   -100.5456256 -0.971998E-07  0.636E-04    0.64      18.5  T
   9   -100.5456256 -0.237628E-07  0.210E-04    0.64      56.1  T
     SCC iter.                  ...        0 min,  0.073 sec
     gradient                   ...        0 min,  0.069 sec
 * total energy  :   -99.1720848 Eh     change       -0.3841112E-03 Eh
   gradient norm :     0.0090042 Eh/α   predicted    -0.2683757E-03 ( -30.13%)
   displ. norm   :     0.5716219 α      lambda       -0.8069827E-03
   maximum displ.:     0.2590886 α      in ANC's #11, #1, #9, ...

........................................................................
.............................. CYCLE   37 ..............................
........................................................................

 iter      E             dE          RMSdq      gap      omega  full diag
   1   -100.5432055 -0.100543E+03  0.119E-01    0.63       0.0  T
   2   -100.5424895  0.716036E-03  0.107E-01    0.71       1.0  T
   3   -100.5398155  0.267398E-02  0.179E-01    0.52       1.0  T
   4   -100.5430830 -0.326746E-02  0.421E-02    0.65       1.0  T
   5   -100.5432047 -0.121720E-03  0.231E-02    0.65       1.0  T
   6   -100.5432709 -0.661974E-04  0.503E-03    0.64       2.3  T
   7   -100.5432731 -0.227369E-05  0.153E-03    0.64       7.7  T
   8   -100.5432732 -0.804822E-07  0.971E-04    0.64      12.1  T
   9   -100.5432733 -0.433200E-07  0.423E-04    0.64      27.9  T
     SCC iter.                  ...        0 min,  0.072 sec
     gradient                   ...        0 min,  0.069 sec
 * total energy  :   -99.1726753 Eh     change       -0.5904551E-03 Eh
   gradient norm :     0.0116672 Eh/α   predicted    -0.5353230E-03 (  -9.34%)
   displ. norm   :     0.5003375 α      lambda       -0.7942332E-03
   maximum displ.:     0.2384805 α      in ANC's #1, #11, #3, ...

........................................................................
.............................. CYCLE   38 ..............................
........................................................................

 iter      E             dE          RMSdq      gap      omega  full diag
   1   -100.5450669 -0.100545E+03  0.107E-01    0.67       0.0  T
   2   -100.5447196  0.347376E-03  0.834E-02    0.63       1.0  T
   3   -100.5430160  0.170357E-02  0.139E-01    0.70       1.0  T
   4   -100.5450972 -0.208118E-02  0.198E-02    0.66       1.0  T
   5   -100.5451192 -0.220186E-04  0.106E-02    0.66       1.1  T
   6   -100.5451173  0.183696E-05  0.106E-02    0.65       1.1  T
   7   -100.5451303 -0.129783E-04  0.223E-03    0.66       5.3  T
   8   -100.5451308 -0.480750E-06  0.800E-04    0.66      14.7  T
   9   -100.5451308 -0.947993E-08  0.401E-04    0.66      29.4  T
     SCC iter.                  ...        0 min,  0.073 sec
     gradient                   ...        0 min,  0.071 sec
 * total energy  :   -99.1732081 Eh     change       -0.5328735E-03 Eh
   gradient norm :     0.0125015 Eh/α   predicted    -0.4965255E-03 (  -6.82%)
   displ. norm   :     0.5268035 α      lambda       -0.7549031E-03
   maximum displ.:     0.2489824 α      in ANC's #1, #11, #3, ...

........................................................................
.............................. CYCLE   39 ..............................
........................................................................

 iter      E             dE          RMSdq      gap      omega  full diag
   1   -100.5436354 -0.100544E+03  0.108E-01    0.67       0.0  T
   2   -100.5435918  0.436213E-04  0.704E-02    0.65       1.0  T
   3   -100.5422086  0.138320E-02  0.112E-01    0.70       1.0  T
   4   -100.5434584 -0.124978E-02  0.473E-02    0.65       1.0  T
   5   -100.5436759 -0.217486E-03  0.617E-03    0.67       1.9  T
   6   -100.5436759  0.302447E-07  0.534E-03    0.66       2.2  T
   7   -100.5436775 -0.168608E-05  0.339E-03    0.66       3.5  T
   8   -100.5436788 -0.129187E-05  0.105E-03    0.66      11.2  T
   9   -100.5436789 -0.636027E-07  0.430E-04    0.66      27.4  T
  10   -100.5436789 -0.674285E-08  0.108E-04    0.66     109.0  T
     SCC iter.                  ...        0 min,  0.081 sec
     gradient                   ...        0 min,  0.069 sec
 * total energy  :   -99.1736582 Eh     change       -0.4500223E-03 Eh
   gradient norm :     0.0164730 Eh/α   predicted    -0.4822040E-03 (   7.15%)
   displ. norm   :     0.4244344 α      lambda       -0.8554600E-03
   maximum displ.:     0.2110534 α      in ANC's #1, #11, #3, ...

........................................................................
.............................. CYCLE   40 ..............................
........................................................................

 iter      E             dE          RMSdq      gap      omega  full diag
   1   -100.5471974 -0.100547E+03  0.867E-02    0.65       0.0  T
   2   -100.5461567  0.104067E-02  0.116E-01    0.74       1.0  T
   3   -100.5467694 -0.612655E-03  0.767E-02    0.62       1.0  T
   4   -100.5470757 -0.306280E-03  0.516E-02    0.69       1.0  T
   5   -100.5472825 -0.206860E-03  0.180E-02    0.67       1.0  T
   6   -100.5473168 -0.342386E-04  0.842E-03    0.66       1.4  T
   7   -100.5473240 -0.728604E-05  0.229E-03    0.67       5.1  T
   8   -100.5473246 -0.538476E-06  0.916E-04    0.66      12.9  T
   9   -100.5473246 -0.314068E-07  0.330E-04    0.66      35.7  T
     SCC iter.                  ...        0 min,  0.073 sec
     gradient                   ...        0 min,  0.069 sec
 * total energy  :   -99.1740891 Eh     change       -0.4309028E-03 Eh
   gradient norm :     0.0179358 Eh/α   predicted    -0.5047813E-03 (  17.15%)
   displ. norm   :     0.4083596 α      lambda       -0.8895196E-03
   maximum displ.:     0.2213087 α      in ANC's #1, #11, #5, ...

........................................................................
.............................. CYCLE   41 ..............................
........................................................................

 iter      E             dE          RMSdq      gap      omega  full diag
   1   -100.5488635 -0.100549E+03  0.904E-02    0.67       0.0  T
   2   -100.5487584  0.105081E-03  0.636E-02    0.64       1.0  T
   3   -100.5462175  0.254093E-02  0.153E-01    0.79       1.0  T
   4   -100.5487974 -0.257994E-02  0.279E-02    0.66       1.0  T
   5   -100.5488306 -0.331539E-04  0.198E-02    0.67       1.0  T
   6   -100.5488818 -0.511775E-04  0.291E-03    0.67       4.1  T
   7   -100.5488824 -0.661618E-06  0.108E-03    0.67      10.9  T
   8   -100.5488825 -0.332585E-07  0.556E-04    0.67      21.2  T
   9   -100.5488825 -0.344605E-08  0.228E-04    0.67      51.6  T
     SCC iter.                  ...        0 min,  0.073 sec
     gradient                   ...        0 min,  0.069 sec
 * total energy  :   -99.1745233 Eh     change       -0.4342043E-03 Eh
   gradient norm :     0.0141433 Eh/α   predicted    -0.5189243E-03 (  19.51%)
   displ. norm   :     0.4704059 α      lambda       -0.7522680E-03
   maximum displ.:     0.2383868 α      in ANC's #1, #3, #11, ...

........................................................................
.............................. CYCLE   42 ..............................
........................................................................

 iter      E             dE          RMSdq      gap      omega  full diag
   1   -100.5456385 -0.100546E+03  0.957E-02    0.67       0.0  T
   2   -100.5454800  0.158514E-03  0.675E-02    0.68       1.0  T
   3   -100.5421835  0.329650E-02  0.167E-01    0.61       1.0  T
   4   -100.5455057 -0.332222E-02  0.374E-02    0.70       1.0  T
   5   -100.5456332 -0.127512E-03  0.163E-02    0.66       1.0  T
   6   -100.5456618 -0.285910E-04  0.275E-03    0.67       4.3  T
   7   -100.5456623 -0.487494E-06  0.959E-04    0.67      12.3  T
   8   -100.5456623  0.248799E-07  0.687E-04    0.67      17.2  T
     SCC iter.                  ...        0 min,  0.065 sec
     gradient                   ...        0 min,  0.069 sec
 * total energy  :   -99.1749962 Eh     change       -0.4729101E-03 Eh
   gradient norm :     0.0130161 Eh/α   predicted    -0.4593618E-03 (  -2.86%)
   displ. norm   :     0.4168766 α      lambda       -0.7599011E-03
   maximum displ.:     0.2255832 α      in ANC's #1, #3, #26, ...
 * RMSD in coord.:     0.9417030 α      energy gain  -0.2671872E-01 Eh

generating ANC from model Hessian ...
Using Lindh-Hessian (1995)
 Shifting diagonal of input Hessian by    1.0056332830967300E-002
 Lowest  eigenvalues of input Hessian
    0.010000    0.000000    0.000000    0.000000    0.000000    0.000000
    0.000000    0.010072    0.010133    0.010234    0.010324    0.010428
    0.010711    0.010756    0.010900    0.011042    0.011395    0.011682
 Highest eigenvalues
    1.974065    2.021506    2.041600    2.106141    2.179329    2.372432


........................................................................
.............................. CYCLE   43 ..............................
........................................................................

 iter      E             dE          RMSdq      gap      omega  full diag
   1   -100.5508790 -0.100551E+03  0.770E-02    0.66       0.0  T
   2   -100.5508809 -0.192433E-05  0.467E-02    0.67       1.0  T
   3   -100.5507233  0.157638E-03  0.415E-02    0.64       1.0  T
   4   -100.5507424 -0.191031E-04  0.376E-02    0.69       1.0  T
   5   -100.5508873 -0.144907E-03  0.809E-03    0.66       1.5  T
   6   -100.5508888 -0.152719E-05  0.675E-03    0.67       1.7  T
   7   -100.5508944 -0.562774E-05  0.103E-03    0.67      11.4  T
   8   -100.5508945 -0.491435E-07  0.551E-04    0.67      21.4  T
   9   -100.5508945 -0.112596E-07  0.261E-04    0.67      45.1  T
     SCC iter.                  ...        0 min,  0.074 sec
     gradient                   ...        0 min,  0.069 sec
 * total energy  :   -99.1754317 Eh     change       -0.4355151E-03 Eh
   gradient norm :     0.0117953 Eh/α   predicted     0.0000000E+00 (-100.00%)
   displ. norm   :     0.1112481 α      lambda       -0.3936398E-03
   maximum displ.:     0.0406136 α      in ANC's #18, #21, #8, ...

........................................................................
.............................. CYCLE   44 ..............................
........................................................................

 iter      E             dE          RMSdq      gap      omega  full diag
   1   -100.5515139 -0.100552E+03  0.374E-02    0.67       0.0  T
   2   -100.5514994  0.145053E-04  0.245E-02    0.66       1.0  T
   3   -100.5511179  0.381495E-03  0.571E-02    0.68       1.0  T
   4   -100.5514903 -0.372419E-03  0.159E-02    0.65       1.0  T
   5   -100.5515099 -0.195635E-04  0.809E-03    0.67       1.5  T
   6   -100.5515170 -0.715371E-05  0.148E-03    0.66       7.9  T
   7   -100.5515172 -0.178249E-06  0.574E-04    0.67      20.5  T
   8   -100.5515172 -0.134211E-07  0.246E-04    0.67      47.9  T
     SCC iter.                  ...        0 min,  0.066 sec
     gradient                   ...        0 min,  0.069 sec
 * total energy  :   -99.1757395 Eh     change       -0.3077585E-03 Eh
   gradient norm :     0.0046904 Eh/α   predicted    -0.1992563E-03 ( -35.26%)
   displ. norm   :     0.2634407 α      lambda       -0.4672856E-03
   maximum displ.:     0.0956754 α      in ANC's #18, #8, #11, ...

........................................................................
.............................. CYCLE   45 ..............................
........................................................................

 iter      E             dE          RMSdq      gap      omega  full diag
   1   -100.5513385 -0.100551E+03  0.756E-02    0.67       0.0  T
   2   -100.5512880  0.505647E-04  0.483E-02    0.65       1.0  T
   3   -100.5491546  0.213336E-02  0.136E-01    0.75       1.0  T
   4   -100.5513327 -0.217810E-02  0.120E-02    0.66       1.0  T
   5   -100.5513401 -0.737029E-05  0.688E-03    0.67       1.7  T
   6   -100.5513446 -0.456345E-05  0.322E-03    0.66       3.7  T
   7   -100.5513456 -0.981528E-06  0.103E-03    0.66      11.4  T
   8   -100.5513456 -0.144484E-07  0.519E-04    0.66      22.7  T
   9   -100.5513457 -0.208300E-07  0.155E-04    0.66      76.2  T
     SCC iter.                  ...        0 min,  0.073 sec
     gradient                   ...        0 min,  0.069 sec
 * total energy  :   -99.1760653 Eh     change       -0.3258570E-03 Eh
   gradient norm :     0.0054443 Eh/α   predicted    -0.2498618E-03 ( -23.32%)
   displ. norm   :     0.2995727 α      lambda       -0.3060953E-03
   maximum displ.:     0.1111330 α      in ANC's #8, #18, #11, ...

........................................................................
.............................. CYCLE   46 ..............................
........................................................................

 iter      E             dE          RMSdq      gap      omega  full diag
   1   -100.5504134 -0.100550E+03  0.797E-02    0.67       0.0  T
   2   -100.5503573  0.561730E-04  0.517E-02    0.65       1.0  T
   3   -100.5482329  0.212439E-02  0.140E-01    0.78       1.0  T
   4   -100.5503824 -0.214948E-02  0.173E-02    0.66       1.0  T
   5   -100.5504144 -0.320492E-04  0.704E-03    0.66       1.7  T
   6   -100.5504197 -0.534335E-05  0.158E-03    0.67       7.5  T
   7   -100.5504198 -0.114169E-07  0.100E-03    0.66      11.7  T
   8   -100.5504198 -0.555953E-07  0.345E-04    0.67      34.1  T
   9   -100.5504198 -0.754544E-08  0.144E-04    0.67      81.8  T
     SCC iter.                  ...        0 min,  0.074 sec
     gradient                   ...        0 min,  0.069 sec
 * total energy  :   -99.1763111 Eh     change       -0.2457827E-03 Eh
   gradient norm :     0.0086918 Eh/α   predicted    -0.1669888E-03 ( -32.06%)
   displ. norm   :     0.4647193 α      lambda       -0.4410792E-03
   maximum displ.:     0.1777365 α      in ANC's #8, #11, #18, ...

........................................................................
.............................. CYCLE   47 ..............................
........................................................................

 iter      E             dE          RMSdq      gap      omega  full diag
   1   -100.5487419 -0.100549E+03  0.116E-01    0.68       0.0  T
   2   -100.5485997  0.142228E-03  0.784E-02    0.64       1.0  T
   3   -100.5451308  0.346886E-02  0.184E-01    0.80       1.0  T
   4   -100.5485559 -0.342511E-02  0.405E-02    0.65       1.0  T
   5   -100.5487418 -0.185885E-03  0.127E-02    0.67       1.0  T
   6   -100.5487604 -0.186196E-04  0.262E-03    0.67       4.5  T
   7   -100.5487605 -0.952905E-07  0.160E-03    0.67       7.4  T
   8   -100.5487607 -0.146413E-06  0.674E-04    0.67      17.5  T
   9   -100.5487607 -0.264564E-07  0.230E-04    0.67      51.2  T
     SCC iter.                  ...        0 min,  0.073 sec
     gradient                   ...        0 min,  0.069 sec
 * total energy  :   -99.1766596 Eh     change       -0.3485027E-03 Eh
   gradient norm :     0.0102593 Eh/α   predicted    -0.2681695E-03 ( -23.05%)
   displ. norm   :     0.4805812 α      lambda       -0.4727634E-03
   maximum displ.:     0.1896666 α      in ANC's #8, #11, #3, ...

........................................................................
.............................. CYCLE   48 ..............................
........................................................................

 iter      E             dE          RMSdq      gap      omega  full diag
   1   -100.5484588 -0.100548E+03  0.113E-01    0.67       0.0  T
   2   -100.5483268  0.132026E-03  0.769E-02    0.65       1.0  T
   3   -100.5458388  0.248794E-02  0.156E-01    0.72       1.0  T
   4   -100.5484330 -0.259413E-02  0.218E-02    0.66       1.0  T
   5   -100.5484485 -0.155389E-04  0.162E-02    0.68       1.0  T
   6   -100.5484809 -0.323738E-04  0.367E-03    0.67       3.2  T
   7   -100.5484818 -0.897065E-06  0.151E-03    0.67       7.8  T
   8   -100.5484818 -0.582048E-07  0.709E-04    0.67      16.6  T
   9   -100.5484819 -0.338090E-07  0.263E-04    0.67      44.8  T
     SCC iter.                  ...        0 min,  0.074 sec
     gradient                   ...        0 min,  0.069 sec
 * total energy  :   -99.1770311 Eh     change       -0.3714778E-03 Eh
   gradient norm :     0.0103533 Eh/α   predicted    -0.2909808E-03 ( -21.67%)
   displ. norm   :     0.4463089 α      lambda       -0.4873139E-03
   maximum displ.:     0.1838314 α      in ANC's #8, #11, #3, ...

........................................................................
.............................. CYCLE   49 ..............................
........................................................................

 iter      E             dE          RMSdq      gap      omega  full diag
   1   -100.5515543 -0.100552E+03  0.952E-02    0.67       0.0  T
   2   -100.5513754  0.178982E-03  0.690E-02    0.67       1.0  T
   3   -100.5485516  0.282379E-02  0.156E-01    0.62       1.0  T
   4   -100.5513549 -0.280336E-02  0.451E-02    0.70       1.0  T
   5   -100.5515636 -0.208715E-03  0.109E-02    0.66       1.1  T
   6   -100.5515756 -0.119390E-04  0.262E-03    0.67       4.5  T
   7   -100.5515759 -0.319043E-06  0.138E-03    0.66       8.5  T
   8   -100.5515759 -0.355184E-07  0.618E-04    0.66      19.1  T
   9   -100.5515760 -0.179139E-07  0.259E-04    0.67      45.5  T
     SCC iter.                  ...        0 min,  0.073 sec
     gradient                   ...        0 min,  0.069 sec
 * total energy  :   -99.1774004 Eh     change       -0.3692964E-03 Eh
   gradient norm :     0.0089729 Eh/α   predicted    -0.2922325E-03 ( -20.87%)
   displ. norm   :     0.5347310 α      lambda       -0.4077463E-03
   maximum displ.:     0.2321069 α      in ANC's #8, #11, #3, ...

........................................................................
.............................. CYCLE   50 ..............................
........................................................................

 iter      E             dE          RMSdq      gap      omega  full diag
   1   -100.5521595 -0.100552E+03  0.106E-01    0.64       0.0  T
   2   -100.5515800  0.579488E-03  0.917E-02    0.71       1.0  T
   3   -100.5487752  0.280482E-02  0.175E-01    0.54       1.0  T
   4   -100.5521972 -0.342205E-02  0.600E-03    0.66       2.0  T
   5   -100.5521981 -0.871135E-06  0.460E-03    0.66       2.6  T
   6   -100.5521995 -0.140877E-05  0.329E-03    0.66       3.6  T
[...]
 printout                       ...        0 min,  0.001 sec (  0.548%)

         :::::::::::::::::::::::::::::::::::::::::::::::::::::
         ::                     SUMMARY                     ::
         :::::::::::::::::::::::::::::::::::::::::::::::::::::
         :: total energy             -99.188271538038 Eh    ::
         :: gradient norm              0.001430137186 Eh/a0 ::
         :: HOMO-LUMO gap              0.149090035924 eV    ::
         ::.................................................::
         :: SCC energy              -100.564827802736 Eh    ::
         :: -> isotropic ES            0.104157780584 Eh    ::
         :: -> anisotropic ES          0.002551730028 Eh    ::
         :: -> anisotropic XC          0.048419524789 Eh    ::
         :: -> dispersion             -0.075231934733 Eh    ::
         :: repulsion energy           1.375021100500 Eh    ::
         :: add. restraining           0.000019813889 Eh    ::
         :: total charge               1.000000000008 e     ::
         :::::::::::::::::::::::::::::::::::::::::::::::::::::

           -------------------------------------------------
          |                Property Printout                |
           -------------------------------------------------

    * Orbital Energies and Occupations

         #    Occupation            Energy/Eh            Energy/eV
      -------------------------------------------------------------
         1        2.0000           -0.8229087             -22.3925
       ...           ...                  ...                  ...
        78        1.9983           -0.5272648             -14.3476
        79        1.9982           -0.5266128             -14.3299
        80        1.9975           -0.5209834             -14.1767
        81        1.9974           -0.5205842             -14.1658
        82        1.9959           -0.5133049             -13.9677
        83        1.9953           -0.5109935             -13.9048
        84        1.9944           -0.5082325             -13.8297
        85        1.9827           -0.4902070             -13.3392
        86        1.9813           -0.4889908             -13.3061
        87        1.9379           -0.4696282             -12.7792
        88        1.9190           -0.4652482             -12.6600
        89        1.8752           -0.4580453             -12.4640
        90        1.0305           -0.4161074             -11.3229 (HOMO)
        91        0.8585           -0.4106284             -11.1738 (LUMO)
        92        0.3980           -0.3930894             -10.6965
        93        0.0256           -0.3463245              -9.4240
        94        0.0143           -0.3370427              -9.1714
        95        0.0036           -0.3151576              -8.5759
        96        0.0029           -0.3118704              -8.4864
        97        0.0005           -0.2852721              -7.7626
        98        0.0000           -0.2419831              -6.5847
        99        0.0000           -0.1894504              -5.1552
       100                         -0.1368450              -3.7237
       101                         -0.0669023              -1.8205
       ...                                ...                  ...
       171                          0.6897888              18.7701
      -------------------------------------------------------------
                  HL-Gap            0.0054790 Eh            0.1491 eV
             Fermi-level           -0.4151406 Eh          -11.2966 eV

     #   Z          covCN         q      C6AA      α(0)
     1   7 N        1.774    -0.271    27.850     7.815
     2   6 C        2.828     0.101    25.746     8.315
     3   6 C        3.907     0.006    20.415     6.422
     4   6 C        2.974     0.000    28.014     8.682
     5   6 C        2.920    -0.081    30.016     8.984
     6   6 C        2.862     0.128    25.182     8.225
     7   8 O        1.706    -0.231    17.838     5.702
     8   6 C        3.644     0.028    20.440     6.498
     9   6 C        2.864     0.128    25.194     8.228
    10   8 O        1.706    -0.230    17.812     5.698
    11   6 C        3.645     0.027    20.448     6.499
    12   6 C        2.914    -0.074    29.859     8.960
    13   6 C        2.922    -0.053    29.309     8.878
    14   6 C        3.813    -0.064    21.713     6.632
    15   6 C        3.802    -0.070    21.834     6.653
    16   6 C        2.844     0.007    27.847     8.648
    17   7 N        2.729     0.011    21.059     6.816
    18   6 C        3.756    -0.015    20.892     6.517
    19   6 C        3.813    -0.067    21.778     6.642
    20   6 C        2.942     0.021    27.545     8.608
    21   6 C        2.898    -0.038    28.954     8.823
    22   6 C        2.903    -0.052    29.287     8.873
    23   6 C        2.834     0.117    25.410     8.261
    24   8 O        1.703    -0.264    18.371     5.787
    25   6 C        3.641     0.032    20.383     6.492
    26   6 C        1.878     0.041    30.087     8.859
    27   8 O        1.703    -0.134    16.328     5.456
    28   6 C        3.647     0.010    20.741     6.544
    29   6 C        1.923    -0.119    34.414     9.474
    30   6 C        3.699    -0.070    22.011     6.710
    31   6 C        3.853    -0.007    20.672     6.467
    32   6 C        3.756    -0.117    22.802     6.809
    33   6 C        3.755    -0.120    22.858     6.817
    34   1 H        0.926     0.051     2.308     2.376
    35   1 H        0.924     0.053     2.279     2.361
    36   1 H        0.925     0.081     1.971     2.196
    37   1 H        0.924     0.046     2.366     2.405
    38   1 H        0.924     0.055     2.264     2.353
    39   1 H        0.925     0.081     1.972     2.196
    40   1 H        0.924     0.048     2.346     2.395
    41   1 H        0.926     0.052     2.301     2.372
    42   1 H        0.926     0.039     2.466     2.456
    43   1 H        0.925     0.061     2.185     2.312
    44   1 H        0.924     0.055     2.263     2.353
    45   1 H        0.925     0.067     2.116     2.275
    46   1 H        0.924     0.079     1.990     2.206
    47   1 H        0.922     0.003     3.001     2.709
    48   1 H        0.926     0.069     2.096     2.264
    49   1 H        0.924     0.069     2.093     2.262
    50   1 H        0.924     0.064     2.158     2.297
    51   1 H        0.924     0.053     2.288     2.365
    52   1 H        0.925     0.058     2.218     2.329
    53   1 H        0.925     0.044     2.395     2.420
    54   1 H        0.925     0.067     2.118     2.276
    55   1 H        0.924     0.052     2.294     2.369
    56   1 H        0.924     0.049     2.332     2.388
    57   1 H        0.925     0.074     2.042     2.235
    58   1 H        0.925     0.087     1.910     2.161
    59   1 H        0.924     0.063     2.168     2.303
    60   1 H        0.924     0.082     1.963     2.191
    61   1 H        0.927     0.082     1.956     2.187
    62   1 H        0.924     0.078     2.003     2.213
    63   1 H        0.924     0.077     2.007     2.215
    64   1 H        0.925     0.084     1.939     2.178
    65   1 H        0.924     0.037     2.495     2.470
    66   1 H        0.925     0.066     2.134     2.285
    67   1 H        0.925     0.035     2.523     2.484
    68   1 H        0.925     0.051     2.310     2.377
    69   1 H        0.925     0.064     2.150     2.293
    70   1 H        0.925     0.035     2.517     2.481
    71   1 H        0.925     0.054     2.268     2.355
    72   1 H        0.860     0.155     1.367     1.831

 Mol. C6AA /au·bohr⁶  :      47669.949551
 Mol. C8AA /au·bohr⁸  :    1088495.732904
 Mol. α(0) /au        :        334.985315


Wiberg/Mayer (AO) data.
largest (>0.10) Wiberg bond orders for each atom

 ---------------------------------------------------------------------------
     #   Z sym  total        # sym  WBO       # sym  WBO       # sym  WBO
 ---------------------------------------------------------------------------
     1   7 N    3.035 --     2 C    1.954    72 H    0.942
     2   6 C    3.931 --     1 N    1.954     3 C    0.994    47 H    0.906
     3   6 C    3.976 --     2 C    0.994     4 C    0.974    14 C    0.954
                            31 C    0.943
     4   6 C    3.950 --    13 C    1.415     5 C    1.368     3 C    0.974
     5   6 C    3.963 --     6 C    1.401     4 C    1.368    34 H    0.958
     6   6 C    3.906 --     5 C    1.401     9 C    1.223     7 O    1.097
     7   8 O    2.253 --     6 C    1.097     8 C    0.978
     8   6 C    3.933 --     7 O    0.978    36 H    0.977    35 H    0.974
                            37 H    0.974
     9   6 C    3.902 --    12 C    1.392     6 C    1.223    10 O    1.100
    10   8 O    2.251 --     9 C    1.100    11 C    0.978
    11   6 C    3.932 --    10 O    0.978    39 H    0.977    38 H    0.974
                            40 H    0.974
    12   6 C    3.963 --    13 C    1.405     9 C    1.392    41 H    0.964
    13   6 C    3.955 --     4 C    1.415    12 C    1.405    42 H    0.962
    14   6 C    3.972 --    15 C    0.981    44 H    0.972    43 H    0.967
                             3 C    0.954
    15   6 C    3.988 --    16 C    1.061    14 C    0.981    45 H    0.960
                            46 H    0.928
    16   6 C    3.587 --    17 N    1.406    15 C    1.061    48 H    0.957
    17   7 N    3.478 --    16 C    1.406    30 C    0.998    18 C    0.985
    18   6 C    3.957 --    17 N    0.985    19 C    0.973    50 H    0.967
                            49 H    0.964
    19   6 C    3.936 --    52 H    0.975    18 C    0.973    51 H    0.970
                            20 C    0.961
    20   6 C    3.953 --    29 C    1.890    21 C    1.051    19 C    0.961
    21   6 C    3.843 --    22 C    1.743    20 C    1.051    53 H    0.958
    22   6 C    3.946 --    21 C    1.743    23 C    1.080    54 H    0.948
    23   6 C    3.782 --    26 C    1.558    22 C    1.080    24 O    1.015
    24   8 O    2.141 --    23 C    1.015    25 C    0.973
    25   6 C    3.931 --    57 H    0.975    55 H    0.975    56 H    0.974
                            24 O    0.973
    26   6 C    3.119 --    23 C    1.558    27 O    1.345
    27   8 O    2.358 --    26 C    1.345    28 C    0.916
    28   6 C    3.887 --    58 H    0.979    59 H    0.976    60 H    0.968
                            27 O    0.916
    29   6 C    3.018 --    20 C    1.890    61 H    0.951
    30   6 C    3.957 --    17 N    0.998    64 H    0.977    62 H    0.969
                            63 H    0.962
    31   6 C    3.973 --    33 C    1.008    32 C    1.008    65 H    0.961
                             3 C    0.943
    32   6 C    3.981 --    31 C    1.008    67 H    0.982    68 H    0.982
                            66 H    0.975
    33   6 C    3.981 --    31 C    1.008    70 H    0.983    71 H    0.980
                            69 H    0.975
    34   1 H    0.996 --     5 C    0.958
    35   1 H    0.994 --     8 C    0.974
    36   1 H    0.993 --     8 C    0.977
    37   1 H    0.994 --     8 C    0.974
    38   1 H    0.993 --    11 C    0.974
    39   1 H    0.993 --    11 C    0.977
    40   1 H    0.993 --    11 C    0.974
    41   1 H    0.996 --    12 C    0.964
    42   1 H    0.998 --    13 C    0.962
    43   1 H    0.994 --    14 C    0.967
    44   1 H    0.996 --    14 C    0.972
    45   1 H    0.994 --    15 C    0.960
    46   1 H    0.970 --    15 C    0.928
    47   1 H    0.987 --     2 C    0.906
    48   1 H    0.995 --    16 C    0.957
    49   1 H    0.990 --    18 C    0.964
    50   1 H    0.994 --    18 C    0.967
    51   1 H    0.996 --    19 C    0.970
    52   1 H    0.996 --    19 C    0.975
    53   1 H    0.989 --    21 C    0.958
    54   1 H    0.984 --    22 C    0.948
    55   1 H    0.990 --    25 C    0.975
    56   1 H    0.993 --    25 C    0.974
    57   1 H    0.992 --    25 C    0.975
    58   1 H    0.992 --    28 C    0.979
    59   1 H    0.992 --    28 C    0.976
    60   1 H    0.983 --    28 C    0.968
    61   1 H    0.976 --    29 C    0.951
    62   1 H    0.986 --    30 C    0.969
    63   1 H    0.985 --    30 C    0.962
    64   1 H    0.993 --    30 C    0.977
    65   1 H    0.993 --    31 C    0.961
    66   1 H    0.992 --    32 C    0.975
    67   1 H    0.997 --    32 C    0.982
    68   1 H    0.994 --    32 C    0.982
    69   1 H    0.992 --    33 C    0.975
    70   1 H    0.997 --    33 C    0.983
    71   1 H    0.994 --    33 C    0.980
    72   1 H    0.971 --     1 N    0.942
 ---------------------------------------------------------------------------

Topologies differ in total number of bonds
Writing topology from bond orders to xtbtopo.mol

molecular dipole:
                 x           y           z       tot (Debye)
 q only:        1.051      -0.276      -0.997
   full:        1.439      -0.375      -1.235       4.912
molecular quadrupole (traceless):
                xx          xy          yy          xz          yz          zz
 q only:       52.832     -12.687     -20.995       9.371     -12.966     -31.837
  q+dip:       53.132     -11.369     -21.239      10.907     -17.691     -31.893
   full:       53.194     -10.718     -22.331       7.597     -18.458     -30.863

           -------------------------------------------------
          |                Geometry Summary                 |
           -------------------------------------------------

      molecular mass/u    :      455.6105846
   center of mass at/Å    :        0.0077294       0.0170813       0.0694812
  moments of inertia/u·Å² :        0.2590072E+04   0.1096500E+05   0.1179854E+05
rotational constants/cm⁻¹ :        0.6508558E-02   0.1537404E-02   0.1428789E-02

 * 62 selected distances

     #   Z          #   Z                                           value/Å
     1   7 N        2   6 C                                       1.2490861
     4   6 C        5   6 C                                       1.3965145
     5   6 C        6   6 C                                       1.3850403
     6   6 C        7   8 O                                       1.3496694
     7   8 O        8   6 C                                       1.4080218
     6   6 C        9   6 C                                       1.4210003
     9   6 C       10   8 O                                       1.3485356
    10   8 O       11   6 C                                       1.4086139
     9   6 C       12   6 C                                       1.3855178
     4   6 C       13   6 C                                       1.3861727
    12   6 C       13   6 C                                       1.3888416
    14   6 C       15   6 C                                       1.5391453 (max)
    15   6 C       16   6 C                                       1.4784738
    16   6 C       17   7 N                                       1.3268485
    17   7 N       18   6 C                                       1.4448491
    18   6 C       19   6 C                                       1.5373749
    21   6 C       22   6 C                                       1.3433113
    23   6 C       24   8 O                                       1.3829239
    24   8 O       25   6 C                                       1.4121141
    23   6 C       26   6 C                                       1.3464076
    26   6 C       27   8 O                                       1.2796599
    27   8 O       28   6 C                                       1.4344083
    20   6 C       29   6 C                                       1.3070757
    17   7 N       30   6 C                                       1.4435615
    31   6 C       32   6 C                                       1.5268928
    31   6 C       33   6 C                                       1.5263156
     5   6 C       34   1 H                                       1.0775775 (min)
     8   6 C       35   1 H                                       1.0941419
     8   6 C       36   1 H                                       1.0882093
     8   6 C       37   1 H                                       1.0950243
    11   6 C       38   1 H                                       1.0940232
    11   6 C       39   1 H                                       1.0881693
    11   6 C       40   1 H                                       1.0947444
    12   6 C       41   1 H                                       1.0778928
    13   6 C       42   1 H                                       1.0789873
    14   6 C       43   1 H                                       1.0897150
    14   6 C       44   1 H                                       1.0906289
    15   6 C       45   1 H                                       1.0885916
    15   6 C       46   1 H                                       1.0979072
    16   6 C       48   1 H                                       1.0797571
    18   6 C       49   1 H                                       1.0933222
    18   6 C       50   1 H                                       1.0927013
    19   6 C       51   1 H                                       1.0915736
    19   6 C       52   1 H                                       1.0898492
    21   6 C       53   1 H                                       1.0816687
    22   6 C       54   1 H                                       1.0814000
    25   6 C       55   1 H                                       1.0929743
    25   6 C       56   1 H                                       1.0929278
    25   6 C       57   1 H                                       1.0887619
    28   6 C       58   1 H                                       1.0876542
    28   6 C       59   1 H                                       1.0917515
    28   6 C       60   1 H                                       1.0914112
    30   6 C       62   1 H                                       1.0910149
    30   6 C       63   1 H                                       1.0937130
    30   6 C       64   1 H                                       1.0866958
    31   6 C       65   1 H                                       1.0962980
    32   6 C       66   1 H                                       1.0853486
    32   6 C       67   1 H                                       1.0874052
    32   6 C       68   1 H                                       1.0866918
    33   6 C       69   1 H                                       1.0853500
    33   6 C       70   1 H                                       1.0866696
    33   6 C       71   1 H                                       1.0868249

 * 4 distinct bonds (by element types)

   Z      Z             #   av. dist./Å        max./Å        min./Å
   1 H    6 C          36     1.0888160     1.0979072     1.0775775
   6 C    6 C          14     1.4262917     1.5391453     1.3070757
   6 C    7 N           4     1.3660863     1.4448491     1.2490861
   6 C    8 O           8     1.3779934     1.4344083     1.2796599


optimized geometry written to: xtbopt.xyz


           -------------------------------------------------
          | TOTAL ENERGY              -99.188271538038 Eh   |
          | GRADIENT NORM               0.001430137186 Eh/α |
          | HOMO-LUMO GAP               0.149090035924 eV   |
           -------------------------------------------------

------------------------------------------------------------------------
 * finished run on 2024/04/06 at 11:14:43.538     
------------------------------------------------------------------------
 total:
 * wall-time:     0 d,  0 h,  0 min, 16.334 sec
 *  cpu-time:     0 d,  0 h,  0 min, 16.316 sec
 * ratio c/w:     0.999 speedup
 SCF:
 * wall-time:     0 d,  0 h,  0 min,  0.190 sec
 *  cpu-time:     0 d,  0 h,  0 min,  0.190 sec
 * ratio c/w:     1.000 speedup
 ANC optimizer:
 * wall-time:     0 d,  0 h,  0 min, 16.103 sec
 *  cpu-time:     0 d,  0 h,  0 min, 16.100 sec
 * ratio c/w:     1.000 speedup

