25
 energy: 58.316254654477 xtb: 6.6.1 (8d0f1dd)
C            3.42494440206160        0.98898430560936        0.17404313217361
N            2.40772531361610       -0.01752383142587       -0.00444428631089
C            2.70076700189778       -1.31150832525071       -0.10596387887995
N            1.55295611743162       -2.03769606152797       -0.16039110372746
C            0.50540707385609       -1.15724722061205       -0.06779533681888
C            1.03836546299339        0.11627645974545        0.02818461674767
C            0.12370338670087        1.29134281933182        0.17394475966513
O            0.58325323245509        2.40683695278526        0.38692224203181
N           -1.20442864627751        1.00836862705522        0.10560621223856
C           -3.01964075232354        2.86712547995854       -0.36685516805286
C           -1.74317155061060       -0.18893409824288        0.16702559918086
O           -2.88874928825029       -0.51804185869000        0.36019308115731
N           -0.79809416065763       -1.37640683714327        0.00391668672269
C           -1.27029508615929       -2.72794119022726        0.02316260244751
H            3.96371960647338        0.79019851367883        1.11207114408219
H            4.14048018216512        0.91277827371352       -0.64635800343157
H            2.99384982534529        1.98150969898572        0.20322100282269
H            3.66247323181872       -1.71158815040203       -0.30503964224219
H           -2.33277892021291        3.66403559427384       -0.36374374743105
H           -3.45726732234338        2.59446963574037       -1.29017879374321
H           -3.56468786329108        2.66796836440286        0.50866553536455
H           -0.82950058954359       -3.25294954395626        0.87367034163096
H           -0.94454974683615       -3.20676200865789       -0.90015005216521
H           -2.36068068302768       -2.75027496779173        0.06835773909460
H            1.52076486852035       -3.03731858757075       -0.24580654561229
