72
 energy: 0.000000000000 xtb: 6.6.1 (8d0f1dd)
N           -1.47310921155849        2.74401293103706        2.22063921685122
C           -1.55658879776851        2.16490285539332        1.13274273951491
C           -2.74549199786261        2.05621232186130        0.23826248438941
C           -3.31377553111525        0.64333411542669        0.32332512650568
C           -4.30230156009016        0.24487110156316       -0.58026161703006
C           -4.85238763031941       -1.02286490450319       -0.53363588718165
O           -5.81419972815119       -1.48606034185536       -1.36157882725342
C           -6.39655633239252       -0.60827000183299       -2.29568474302620
C           -4.39972501531283       -1.94646102182611        0.44396929121966
O           -4.98748311285188       -3.16145997157803        0.41085992006324
C           -4.66362127904578       -4.10093827755394        1.40909127743729
C           -3.42072513477031       -1.54561384810496        1.33436546260297
C           -2.88302799614223       -0.26315800396994        1.27400150770375
C           -2.19303798107274        2.30467000305896       -1.18742977106749
C           -1.26651538239283        1.17243369445008       -1.65249429687285
C            0.01082524939134        1.09745454476277       -0.89354803499847
N            0.61779393476578       -0.02034948052406       -0.57705522512502
C            2.00145210352228       -0.02376006389122       -0.15611399603240
C            2.92554934655222       -0.53865282675074       -1.27700088804721
C            4.35756843073516       -0.43050757231754       -0.83075544324989
C            5.07346135469827        0.73206409086248       -1.03980965825901
C            6.38627986649936        0.84224441421807       -0.60344822702769
C            7.00047264773336       -0.20824756335880        0.05722314418200
O            8.26703657141718       -0.21011313101264        0.52410943644933
C            9.06912227848686        0.92943601033931        0.31863058007678
C            6.27039964270142       -1.40439753960823        0.28033466008274
O            6.94829939911432       -2.38012925705718        0.92751999079483
C            6.31537317745639       -3.61583200086742        1.15217711710877
C            4.96302794628964       -1.49347471867959       -0.16064430359178
C           -0.05511211367372       -1.29906247805359       -0.62085686319744
C           -3.86758037025447        3.07992600430699        0.58498060215443
C           -4.49286159663096        2.77383493050346        1.94313289484366
C           -3.39165179876499        4.52917666589254        0.54797523472093
H           -4.66030026466202        0.94509067363451       -1.31640568823548
H           -6.85037928558380        0.25803162192116       -1.80468845313260
H           -7.17287442604349       -1.18600110843259       -2.79318157561361
H           -5.66836817451085       -0.26952966318766       -3.04040255244073
H           -4.88416720672258       -3.71589460520039        2.40913542187496
H           -5.29223570620378       -4.96637458756866        1.20969236903657
H           -3.61139813139015       -4.39919835331056        1.35529357841967
H           -3.07077796610445       -2.21868765711333        2.10002662693138
H           -2.14562754426994        0.02067850696302        2.01001344383370
H           -3.02188875377605        2.38238012313952       -1.88813545054866
H           -1.65198530896729        3.25146700677685       -1.20556284570283
H           -1.81103374245520        0.23006524641044       -1.62116301628650
H           -0.99335688527853        1.37490212198123       -2.69443256973690
H           -0.67628064361333        1.65183887049447        0.61785727145403
H            0.63525841192517        1.98466369793744       -0.92314021190751
H            2.11132552493482       -0.65949692842762        0.72532613231274
H            2.30680473056284        0.98978251704176        0.11078972794250
H            2.76694198818247        0.06750735147374       -2.17075252200790
H            2.67954581369920       -1.57455627803457       -1.51167743520200
H            4.62169998552446        1.56295612048703       -1.56123579000624
H            6.92357674630170        1.75715815945204       -0.79119596719031
H            8.65159112996149        1.81001823324363        0.81701555159939
H            9.20136171144928        1.14042857828877       -0.74698991949293
H           10.03428838009630        0.69003240176163        0.76064937965836
H            7.05567174969094       -4.23621171795340        1.65347565939075
H            5.43848001056755       -3.50813558175093        1.79970565785717
H            6.02060041905269       -4.09420497120334        0.21253282636366
H            4.40102758497114       -2.40127266373392       -0.00490198249042
H           -0.22071299714579       -1.61775583601871       -1.65116008982042
H           -1.01972258008625       -1.24102717432227       -0.10935206830928
H            0.55899954147532       -2.04486085926761       -0.12333730421426
H           -4.63991875734388        2.95501092798550       -0.18098088071825
H           -3.76095216473977        2.90314704960906        2.73380821053058
H           -4.87457614030224        1.75695641518947        1.97884603101694
H           -5.31925552549014        3.45579210326349        2.12325564252114
H           -2.60025590131176        4.69225046143352        1.27368918226171
H           -3.03987406413880        4.81897652321898       -0.43870975059559
H           -4.22191740670577        5.18069648090034        0.80616693961239
H           -0.59832433787845        2.77744694953323        2.72958984441332
72
 energy: -1.574052280727 xtb: 6.6.1 (8d0f1dd)
N           -1.50377849305475        2.81747732869628        2.24401269797241
C           -1.56149888793597        2.18167594669781        1.16758972388021
C           -2.74035116742896        2.07145720690021        0.25300375566324
C           -3.30288983459439        0.65624152811318        0.33819461870232
C           -4.27945522491772        0.24296832402798       -0.57032377511201
C           -4.82494652972379       -1.02782165264934       -0.51921263069299
O           -5.78479857289269       -1.49733398484217       -1.35631791191381
C           -6.35502587170154       -0.62501703783250       -2.30109147473965
C           -4.38742039586003       -1.95097338771765        0.46709470131415
O           -5.00177138962076       -3.17199725594297        0.43091590333195
C           -4.75457356822015       -4.15497171060579        1.41928386305905
C           -3.41734587703184       -1.53218191942737        1.36301183487095
C           -2.88305237488018       -0.24535409054813        1.29851209981221
C           -2.18331076080184        2.32012956065294       -1.17289491513583
C           -1.26003040517478        1.19992666939625       -1.67391067082527
C            0.01445430878623        1.13070699974317       -0.90535652785277
N            0.63362008013322       -0.03184301658365       -0.58007464999243
C            2.00787549890117       -0.03165106276574       -0.16865120146324
C            2.93808548047647       -0.53857133821006       -1.28853441174097
C            4.36536558394988       -0.43407292802401       -0.84608701442547
C            5.08229886674157        0.73025028267121       -1.04696822276113
C            6.39265873185793        0.83912449782282       -0.60575608081473
C            7.00394458086817       -0.21383031067590        0.05311551852898
O            8.27742199592752       -0.21916539113623        0.52369381394708
C            9.07560749665706        0.92093756864811        0.32103926940151
C            6.27343203621957       -1.40753991199859        0.27257769655891
O            6.95319698820500       -2.38883930703219        0.92116449341750
C            6.31618649965878       -3.62174672556071        1.14272374586865
C            4.96886548105721       -1.49681223416110       -0.17246973927658
C           -0.05099419158387       -1.29619729573090       -0.64107862508613
C           -3.87660602391816        3.08293166782584        0.57973871602934
C           -4.50907674865762        2.78174096693921        1.93639638668186
C           -3.41369165381180        4.53735221871849        0.54147735183903
H           -4.62751636254145        0.93619837617991       -1.31947249977723
H           -6.81445555837999        0.24536101567464       -1.82166828800301
H           -7.12598987472959       -1.20737897801166       -2.80269068433755
H           -5.61953074148457       -0.28980237573509       -3.04029872062520
H           -4.85954051972079       -3.73398670231011        2.43109158977792
H           -5.34862344514006       -5.09883574610525        1.24027880946562
H           -3.75673554630477       -4.50695930003395        1.34885558764995
H           -3.06564811805523       -2.19720406814496        2.13516457909206
H           -2.14827371188310        0.04784680854771        2.03353123989958
H           -3.01256348866976        2.41805746024443       -1.87349150776512
H           -1.63209977212627        3.26204300475539       -1.18037115021309
H           -1.80196358020009        0.25556648404835       -1.63238147939757
H           -1.01895369394581        1.40778340741148       -2.72469460872892
H           -0.67854950784028        1.66732558759035        0.68181339945065
H            0.65205313803462        2.00248533992850       -0.95225765500362
H            2.11753390293715       -0.66514515596618        0.71545180702115
H            2.30548495348222        0.98474164623390        0.10064564927611
H            2.77350841149037        0.07136216497780       -2.17838800788105
H            2.68479150590618       -1.57248426278255       -1.52435036265087
H            4.62978120848379        1.56286497819065       -1.56466860159702
H            6.93167656478277        1.75443554468518       -0.79040035349407
H            8.65667866545460        1.80099549520579        0.82017616235903
H            9.20919021333789        1.13555682818253       -0.74426091451682
H           10.04037927536365        0.68084635351745        0.76415854918057
H            7.05491304513589       -4.24404965961973        1.64490640213558
H            5.43778001258285       -3.51334650238252        1.78824903044551
H            6.02083020682047       -4.09935611492979        0.20246330983108
H            4.40379885749597       -2.40310174282901       -0.01706355670634
H           -0.21987033048017       -1.60724665293102       -1.67646152249729
H           -1.01745805101482       -1.23291971387024       -0.13258499585269
H            0.55657856364633       -2.04812707967301       -0.14577169731701
H           -4.64456498407816        2.95174723694733       -0.19085459900899
H           -3.77847990836397        2.91852765137313        2.72730178654932
H           -4.88105230196395        1.76080876183600        1.97441192613910
H           -5.34277538686592        3.45839378147421        2.10925064466631
H           -2.62752719864516        4.70624578815351        1.27142596871896
H           -3.05372983302285        4.82329016324348       -0.44374359240569
H           -4.25174654423818        5.18494123812147        0.78938822398953
H           -0.62782653002664        2.83480957033953        2.75497812120507
72
 energy: 6.173309855467 xtb: 6.6.1 (8d0f1dd)
N           -1.54402989790039        2.90701272720914        2.25892115715570
C           -1.56258255354854        2.21271197826229        1.20354397709362
C           -2.73320708078855        2.08779555812085        0.26996290974089
C           -3.28608614624663        0.66673808215035        0.35555541943036
C           -4.24879970892347        0.23411159651763       -0.55845622128258
C           -4.79146452898044       -1.03911555957145       -0.49735821831323
O           -5.74485562310915       -1.51324120563104       -1.34869256467654
C           -6.29770320104109       -0.64829540107557       -2.30840219500420
C           -4.37663801776156       -1.96064752084902        0.50437324441882
O           -5.02079149404889       -3.18625202309479        0.45869408353466
C           -4.85460687988944       -4.21561299374702        1.43549679850715
C           -3.41451543383061       -1.51988476017344        1.40273547763771
C           -2.88298871493164       -0.22887227474610        1.33045190293608
C           -2.16986027910792        2.34580089069220       -1.15413951819830
C           -1.25398212413262        1.22996093283648       -1.68409037386353
C            0.02260951808358        1.16208919730817       -0.92211733402331
N            0.64466106970297       -0.03319929128988       -0.59109038054638
C            2.01125139287374       -0.03322255077955       -0.18595018700917
C            2.95046568473163       -0.53697930451429       -1.30301664101748
C            4.37381153968456       -0.43692582507538       -0.86059407164944
C            5.09377873769181        0.72706778450983       -1.05505926039786
C            6.40279411595344        0.83414116874672       -0.60947408467669
C            7.00929211664056       -0.22156453414182        0.04691141046550
O            8.28825371245516       -0.23078495432026        0.52150467014702
C            9.08354742698291        0.90937416665909        0.32415409673472
C            6.27840616352189       -1.41231714217857        0.26126571477887
O            6.95840617328939       -2.39971169896153        0.91100561314460
C            6.31689382236654       -3.62942723321091        1.12952462224321
C            4.97555822901610       -1.50067023602040       -0.18782806914490
C           -0.04954343581362       -1.28486614233554       -0.67171685722299
C           -3.88517859980542        3.08670871047440        0.57479362869331
C           -4.53042919511196        2.79078298920070        1.92755272394745
C           -3.44241923913812        4.54885317147550        0.53163759724434
H           -4.58455822728837        0.91887099577104       -1.32330431715842
H           -6.76555481929355        0.22726047992785       -1.84513001433233
H           -7.06114875967148       -1.23618661496849       -2.81619860171058
H           -5.55219901143657       -0.31826944970925       -3.04027254987208
H           -4.84747873019142       -3.76810718573629        2.45395870741566
H           -5.44827608019406       -5.21884591246025        1.28548060896192
H           -3.91129052761472       -4.66681461537180        1.33053910213971
H           -3.05971583170590       -2.17285870316511        2.18496180651132
H           -2.15487296181269        0.07872359102269        2.06767931453116
H           -3.00036525346244        2.46978298615747       -1.85224394158743
H           -1.60539476780627        3.28110893127913       -1.14526948857345
H           -1.79215044492110        0.28319487139032       -1.64377188903209
H           -1.04554342347757        1.45104776842983       -2.74223447267106
H           -0.68003945198356        1.68386796711835        0.76730244230526
H            0.67623990883678        2.01617307067177       -0.97811653125628
H            2.12523417772718       -0.66919904765290        0.69918853639524
H            2.30741779459896        0.98264920522995        0.08909003520899
H            2.78318373476562        0.07665146761407       -2.18980838490175
H            2.69145317715605       -1.56922082645960       -1.54279202716730
H            4.64104236429255        1.56160169442898       -1.56952888531647
H            6.94299263228517        1.75030577972286       -0.78902549336757
H            8.66400414008956        1.78880217605229        0.82477104824444
H            9.22043610357788        1.12896466480019       -0.74028091631168
H           10.04782071160108        0.66843045318898        0.76877262561384
H            7.05333130577807       -4.25421381784776        1.63286252783571
H            5.43697992250650       -3.52046277500791        1.77306166043520
H            6.02168039843470       -4.10669466474210        0.18865317396508
H            4.40711086485613       -2.40540001447000       -0.03429600391984
H           -0.21920003985065       -1.59110805243370       -1.71100747831957
H           -1.01756505568742       -1.22276461679787       -0.16599930521795
H            0.55086823042981       -2.04626963878111       -0.17924757367606
H           -4.64552291742674        2.94357068742775       -0.20268424667705
H           -3.80526251065342        2.94053192191791        2.72095959456031
H           -4.89138842122928        1.76563127664181        1.96963992933927
H           -5.37291696356862        3.46038400816766        2.08820701074440
H           -2.66570197959806        4.72825255892377        1.26885658574421
H           -3.07299695074009        4.83085460816609       -0.45143594463042
H           -4.29156702015861        5.18858661316454        0.76534091163938
H           -0.66723367318759        2.90890069288863        2.77570970140198
72
 energy: 14.812171688894 xtb: 6.6.1 (8d0f1dd)
N           -1.58177073770638        2.97912294666911        2.27108847175706
C           -1.56621616387879        2.24994119231320        1.23596399696263
C           -2.72785854864461        2.10213984545733        0.28658713751432
C           -3.26944317434035        0.67367328042062        0.37396314958119
C           -4.21746637507117        0.22076780272210       -0.54655229537573
C           -4.75989962270252       -1.05404272931327       -0.47349231628364
O           -5.70218961935104       -1.53069927266172       -1.33971326876985
C           -6.23707617156895       -0.67370962729874       -2.31578555046724
C           -4.36845802035570       -1.97220460863931        0.54649685913301
O           -5.03397119251865       -3.20019444892491        0.49193562121367
C           -4.93702284530501       -4.27008570613380        1.45649851659320
C           -3.41287391092853       -1.50970552367298        1.44468603772378
C           -2.88282046490279       -0.21574977913980        1.36304698093235
C           -2.15646977344591        2.37238055028086       -1.13403141517431
C           -1.24931126550857        1.25948580250892       -1.68919102471417
C            0.03294050531477        1.18410590432445       -0.94388288532435
N            0.64963599358320       -0.02553048420505       -0.60696104054193
C            2.01413728315619       -0.03177017920223       -0.20247119642614
C            2.95967094706659       -0.53429661559470       -1.31847439479929
C            4.38177406930712       -0.43876707947782       -0.87285884611630
C            5.10519318552870        0.72434860570735       -1.06259852442647
C            6.41348069153490        0.82916338787965       -0.61371575839892
C            7.01604504434010       -0.22978542546666        0.04044776796183
O            8.29667723563903       -0.24241197263809        0.51813211212807
C            9.09179309467532        0.89742300256873        0.32736265239969
C            6.28387738420473       -1.41892882967429        0.24962804538923
O            6.96202926168773       -2.41033967366223        0.89927568652308
C            6.31731770258939       -3.63782014551703        1.11565268511615
C            4.98165302543483       -1.50513647999546       -0.20268437323405
C           -0.04906438441823       -1.27135356717115       -0.70383181727081
C           -3.89458548952055        3.09059769267054        0.57109353317119
C           -4.55261200740107        2.79945801002189        1.91884478931480
C           -3.47171513066420        4.55973425572950        0.52070497733107
H           -4.54078931501662        0.89583698341976       -1.32674854741484
H           -6.71344830031188        0.20691929652038       -1.86970458313661
H           -6.99229125934867       -1.26658201382339       -2.83072767994395
H           -5.48056720008219       -0.34963373441177       -3.03951428185924
H           -4.83946538040230       -3.81638967614353        2.47209212458707
H           -5.57741759154322       -5.29138869566538        1.33000602429598
H           -4.04845131929497       -4.83451447994102        1.30173790205901
H           -3.05665678289172       -2.14789649261600        2.23956265687995
H           -2.16379177338480        0.10572622690519        2.10498258322335
H           -2.98573035277463        2.52186639499466       -1.82986947254322
H           -1.57933899126437        3.30032367747837       -1.10803381241738
H           -1.78526831235828        0.31194636454852       -1.65431885374934
H           -1.06471021486131        1.49500811923373       -2.75098042809724
H           -0.68133949084540        1.70554873493984        0.85042589104396
H            0.69767028573130        2.02790150004158       -0.99690412999708
H            2.13063637548429       -0.67210836211388        0.68153544378816
H            2.31285387917076        0.98176209004497        0.07760217838305
H            2.79448172637247        0.08220803668076       -2.20374170927713
H            2.69826983917328       -1.56536970683722       -1.56211882855937
H            4.65345040846400        1.56078058481831       -1.57500910309950
H            6.95451866232905        1.74575599702779       -0.78839883151833
H            8.67193305008874        1.77590678458964        0.82984786785171
H            9.23256490409741        1.12183118731613       -0.73588991456991
H           10.05525812549771        0.65518588212072        0.77370099431839
H            7.05139612726426       -4.26474077837072        1.62024579678483
H            5.43617275259400       -3.52792432846265        1.75745466867362
H            6.02277233343763       -4.11467711964692        0.17419431798562
H            4.41084903756117       -2.40889010084226       -0.05218350381139
H           -0.21671743232801       -1.57156625979669       -1.74621171460404
H           -1.01884891177216       -1.21213075037058       -0.20119117159142
H            0.54486473498148       -2.04219227302787       -0.21507318600290
H           -4.64484343963958        2.93244162306601       -0.21428304499250
H           -3.83606556550413        2.96415982346176        2.71702746246344
H           -4.90289951449913        1.77076693320802        1.96508673135348
H           -5.40368393557780        3.46171859072624        2.06489084552508
H           -2.70645960543094        4.75388553983202        1.26610107996531
H           -3.09393132831386        4.83888273176421       -0.45993738736179
H           -4.33262660494769        5.18977303767912        0.73898054959960
H           -0.70585095282555        2.98934933771420        2.79268708046445
72
 energy: 22.021622046728 xtb: 6.6.1 (8d0f1dd)
N           -1.61243293673540        3.03576567073549        2.27893676972019
C           -1.57314728669215        2.28455543729876        1.26366344373728
C           -2.72420479630819        2.11206912351748        0.30149631489562
C           -3.25550207955600        0.67691058377309        0.39232128045586
C           -4.18937438347091        0.20515585887117       -0.53437908521530
C           -4.73391972168142       -1.07024504012582       -0.45047628354639
O           -5.66210137177516       -1.54831523557934       -1.33086249110426
C           -6.17936861943528       -0.69863835962180       -2.32273425969176
C           -4.36503833630664       -1.98374457895558        0.58758813756483
O           -5.04064168208056       -3.21441277399315        0.52482016117818
C           -4.99595254172168       -4.31430976148743        1.47688619882363
C           -3.41486356829096       -1.50141831690244        1.48467856175724
C           -2.88408780140151       -0.20609111603514        1.39392236881781
C           -2.14389448320606        2.39580631051493       -1.11432088497721
C           -1.24570342058996        1.28564652538713       -1.69133767412061
C            0.04515209654785        1.19688544600753       -0.96777459581016
N            0.65099107485063       -0.01292801766485       -0.62330025013711
C            2.01720021034005       -0.02867566248610       -0.21761540357770
C            2.96609006643235       -0.53137274611506       -1.33303650187519
C            4.38866380997350       -0.44005590396720       -0.88317214082369
C            5.11528379355271        0.72198341652211       -1.06910266524269
C            6.42316339698216        0.82406780164848       -0.61786910916905
C            7.02303867745347       -0.23791016241217        0.03439145390069
O            8.30255707698954       -0.25362286906168        0.51421800277703
C            9.09962918431131        0.88576148995091        0.33039321045904
C            6.28868007886377       -1.42650963642244        0.23876531335704
O            6.96400003102609       -2.42014612797290        0.88718721421631
C            6.31724761160145       -3.64646844674790        1.10228239142167
C            4.98653190159499       -1.50963139758304       -0.21598945110499
C           -0.04896900886187       -1.25784701780712       -0.73405616052892
C           -3.90341976740955        3.09316257885079        0.56823688538923
C           -4.57348306566516        2.80718362548473        1.91074270663265
C           -3.49899769567053        4.56818973736569        0.50991120565274
H           -4.50040751140881        0.86984991710928       -1.32892090608327
H           -6.66289199692907        0.18639469021594       -1.89284682440067
H           -6.92639231145502       -1.29558065532325       -2.84493949821862
H           -5.41154667734459       -0.38073717015081       -3.03768061752398
H           -4.82991486879460       -3.87612323023105        2.48335550712347
H           -5.69791081650910       -5.33332943350970        1.36815246522150
H           -4.17303136275183       -4.95750252760027        1.27219140162534
H           -3.05832252349391       -2.12406732974413        2.29255841082756
H           -2.17422891529976        0.12581453586314        2.14127421788646
H           -2.97018834124578        2.56859276208546       -1.80826847502841
H           -1.55627523218267        3.31686827784824       -1.07138433876591
H           -1.78157984854494        0.33849489215965       -1.66356232428992
H           -1.07766253822152        1.53607493708249       -2.75346619692312
H           -0.68224160854047        1.72979643198526        0.92310990300733
H            0.71394423566404        2.03813824768503       -1.00841674346771
H            2.13160924453111       -0.67391868987675        0.66346407101092
H            2.31996854211622        0.98195299221965        0.06689279048673
H            2.80572611867449        0.08751730897036       -2.21748208128346
H            2.70438929741246       -1.56151643045789       -1.58010963357917
H            4.66554860336210        1.56033279979727       -1.58022363548231
H            6.96523764281872        1.74061924714105       -0.78843912810609
H            8.67954993705438        1.76302751246822        0.83493298700807
H            9.24421777568650        1.11436379063764       -0.73153004164797
H           10.06185381989196        0.64144191528773        0.77858539610034
H            7.04924252817023       -4.27493607586311        1.60807226888617
H            5.43515559267456       -3.53542251323136        1.74264552436453
H            6.02358346736589       -4.12285920557371        0.16030982901941
H            4.41440532110238       -2.41302395751112       -0.06904652095262
H           -0.21307820509607       -1.55027872247927       -1.77923001564616
H           -1.02055555261583       -1.20181947729482       -0.23454970351449
H            0.54001047607965       -2.03580334496195       -0.24951166137554
H           -4.64335714078474        2.92037839731382       -0.22416114344289
H           -3.86726175306743        2.98663365418435        2.71493374283478
H           -4.91414063886161        1.77571292242921        1.96152161491033
H           -5.43234124505213        3.46244989131615        2.04189783622461
H           -2.74568432465670        4.77917997719181        1.26299906370567
H           -3.11388485014842        4.84572832201144       -0.46813559029558
H           -4.37092176332511        5.18835946433435        0.71316890620416
H           -0.74184982707961        3.06768627843195        2.80991080787155
72
 energy: 26.127798355080 xtb: 6.6.1 (8d0f1dd)
N           -1.63207301632627        3.07841491605704        2.28028664329083
C           -1.58109253138300        2.30575039447624        1.28411977278283
C           -2.72188399402611        2.11632829083877        0.31293574638885
C           -3.24662035260800        0.67722428677516        0.40709354978626
C           -4.16963759930094        0.19243494120703       -0.52414883882930
C           -4.71734942576110       -1.08240798518061       -0.43367097866331
O           -5.63263327956080       -1.56237846574011       -1.32441791868412
C           -6.13571679792077       -0.71833008466890       -2.32844777458187
C           -4.36522369481284       -1.99093100031237        0.61708032827377
O           -5.04641332262125       -3.22146852205495        0.55182570682194
C           -5.02687826640957       -4.33750913146311        1.49266516672656
C           -3.41935416534115       -1.49607216939620        1.51406335490829
C           -2.88669173343731       -0.20058557776803        1.41761161797561
C           -2.13409543422928        2.41055017759524       -1.09830265590989
C           -1.24288764939823        1.30389372357346       -1.69261081321319
C            0.05666728608837        1.20182606015081       -0.98855772234590
N            0.65078317156273       -0.00126068150474       -0.63445064088354
C            2.01980015225718       -0.02588844945851       -0.22886285244481
C            2.96976185452932       -0.52880385427794       -1.34365848365737
C            4.39318352433280       -0.44071525106146       -0.89056469194749