25
 energy: -42.196078269076 gnorm: 0.009598570009 xtb: 6.6.1 (8d0f1dd)
C            3.21060592886768        0.93793259638922       -0.08990926760058
N            2.29317233983498       -0.02619923162216       -0.03446129920369
C            2.52665201353993       -1.37202827286436        0.01632138139338
N            1.33041334822569       -2.04056863745272        0.06522891269700
C            0.33430025157454       -1.14049853243381        0.04598626147792
C            0.90474068149775        0.14686522900898       -0.01820093313626
C            0.07632470080988        1.24516930232510       -0.05042401507821
O            2.80300090137267        2.22021242024717       -0.14349087091669
N           -1.27279753296992        1.02210452989886       -0.01699857340573
C           -2.15827330840779        2.17082026555579       -0.06939664352679
C           -1.87426138965998       -0.23091221698648        0.04294924468846
O           -3.06539862258988       -0.37954456471891        0.06686987505848
N           -1.00747986504987       -1.33492650394198        0.07828424984381
C           -1.56282913204038       -2.67025939030401        0.14403240515058
H            4.25164736242190        0.66187605865486       -0.09749672959427
H            3.53244259285295        2.84371021932330       -0.17246493787949
H            0.41162501642685        2.26508979450066       -0.09986984429882
H            3.49183529406591       -1.82463290485209        0.02133884590371
H           -1.86669073164839        2.90177084285321        0.68382719341407
H           -2.12018437347538        2.63322536092340       -1.05752304781580
H           -3.17524079837339        1.83281504085264        0.12403233840554
H           -1.23086340419731       -3.17476968271603        1.05215172356116
H           -1.26907110722274       -3.24795319843932       -0.73348549285475
H           -2.64759026219467       -2.57731956005423        0.16295071297116
H            1.24435161043880       -3.04374042254699        0.11092012864510
