25
 energy: -42.104610250978 gnorm: 0.003538193664 xtb: 6.6.1 (8d0f1dd)
C            3.28215295010727        1.09609026948569        0.00009653519532
N            2.33123921283842        0.01716135434470       -0.00904663430862
C            2.59984152053771       -1.28519968671532       -0.04006418865587
N            1.44567087339107       -1.99284348545308       -0.01307485061930
C            0.40931820023688       -1.10943174651904        0.03920124044216
C            0.96175783292925        0.16575605334410        0.04243202817982
C            0.16207733026942        1.35156399383115        0.07299968530508
O            0.53873138660253        2.50206055833977        0.03299225315231
N           -1.23839390509760        1.03477899979691        0.16681752413532
C           -2.09454431888853        2.06362437912554        0.24794773916154
C           -1.80469668183378       -0.27134891278966        0.15817671968617
O           -2.99163300605913       -0.43733968320945        0.21581312727361
N           -0.91798268940591       -1.34399603935714        0.07548465376542
C           -1.45069618537638       -2.69384958831881        0.04513237111496
H            3.77427773397976        1.15895490704020        0.97208023663552
H            4.03853350443463        0.94053349129352       -0.76780022127843
H            2.75318663665748        2.03040845961262       -0.18493322475123
H            3.58024827481010       -1.71576069715581       -0.08112234541231
H           -1.68179833649132        3.05675651014279        0.23600477141833
H           -3.97718998159281        3.47111443428378       -1.57842004260770
H           -3.14618966268144        1.85827813610804        0.32056950235235
H           -1.12358550181205       -3.25332667240276        0.92185222554204
H           -1.13707663307742       -3.20270188200761       -0.86641923590143
H           -2.53712835862258       -2.62247211514143        0.05661236326278
H            1.38431131824757       -3.00057249606100       -0.03216061517897
