25
 energy: -43.835261216727 gnorm: 0.078123340949 xtb: 6.6.1 (8d0f1dd)
C            3.25095342943559        1.17466266172785        0.09100303636203
N            2.30409582311956        0.10071420754153        0.03543640804706
C            2.59150748150118       -1.24443502613354        0.03005883527985
N            1.40235249449514       -1.93796558908900        0.00110956114219
C            0.37629591955383       -1.02954576954198       -0.00911503660337
C            0.91755702724514        0.23787072478256        0.01241801049845
C            0.09423416278191        1.39599548717574       -0.02073251538377
O            0.49697369467431        2.56979152209360       -0.00554915588803
N           -1.28877967064139        1.05056667144575       -0.03256559590439
C           -2.20863781810597        2.18624930773069       -0.04911719858422
C           -1.86062991583050       -0.19144844281868       -0.04909121118242
O           -3.05431936197134       -0.37832553203504       -0.07058923543678
N           -0.98269414895273       -1.28986352192918       -0.03747658468331
C           -1.37569306189933       -2.69456266342522       -0.05770152786072
H            3.75784270113958        1.21466096961477        1.06388919841686
H            4.00682993177933        1.08372563748287       -0.69546653476953
H            2.70339164857622        2.10956806744233       -0.06562873040892
H            3.56903888404899       -1.67662108067538        0.04294849060946
H           -1.62875883700389        3.07904128433251       -0.02401953025739
H           -2.82285600177505        2.13798029176814       -0.95495961413192
H           -2.87595671542168        2.11654349326318        0.81686734371239
H           -1.06402494560661       -3.22508587215693        0.83042091127613
H           -1.03785006557205       -3.20850975896786       -0.94250926961674
H           -2.51022724134845       -2.65771607034211       -0.07932964184116
H            1.29049689176578       -2.93901306252575       -0.01195278884509
25
 energy: -43.838490683082 gnorm: 0.027276163401 xtb: 6.6.1 (8d0f1dd)
C            3.25081514722247        1.17875952020021        0.08925179038492
N            2.30893258394204        0.10526334894753        0.03172679452776
C            2.59345692742824       -1.24636607499707        0.02976593407656
N            1.40170310096899       -1.93359921130067        0.00167183908799
C            0.38678444441963       -1.03535719873207       -0.00931895313040
C            0.92149649157673        0.23868312912194        0.01186870675381
C            0.09884149429299        1.39129319067416       -0.01398355800401
O            0.47992558600491        2.56896213676305       -0.01023453286034
N           -1.28418977912854        1.04397998784893       -0.03283757772965
C           -2.21498567186436        2.16720077580767       -0.04992018977848
C           -1.84608038367487       -0.19945500568780       -0.04921419315399
O           -3.04358891846215       -0.39009102507709       -0.07173615470159
N           -0.96017767225385       -1.29259846205369       -0.03716833978957
C           -1.40446733654302       -2.67229442343816       -0.05804251568597
H            3.75622464368998        1.21137700628806        1.06049626292723
H            4.00496668768386        1.07771433708331       -0.69589205120194
H            2.70023219983325        2.10932157263024       -0.05710734214631
H            3.56544511127010       -1.68124840731290        0.04269962493984
H           -1.62356081270522        3.07157768012528       -0.02304076281812
H           -2.82543691306669        2.13178135751176       -0.95474302248724
H           -2.87873427172700        2.11079768077054        0.81517872739219
H           -1.07633017921062       -3.20003907779181        0.83508933159275
H           -1.04704144380562       -3.18397453422062       -0.94844782748886
H           -2.50813347820106       -2.65408116654223       -0.07720266768025
H            1.29504474829737       -2.93332919985770       -0.01051169907970
25
 energy: -43.838700462675 gnorm: 0.016998178079 xtb: 6.6.1 (8d0f1dd)
C            3.24593239282707        1.17880995644072        0.08926431623602
N            2.30290645104568        0.10605241818883        0.03184181134305
C            2.58572526651658       -1.24947306397314        0.03280423986022
N            1.38971571833461       -1.93181771224616        0.00115805534075
C            0.38016509695837       -1.04052713710806       -0.01058746014060
C            0.91369787723420        0.23806086760158        0.00943310748297
C            0.10109285753904        1.39112717035714       -0.01504305299216
O            0.48118188105547        2.56723959223311       -0.00740767195552
N           -1.28764454301401        1.04990835095803       -0.03480509458543
C           -2.21426183647997        2.17524002092898       -0.04901334475857
C           -1.84892181312407       -0.19664382307753       -0.04942553540260
O           -3.05019371077711       -0.38079676929619       -0.06912823278746
N           -0.95890549947305       -1.29736821127509       -0.03808863525092
C           -1.40284820102460       -2.67882634319598       -0.05793360255718
H            3.74955698093139        1.21647428258191        1.06131072693713
H            4.00379760891163        1.07536510974718       -0.69124887128714
H            2.69911233745858        2.10713394500654       -0.06600565632788
H            3.55719262481883       -1.68182775293112        0.04469165508627
H           -1.61801898198913        3.08752456740963       -0.02352866427731
H           -2.82217423863832        2.15001073632154       -0.95283445198621
H           -2.87226283147860        2.12939021001501        0.81807043324625
H           -1.05662814030305       -3.21974235276399        0.82997704241763
H           -1.02827682804436       -3.20415775297882       -0.94346748325243
H           -2.48802254605545       -2.67440444328740       -0.07863685959292
H            1.28922438275782       -2.93247392889587       -0.01304914684933
25
 energy: -43.839013352939 gnorm: 0.009325690277 xtb: 6.6.1 (8d0f1dd)
C            3.25162528511002        1.17882166046599        0.09054781286759
N            2.30675561975965        0.10658984355737        0.03279376983726
C            2.59197384384162       -1.24819199733368        0.03102208520526
N            1.39504852375616       -1.93127206417911        0.00209794004584
C            0.38212663356476       -1.04090021547537       -0.00885354788822
C            0.91622394827222        0.23860123409063        0.01106653100065
C            0.10447140365486        1.39209898873535       -0.01510243404038
O            0.48625294343266        2.56802859089816       -0.00681482044104
N           -1.28701181709179        1.05034076751481       -0.03444654276712
C           -2.21883225224510        2.16875685115489       -0.05059620528505
C           -1.84910841759600       -0.19518519010385       -0.04864855610823
O           -3.04947974487716       -0.37938074071233       -0.07046359491702
N           -0.95922541816015       -1.29607735250779       -0.03670090101950
C           -1.40957657404634       -2.67567912925833       -0.05708525639060
H            3.76103720582421        1.21208479528492        1.06071091053944
H            4.00609437210909        1.08233090382178       -0.69480700414223
H            2.70527799625214        2.10898669736935       -0.05871060035629
H            3.56624498445640       -1.67693407233980        0.03972880100944
H           -1.63042439087174        3.08347148459405       -0.02411298221538
H           -2.82345083875362        2.13333658954308       -0.95638047414070
H           -2.87783606425384        2.11240449601580        0.81523668210930
H           -1.07182103364346       -3.22156428219352        0.83093614301138
H           -1.04434797807392       -3.20513757195136       -0.94350868651091
H           -2.49914992323832       -2.64798667031830       -0.07789528675083
H            1.29827399880521       -2.93326567991190       -0.01166615870599
25
 energy: -43.839097894148 gnorm: 0.007311915976 xtb: 6.6.1 (8d0f1dd)
C            3.24891969222393        1.17780993187456        0.08924427712276
N            2.30605718304014        0.10485893281220        0.03210041554396
C            2.59195320720097       -1.24927568085310        0.03276459235874
N            1.39534353404763       -1.93197226251559        0.00216434333290
C            0.38171628680935       -1.03924574699620       -0.00998707060434
C            0.91603591803908        0.23904477040524        0.00993403673714
C            0.10234872808014        1.39178743662051       -0.01701334287463
O            0.48141502824153        2.56900316944094       -0.01018300190758
N           -1.28894226395010        1.04761053301599       -0.03421244330744
C           -2.21522599394790        2.16927869460197       -0.04846408569055
C           -1.85148832907921       -0.19666374413455       -0.04938368656469
O           -3.04975032872068       -0.38493065876458       -0.07137714908191
N           -0.96120186275691       -1.29428205774230       -0.03810215229223
C           -1.40528472517097       -2.67359772616986       -0.05847692666970
H            3.75357780057135        1.21329924862355        1.06177969368696
H            4.00485029290052        1.07848057809419       -0.69499159414820
H            2.69975117467916        2.10730036767602       -0.06267743779568
H            3.56619898049570       -1.67906665294711        0.04516609788206
H           -1.61887323115654        3.07496458179596       -0.02206494152670
H           -2.82299025930523        2.13774063959859       -0.95325732293642
H           -2.87439497497231        2.11572875240666        0.81837001687554
H           -1.06610684256824       -3.20920242510899        0.83258030891305
H           -1.03800085803519       -3.19332469872903       -0.94706535744552
H           -2.50233760507120       -2.65681800732983       -0.07843641735711
H            1.29757175439255       -2.93425003891439       -0.01006322830378
25
 energy: -43.839152339961 gnorm: 0.003222709692 xtb: 6.6.1 (8d0f1dd)
C            3.24974178301059        1.17788787155802        0.09025109148202
N            2.30622403291812        0.10527102895092        0.03244768440865
C            2.59063122264901       -1.24964254493121        0.03016191454179
N            1.39368625992371       -1.93135813794739        0.00039322722939
C            0.38176561413987       -1.03934288519755       -0.00919619724494
C            0.91603332066090        0.23957569576728        0.01181563215745
C            0.10384057245053        1.39237758409768       -0.01317442561974
O            0.48223652304524        2.56937681028597       -0.00606869239271
N           -1.28848808927969        1.04907156033800       -0.03307874797002
C           -2.21633288597911        2.17073596931321       -0.05100003672878
C           -1.84981193037525       -0.19603158762014       -0.04815270466473
O           -3.04824972980607       -0.38413177453097       -0.07025982993480
N           -0.95969363246715       -1.29512498374862       -0.03661314018040
C           -1.40474661707982       -2.67518376837430       -0.05687467872809
H            3.75641260976208        1.21212875141363        1.06152473195574
H            4.00502305423187        1.07852562815305       -0.69427882017530
H            2.70216110453033        2.10839211632332       -0.05934094611977
H            3.56385234715273       -1.68017764713007        0.03936810429746
H           -1.62438872781949        3.08079971463372       -0.02508078038054
H           -2.82309910306195        2.13868544910274       -0.95621852630492
H           -2.87780803330726        2.11945269497580        0.81388937128913
H           -1.06677935003077       -3.21417377877748        0.83325373959555
H           -1.03818592209981       -3.19828408942806       -0.94452973091668
H           -2.49865653186132       -2.66110678467204       -0.07717481290485
H            1.29577441468025       -2.93344495579466       -0.01371580274426
25
 energy: -43.839129534593 gnorm: 0.004618907099 xtb: 6.6.1 (8d0f1dd)
C            3.24929013401504        1.17904323637486        0.08904170921429
N            2.30629764233675        0.10566743495747        0.03211829361447
C            2.59061924018441       -1.24944098783827        0.03378034114635
N            1.39360982662773       -1.93130352235127        0.00319388631713
C            0.38189269604174       -1.04061184724135       -0.01015238134548
C            0.91594433560591        0.23899671757578        0.00930782375086
C            0.10556476312306        1.39174666926725       -0.01765531795910
O            0.48379674891320        2.56841958413131       -0.01038160039305
N           -1.28767069627524        1.04916836679765       -0.03535971924595
C           -2.21598999683935        2.17025907434606       -0.04802696037233
C           -1.84907654513207       -0.19576709805573       -0.05035276583555
O           -3.04810509025415       -0.38258265854007       -0.07066510546620
N           -0.95894149559966       -1.29620698828614       -0.03863672759109
C           -1.40654760333162       -2.67588457728871       -0.05890273314415
H            3.75540970650163        1.21584549547506        1.06046798782514
H            4.00570942188935        1.07937265663304       -0.69411552518532
H            2.70183517885946        2.10872335842349       -0.06352219953108
H            3.56393203341026       -1.67891421979829        0.04619957453280
H           -1.62550109452715        3.08246194307709       -0.02161768873708
H           -2.82481585103398        2.13947623911200       -0.95172957258085
H           -2.87407651984919        2.11610272817372        0.81912460831231
H           -1.06950136428391       -3.21854708730554        0.83012963465501
H           -1.04133351522872       -3.20226771314615       -0.94596416173120
H           -2.49795691164606       -2.65599869050153       -0.07950117801103
H            1.29675726248015       -2.93348017723088       -0.00843259829227
25
 energy: -43.839173231930 gnorm: 0.001309736368 xtb: 6.6.1 (8d0f1dd)
C            3.24922362090914        1.17820003787218        0.08999868476648
N            2.30597786761637        0.10533771994054        0.03224396541626
C            2.59077587416641       -1.24938028058314        0.03155699966484
N            1.39380593056262       -1.93130720651321        0.00136586266950
C            0.38141485376265       -1.04012337801744       -0.00962962310651
C            0.91555716400801        0.23915318420146        0.01055801023924
C            0.10447923142281        1.39174695996376       -0.01553087643745
O            0.48232299883893        2.56868887059367       -0.00827754404907
N           -1.28869696788585        1.04854564966199       -0.03407305665200
C           -2.21576787092735        2.16986043175528       -0.04973731194163
C           -1.85062900294847       -0.19582131889725       -0.04891261849975
O           -3.04942717836709       -0.38310335305918       -0.07052116158192
N           -0.96008971780630       -1.29540808445023       -0.03735226556448
C           -1.40573562769725       -2.67495081709462       -0.05753351202413
H            3.75562395538403        1.21286573776178        1.06151028335192
H            4.00487276060372        1.07964195161879       -0.69421044578723
H            2.70132118316571        2.10807800593172       -0.06080218214008
H            3.56458406857646       -1.67861474530742        0.04215557755045
H           -1.62262833705632        3.07945470832808       -0.02342394292297
H           -2.82247486678534        2.13781658563360       -0.95503758045406
H           -2.87556289306762        2.11687691137341        0.81644596117792
H           -1.06665605818354       -3.21478664392734        0.83204196609957
H           -1.03907029025047       -3.19877159990078       -0.94503134464914
H           -2.49904746757309       -2.65615430668400       -0.07762803168911
H            1.29696907551938       -2.93356708344077       -0.01182818949001
25
 energy: -43.839159888269 gnorm: 0.002617959075 xtb: 6.6.1 (8d0f1dd)
C            3.25056911477362        1.17759720618378        0.08905943318262
N            2.30679802251379        0.10507552514656        0.03253226512662
C            2.59110745325566       -1.24976324280937        0.03219020253930
N            1.39411573727312       -1.93124791425898        0.00226607720287
C            0.38191230406985       -1.03941467773586       -0.00905603231759
C            0.91623302323873        0.23979421059189        0.01139833876199
C            0.10481196310662        1.39259752191654       -0.01437784466594
O            0.48238345214947        2.56971870923655       -0.00703551584501
N           -1.28887299158446        1.04915552656841       -0.03356527792458
C           -2.21707886697164        2.17041024776035       -0.04953276302717
C           -1.85005111500646       -0.19546519083277       -0.04904247885314
O           -3.04833360048665       -0.38403809952134       -0.07121723214440
N           -0.95980991348168       -1.29495498461163       -0.03737241163950
C           -1.40527172345807       -2.67489573413408       -0.05823776510313
H            3.75690707990214        1.21340113088954        1.06052204421263
H            4.00613337588377        1.07710912110525       -0.69517622365325
H            2.70329095056208        2.10795725986729       -0.06243677964575
H            3.56464523456664       -1.67998828466364        0.04266987207596
H           -1.62583466162452        3.08061963392679       -0.02365964719989
H           -2.82540294199763        2.13860006996150       -0.95386185633068
H           -2.87764925794799        2.11791848182117        0.81615289768624
H           -1.06826446586122       -3.21382837925362        0.83211007887175
H           -1.03806891291360       -3.19768521427550       -0.94568105799317
H           -2.49975640229307       -2.66089591000254       -0.07964530109672
H            1.29662944831904       -2.93349907611544       -0.01065539827342
25
 energy: -43.839173632603 gnorm: 0.001206180975 xtb: 6.6.1 (8d0f1dd)
C            3.24962645829579        1.17819435843652        0.08978546832825
N            2.30654502335625        0.10511962122483        0.03229052819010
C            2.59101671251426       -1.24970615926075        0.03168613544018
N            1.39410502111055       -1.93138125483251        0.00150839659851
C            0.38187365107022       -1.03988530142185       -0.00966840644720
C            0.91604806964305        0.23943507345871        0.01069091201080
C            0.10510738321704        1.39219991160226       -0.01529573790924
O            0.48261577367386        2.56925882494493       -0.00816237068449
N           -1.28859595631425        1.04883930144741       -0.03400835223259
C           -2.21613660070565        2.17039576666325       -0.04965660217685
C           -1.84992712096985       -0.19567358099273       -0.04905035803080
O           -3.04833590813962       -0.38397046219924       -0.07056396843800
N           -0.95968759625285       -1.29539429894268       -0.03752295365522
C           -1.40556762110537       -2.67520364829580       -0.05777718387000
H            3.75571315531127        1.21364414925703        1.06137515840262
H            4.00540546807078        1.07894338153225       -0.69430474401994
H            2.70175218447799        2.10826405412337       -0.06112427442948
H            3.56459551366445       -1.67962190163242        0.04238655216316
H           -1.62428139884785        3.08045441175081       -0.02361384762405
H           -2.82413220536479        2.13886535597443       -0.95417215275125
H           -2.87635022760968        2.11789041086576        0.81625685683006
H           -1.06799459238329       -3.21468503018860        0.83221461570217
H           -1.03956348292291       -3.19878076046546       -0.94537164665704
H           -2.49952924164008       -2.65928288205307       -0.07807909846748
H            1.29683984383826       -2.93364140423561       -0.01147530232558
25
 energy: -43.819729045637 gnorm: 0.144500714895 xtb: 6.6.1 (8d0f1dd)
C            3.25029026601958        1.16057134848037        0.09551006536019
N            2.29272817379037        0.11546801425802        0.01627228779921
C            2.57006338964446       -1.27687483862917        0.03047072254479
N            1.36617091096442       -1.93133470888881        0.00286208530666
C            0.34406751616947       -1.00571415838849       -0.00996771060781
C            0.89910018693757        0.26139294996689        0.00557155815965
C            0.07051519092653        1.41025353695362       -0.02546169528567
O            0.47141374249574        2.58272358844644       -0.01228095488354
N           -1.33080648210008        1.04754431098042       -0.03642746701112
C           -2.20086730663588        2.22573764987010       -0.04905346367919
C           -1.90416277113594       -0.18336060424199       -0.05131559797478
O           -3.10848934848309       -0.37645135749523       -0.07116992876211
N           -1.03911237200189       -1.28024602720735       -0.03760921954831
C           -1.27998402769915       -2.74014730732051       -0.05467327881953
H            3.79263902638032        1.19389413933879        1.05444864541387
H            3.97947141469287        1.07905804166194       -0.71610677241874
H            2.71389390820332        2.11481535110673       -0.03285721058362
H            3.55118472816558       -1.71373018411704        0.04418942569930
H           -1.58364439436677        3.07051905663855       -0.02175592423244
H           -2.81810262243054        2.18170544371217       -0.95550314818178
H           -2.87240306487215        2.15575562792999        0.81778574925517
H           -0.95084109417142       -3.23816830761149        0.83069878383723
H           -0.92274442506151       -3.22663268807037       -0.93089658245452
H           -2.46239278603166       -2.75773516012311       -0.08469161361160
H            1.20034340915577       -2.92330100068057       -0.00578788027745
25
 energy: -43.831768025867 gnorm: 0.047804727986 xtb: 6.6.1 (8d0f1dd)
C            3.24984433263466        1.16496870221573        0.08957964936953
N            2.29638851628189        0.11032285051261        0.01589002043491
C            2.56765402126263       -1.26373954472686        0.03160240027024
N            1.36810778225548       -1.92460535453014        0.00427932109991
C            0.36085543797778       -1.01593576779445       -0.00957449656528
C            0.90678780419652        0.25311657711111        0.00657981762419
C            0.08151667385371        1.39982899223031       -0.01933040033278
O            0.45791248543823        2.57650370855373       -0.01544063784729
N           -1.31270086573343        1.04312151393676       -0.03662449010863
C           -2.21343084251681        2.19644286730048       -0.04993203384231
C           -1.87683747821799       -0.19532613894209       -0.05097988495751
O           -3.07804845981335       -0.38691041199806       -0.07202794216939
N           -0.99494869071882       -1.28648951311834       -0.03698929123368
C           -1.34063352501181       -2.70741607992720       -0.05589910203853
H            3.78243255121943        1.18314276048814        1.04913557544685
H            3.98523832765117        1.07763651262428       -0.71544775423009
H            2.71109692258599        2.11012548560180       -0.02714831281139
H            3.53970768682859       -1.70127611057346        0.04298020220525
H           -1.59012087376432        3.07219012741566       -0.02087148089876
H           -2.82622532316896        2.17655370720996       -0.95438880257202
H           -2.87997315814508        2.15140087908637        0.81499732572396
H           -0.98103417907442       -3.20331038435772        0.83807404995187
H           -0.94717257443226       -3.19118270842463       -0.94117922520654
H           -2.45696176408214       -2.77430649289214       -0.08067032601634
H            1.21887636104920       -2.91911346043194       -0.00436330625232
25
 energy: -43.832452236516 gnorm: 0.028620346169 xtb: 6.6.1 (8d0f1dd)
C            3.24169037681535        1.16453079621519        0.09118550947447
N            2.28532581392729        0.10278832540469        0.02287911073873
C            2.55187236832415       -1.26309054101829        0.03412965106616
N            1.34636618328979       -1.92164823224151        0.00291422594335
C            0.34881326444148       -1.01992256221000       -0.01143316799952
C            0.89424517186730        0.25092434523071        0.00510422839448
C            0.07565564482681        1.39859462240282       -0.02151100565391
O            0.44624482505603        2.57678053315975       -0.01466423977024
N           -1.31925155186427        1.04739436738783       -0.03876954667177
C           -2.21244138811623        2.19945572456585       -0.04933513407688
C           -1.88919471537524       -0.19817655224024       -0.05145785911096
O           -3.09119115208084       -0.38105608726633       -0.06955902728020
N           -0.98796717854712       -1.29311845935263       -0.03821853420948
C           -1.33159079025938       -2.70944180671111       -0.05521660069661
H            3.78014689750917        1.18739318465769        1.04699771233401
H            3.97446076850180        1.07050614665423       -0.71444233129131
H            2.70767381471728        2.10623529342895       -0.03135004303218
H            3.51982425955274       -1.71136866368353        0.04396962325015
H           -1.57098874418049        3.08093555968740       -0.02088297466595
H           -2.81621726596017        2.19750100382088       -0.95581294795377
H           -2.86777488043884        2.17225705722464        0.82009757799081
H           -0.94175249853774       -3.22337632873435        0.83380862552560
H           -0.90943230652855       -3.21255639497693       -0.93503890913781
H           -2.41066120761254       -2.75761048427000       -0.08348272580248
H            1.20447545922812       -2.91818813056579       -0.00766034232081
25
 energy: -43.833412084064 gnorm: 0.012040746989 xtb: 6.6.1 (8d0f1dd)
C            3.25064376994773        1.16876468140323        0.09243490447804
N            2.29426385453952        0.10564299671404        0.02087359307853
C            2.56638105244437       -1.26067316215652        0.03067992483374
N            1.35794492777065       -1.92089273525646        0.00295039609313
C            0.35303457931840       -1.02015310200985       -0.01150473318613
C            0.90046942994892        0.25309603403488        0.00373922095015
C            0.08215299977228        1.40146495176879       -0.02093416440704
O            0.45799597937289        2.57904654817744       -0.01352968969310
N           -1.31653131353252        1.05011157177994       -0.03773948047580
C           -2.21753416182770        2.19381945949362       -0.05023876639824
C           -1.88982168304165       -0.19407232680317       -0.05066828520061
O           -3.09145291457043       -0.37528292956534       -0.07098262395152
N           -0.99011081620635       -1.29186997301456       -0.03733303233937
C           -1.34750833692918       -2.70800170025701       -0.05475437375902
H            3.78973380465228        1.18886676717556        1.04923610124785
H            3.98338422569935        1.07992155065611       -0.71423693277154
H            2.71536698875791        2.11126767226128       -0.02778946279694
H            3.53837662721662       -1.70730160833462        0.04100580795920
H           -1.58825590468137        3.08012823383328       -0.02132029501852
H           -2.81957894419661        2.17723213592281       -0.95727554901361
H           -2.87448206572854        2.15187677330419        0.81705199387325
H           -0.96775676196167       -3.23092635869960        0.83197539545516
H           -0.93815826784529       -3.21928175676902       -0.93392502175951
H           -2.44105365447199       -2.74848811824246       -0.08096578438668
H            1.22082775410829       -2.91855288884663       -0.00449826776756
25
 energy: -43.833427551357 gnorm: 0.012098160220 xtb: 6.6.1 (8d0f1dd)
C            3.24766527360916        1.16595068717959        0.08948157641820
N            2.29299581100072        0.10433545096342        0.01847289083014
C            2.56603598726347       -1.26344794693480        0.03268950221684
N            1.35711005537486       -1.92270421608615        0.00418176729648
C            0.35230934000253       -1.01809813162142       -0.01030699805050
C            0.90001744735137        0.25455299674085        0.00393463772116
C            0.08118307756219        1.40200501347795       -0.02059926792112
O            0.45715638511086        2.57960535517052       -0.01532028390797
N           -1.31836021578667        1.04973498246178       -0.03706229483153
C           -2.21435337714729        2.19761778065046       -0.04869512702967
C           -1.89142934081729       -0.19315111702502       -0.05098235861930
O           -3.09078465193687       -0.37970395350224       -0.07216215631641
N           -0.99294319009769       -1.28894519350949       -0.03741448318829
C           -1.33967455732456       -2.70432368924671       -0.05622804380449
H            3.78065704170964        1.18387709406787        1.04952509125052
H            3.98137303340194        1.07449145988792       -0.71637072753509
H            2.70841151103225        2.10761451570169       -0.03145841384157
H            3.53776650854545       -1.70966248552680        0.04641019256595
H           -1.58144004546995        3.07634199066967       -0.02028620195422
H           -2.82160842655597        2.18564968356369       -0.95346236106129