      -----------------------------------------------------------      
     |                   =====================                   |     
     |                           x T B                           |     
     |                   =====================                   |     
     |                         S. Grimme                         |     
     |          Mulliken Center for Theoretical Chemistry        |     
     |                    University of Bonn                     |     
      -----------------------------------------------------------      

   * xtb version 6.6.1 (8d0f1dd) compiled by 'conda@1efc2f54142f' on 2023-08-01

   xtb is free software: you can redistribute it and/or modify it under
   the terms of the GNU Lesser General Public License as published by
   the Free Software Foundation, either version 3 of the License, or
   (at your option) any later version.
   
   xtb is distributed in the hope that it will be useful,
   but WITHOUT ANY WARRANTY; without even the implied warranty of
   MERCHANTABILITY or FITNESS FOR A PARTICULAR PURPOSE.  See the
   GNU Lesser General Public License for more details.
   
   Cite this work as:
   * C. Bannwarth, E. Caldeweyher, S. Ehlert, A. Hansen, P. Pracht,
     J. Seibert, S. Spicher, S. Grimme, WIREs Comput. Mol. Sci., 2020, 11,
     e01493. DOI: 10.1002/wcms.1493
   
   for GFN2-xTB:
   * C. Bannwarth, S. Ehlert and S. Grimme., J. Chem. Theory Comput., 2019,
     15, 1652-1671. DOI: 10.1021/acs.jctc.8b01176
   for GFN1-xTB:
   * S. Grimme, C. Bannwarth, P. Shushkov, J. Chem. Theory Comput., 2017,
     13, 1989-2009. DOI: 10.1021/acs.jctc.7b00118
   for GFN0-xTB:
   * P. Pracht, E. Caldeweyher, S. Ehlert, S. Grimme, ChemRxiv, 2019, preprint.
     DOI: 10.26434/chemrxiv.8326202.v1
   for GFN-FF:
   * S. Spicher and S. Grimme, Angew. Chem. Int. Ed., 2020, 59, 15665-15673.
     DOI: 10.1002/anie.202004239
   
   for ALPB and GBSA implicit solvation:
   * S. Ehlert, M. Stahn, S. Spicher, S. Grimme, J. Chem. Theory Comput.,
     2021, 17, 4250-4261. DOI: 10.1021/acs.jctc.1c00471
   
   for DFT-D4:
   * E. Caldeweyher, C. Bannwarth and S. Grimme, J. Chem. Phys., 2017,
     147, 034112. DOI: 10.1063/1.4993215
   * E. Caldeweyher, S. Ehlert, A. Hansen, H. Neugebauer, S. Spicher,
     C. Bannwarth and S. Grimme, J. Chem. Phys., 2019, 150, 154122.
     DOI: 10.1063/1.5090222
   * E. Caldeweyher, J.-M. Mewes, S. Ehlert and S. Grimme, Phys. Chem. Chem. Phys.
     2020, 22, 8499-8512. DOI: 10.1039/D0CP00502A
   
   for sTDA-xTB:
   * S. Grimme and C. Bannwarth, J. Chem. Phys., 2016, 145, 054103.
     DOI: 10.1063/1.4959605
   
   in the mass-spec context:
   * V. Asgeirsson, C. Bauer and S. Grimme, Chem. Sci., 2017, 8, 4879.
     DOI: 10.1039/c7sc00601b
   * J. Koopman and S. Grimme, ACS Omega 2019, 4, 12, 15120-15133.
     DOI: 10.1021/acsomega.9b02011
   
   for metadynamics refer to:
   * S. Grimme, J. Chem. Theory Comput., 2019, 155, 2847-2862
     DOI: 10.1021/acs.jctc.9b00143
   
   for SPH calculations refer to:
   * S. Spicher and S. Grimme, J. Chem. Theory Comput., 2021, 17, 1701-1714
     DOI: 10.1021/acs.jctc.0c01306
   
   with help from (in alphabetical order)
   P. Atkinson, C. Bannwarth, F. Bohle, G. Brandenburg, E. Caldeweyher
   M. Checinski, S. Dohm, S. Ehlert, S. Ehrlich, I. Gerasimov, C. Hölzer
   A. Katbashev, J. Koopman, C. Lavigne, S. Lehtola, F. März, M. Müller,
   F. Musil, H. Neugebauer, J. Pisarek, C. Plett, P. Pracht, F. Pultar,
   J. Seibert, P. Shushkov, S. Spicher, M. Stahn, M. Steiner, T. Strunk,
   J. Stückrath, T. Rose, and J. Unsleber
   
 * started run on 2024/04/06 at 11:15:29.193     

           -------------------------------------------------
          |                Calculation Setup                |
           -------------------------------------------------

          program call               : xtb xtbopt.xyz --opt crude --input .xc2 --gfn2
          hostname                   : n-62-30-23
          coordinate file            : xtbopt.xyz
          omp threads                :                     1

   ID    Z sym.   atoms
    1    7 N      1, 17
    2    6 C      2-6, 8, 9, 11-16, 18-23, 25, 26, 28-33
    3    8 O      7, 10, 24, 27
    4    1 H      34-72
########################################################################
[WARNING] Please study the warnings concerning your input carefully
-1- readin_getIntValue: could not parse ''
########################################################################

           -------------------------------------------------
          |                 G F N 2 - x T B                 |
           -------------------------------------------------

        Reference                      10.1021/acs.jctc.8b01176
      * Hamiltonian:
        H0-scaling (s, p, d)           1.850000    2.230000    2.230000
        zeta-weighting                 0.500000
      * Dispersion:
        s8                             2.700000
        a1                             0.520000
        a2                             5.000000
        s9                             5.000000
      * Repulsion:
        kExp                           1.500000    1.000000
        rExp                           1.000000
      * Coulomb:
        alpha                          2.000000
        third order                    shell-resolved
        anisotropic                    true
        a3                             3.000000
        a5                             4.000000
        cn-shift                       1.200000
        cn-exp                         4.000000
        max-rad                        5.000000

q/qsh data taken from xtbrestart
CAMM data taken from xtbrestart

          ...................................................
          :                      SETUP                      :
          :.................................................:
          :  # basis functions                 171          :
          :  # atomic orbitals                 171          :
          :  # shells                          105          :
          :  # electrons                       180          :
          :  max. iterations                   250          :
          :  Hamiltonian                  GFN2-xTB          :
          :  restarted?                       true          :
          :  GBSA solvation                  false          :
          :  PC potential                    false          :
          :  electronic temp.         5000.0000000     K    :
          :  accuracy                    1.0000000          :
          :  -> integral cutoff          0.2500000E+02      :
          :  -> integral neglect         0.1000000E-07      :
          :  -> SCF convergence          0.1000000E-05 Eh   :
          :  -> wf. convergence          0.1000000E-03 e    :
          :  Broyden damping             0.4000000          :
          ...................................................

 iter      E             dE          RMSdq      gap      omega  full diag
   1   -100.7329035 -0.100733E+03  0.134E-05    0.76       0.0  T
   2   -100.7329035  0.787281E-11  0.132E-05    0.76     895.7  T
   3   -100.7329035 -0.180478E-11  0.114E-05    0.76    1035.2  T

   *** convergence criteria satisfied after 3 iterations ***

         #    Occupation            Energy/Eh            Energy/eV
      -------------------------------------------------------------
         1        2.0000           -0.8185586             -22.2741
       ...           ...                  ...                  ...
        84        1.9899           -0.5133975             -13.9703
        85        1.9684           -0.4952162             -13.4755
        86        1.9606           -0.4916486             -13.3784
        87        1.8868           -0.4743336             -12.9073
        88        1.8044           -0.4649611             -12.6522
        89        1.7672           -0.4618806             -12.5684
        90        1.6907           -0.4566776             -12.4268 (HOMO)
        91        0.9716           -0.4288822             -11.6705 (LUMO)
        92        0.0095           -0.3451292              -9.3914
        93        0.0026           -0.3245724              -8.8321
        94        0.0015           -0.3153614              -8.5814
        95        0.0013           -0.3134622              -8.5297
       ...           ...                  ...                  ...
       171                          1.5052777              40.9607
      -------------------------------------------------------------
                  HL-Gap            0.0277954 Eh            0.7564 eV
             Fermi-level           -0.4297831 Eh          -11.6950 eV

 SCC (total)                   0 d,  0 h,  0 min,  0.121 sec
 SCC setup                      ...        0 min,  0.001 sec (  0.814%)
 Dispersion                     ...        0 min,  0.002 sec (  1.415%)
 classical contributions        ...        0 min,  0.000 sec (  0.359%)
 integral evaluation            ...        0 min,  0.018 sec ( 15.194%)
 iterations                     ...        0 min,  0.028 sec ( 22.892%)
 molecular gradient             ...        0 min,  0.071 sec ( 58.791%)
 printout                       ...        0 min,  0.001 sec (  0.524%)

         :::::::::::::::::::::::::::::::::::::::::::::::::::::
         ::                     SUMMARY                     ::
         :::::::::::::::::::::::::::::::::::::::::::::::::::::
         :: total energy             -99.186419413247 Eh    ::
         :: gradient norm              1.062748829209 Eh/a0 ::
         :: HOMO-LUMO gap              0.756352101605 eV    ::
         ::.................................................::
         :: SCC energy              -100.732903458722 Eh    ::
         :: -> isotropic ES            0.102230878679 Eh    ::
         :: -> anisotropic ES          0.005508079945 Eh    ::
         :: -> anisotropic XC          0.042192948641 Eh    ::
         :: -> dispersion             -0.073619462512 Eh    ::
         :: repulsion energy           1.545374374284 Eh    ::
         :: add. restraining           0.000000000000 Eh    ::
         :: total charge               1.000000000005 e     ::
         :::::::::::::::::::::::::::::::::::::::::::::::::::::

      ----------------------------------------------------------- 
     |                   =====================                   |
     |                        A N C O P T                        |
     |                   =====================                   |
     |               Approximate Normal Coordinate               |
     |                Rational Function Optimizer                |
      ----------------------------------------------------------- 

          ...................................................
          :                      SETUP                      :
          :.................................................:
          :   optimization level             crude          :
          :   max. optcycles                   200          :
          :   ANC micro-cycles                  20          :
          :   degrees of freedom               210          :
          :.................................................:
          :   RF solver                   davidson          :
          :   write xtbopt.log                true          :
          :   linear?                        false          :
          :   energy convergence         0.5000000E-03 Eh   :
          :   grad. convergence          0.1000000E-01 Eh/α :
          :   maxmium RF displ.          1.0000000          :
          :   Hlow (freq-cutoff)         0.1000000E-01      :
          :   Hmax (freq-cutoff)         5.0000000          :
          :   S6 in model hess.         20.0000000          :
          ...................................................

generating ANC from model Hessian ...
Using Lindh-Hessian (1995)
 Shifting diagonal of input Hessian by    9.9505694880112124E-003
 Lowest  eigenvalues of input Hessian
    0.000000    0.000000    0.000000    0.000000    0.000000    0.000000
    0.010000    0.010003    0.010094    0.010182    0.010257    0.010612
    0.010639    0.010694    0.011018    0.011563    0.011715    0.012321
 Highest eigenvalues
    2.032809    2.044719    2.164270    2.184641    2.449677    2.709888


........................................................................
.............................. CYCLE    1 ..............................
........................................................................

 iter      E             dE          RMSdq      gap      omega  full diag
   1   -100.7329035 -0.100733E+03  0.765E-06    0.76       0.0  T
   2   -100.7329035  0.671037E-10  0.225E-05    0.76     523.5  T
   3   -100.7329035 -0.747065E-10  0.284E-06    0.76    4143.3  T
     SCC iter.                  ...        0 min,  0.026 sec
     gradient                   ...        0 min,  0.069 sec
 * total energy  :   -99.1864194 Eh     change       -0.1193712E-10 Eh
   gradient norm :     1.0627488 Eh/α   predicted     0.0000000E+00 (-100.00%)
   displ. norm   :     0.4217891 α      lambda       -0.4213842E+00
   maximum displ.:     0.2730944 α      in ANC's #210, #159, #209, ...

........................................................................
.............................. CYCLE    2 ..............................
........................................................................

 iter      E             dE          RMSdq      gap      omega  full diag
   1   -100.7194879 -0.100719E+03  0.264E-01    0.77       0.0  T
   2   -100.7197222 -0.234274E-03  0.146E-01    0.80       1.0  T
   3   -100.7158486  0.387356E-02  0.193E-01    0.64       1.0  T
   4   -100.7182583 -0.240972E-02  0.118E-01    0.88       1.0  T
   5   -100.7200209 -0.176263E-02  0.130E-02    0.77       1.0  T
   6   -100.7200281 -0.719964E-05  0.805E-03    0.78       1.5  T
   7   -100.7200336 -0.545665E-05  0.236E-03    0.77       5.0  T
   8   -100.7200338 -0.248130E-06  0.128E-03    0.78       9.2  T
   9   -100.7200340 -0.156059E-06  0.501E-04    0.78      23.5  T
  10   -100.7200340 -0.120122E-07  0.191E-04    0.78      61.8  T
     SCC iter.                  ...        0 min,  0.080 sec
     gradient                   ...        0 min,  0.069 sec
 * total energy  :   -99.3479881 Eh     change       -0.1615687E+00 Eh
   gradient norm :     0.0525236 Eh/α   predicted    -0.2481754E+00 (  53.60%)
   displ. norm   :     0.1889385 α      lambda       -0.5127560E-02
   maximum displ.:     0.0717952 α      in ANC's #11, #83, #12, ...

........................................................................
.............................. CYCLE    3 ..............................
........................................................................

 iter      E             dE          RMSdq      gap      omega  full diag
   1   -100.7148864 -0.100715E+03  0.638E-02    0.78       0.0  T
   2   -100.7148802  0.611995E-05  0.388E-02    0.77       1.0  T
   3   -100.7143747  0.505526E-03  0.622E-02    0.83       1.0  T
   4   -100.7148644 -0.489726E-03  0.152E-02    0.77       1.0  T
   5   -100.7148943 -0.298448E-04  0.182E-03    0.78       6.5  T
   6   -100.7148945 -0.190967E-06  0.108E-03    0.78      10.9  T
   7   -100.7148945 -0.394685E-07  0.560E-04    0.78      21.0  T
   8   -100.7148945 -0.218864E-07  0.144E-04    0.78      82.0  T
     SCC iter.                  ...        0 min,  0.066 sec
     gradient                   ...        0 min,  0.069 sec
 * total energy  :   -99.3500936 Eh     change       -0.2105481E-02 Eh
   gradient norm :     0.0384203 Eh/α   predicted    -0.1563565E-02 ( -25.74%)
   displ. norm   :     0.1651180 α      lambda       -0.4589776E-02
   maximum displ.:     0.0717902 α      in ANC's #11, #83, #12, ...

........................................................................
.............................. CYCLE    4 ..............................
........................................................................

 iter      E             dE          RMSdq      gap      omega  full diag
   1   -100.7115258 -0.100712E+03  0.444E-02    0.79       0.0  T
   2   -100.7115217  0.410814E-05  0.264E-02    0.78       1.0  T
   3   -100.7111909  0.330774E-03  0.480E-02    0.83       1.0  T
   4   -100.7115259 -0.334962E-03  0.893E-03    0.78       1.3  T
   5   -100.7115330 -0.710864E-05  0.194E-03    0.79       6.1  T
   6   -100.7115333 -0.257259E-06  0.992E-04    0.79      11.9  T
   7   -100.7115333 -0.529356E-07  0.439E-04    0.79      26.9  T
     SCC iter.                  ...        0 min,  0.058 sec
     gradient                   ...        0 min,  0.069 sec
 * total energy  :   -99.3512168 Eh     change       -0.1123194E-02 Eh
   gradient norm :     0.0226683 Eh/α   predicted    -0.8834123E-03 ( -21.35%)
   displ. norm   :     0.1091593 α      lambda       -0.1884466E-02
   maximum displ.:     0.0451701 α      in ANC's #11, #9, #12, ...

........................................................................
.............................. CYCLE    5 ..............................
........................................................................

 iter      E             dE          RMSdq      gap      omega  full diag
   1   -100.7110881 -0.100711E+03  0.327E-02    0.80       0.0  T
   2   -100.7110938 -0.569901E-05  0.182E-02    0.79       1.0  T
   3   -100.7110490  0.447265E-04  0.195E-02    0.81       1.0  T
   4   -100.7110555 -0.650035E-05  0.190E-02    0.78       1.0  T
   5   -100.7111005 -0.449427E-04  0.177E-03    0.79       6.7  T
   6   -100.7111006 -0.167392E-06  0.754E-04    0.79      15.6  T
   7   -100.7111007 -0.170259E-07  0.252E-04    0.79      46.7  T
     SCC iter.                  ...        0 min,  0.057 sec
     gradient                   ...        0 min,  0.074 sec
 * total energy  :   -99.3515751 Eh     change       -0.3583083E-03 Eh
   gradient norm :     0.0103072 Eh/α   predicted    -0.2665916E-03 ( -25.60%)
   displ. norm   :     0.1106591 α      lambda       -0.1002934E-02
   maximum displ.:     0.0420662 α      in ANC's #9, #11, #7, ...

........................................................................
.............................. CYCLE    6 ..............................
........................................................................

 iter      E             dE          RMSdq      gap      omega  full diag
   1   -100.7112633 -0.100711E+03  0.353E-02    0.80       0.0  T
   2   -100.7112688 -0.550587E-05  0.198E-02    0.79       1.0  T
   3   -100.7112277  0.411179E-04  0.191E-02    0.82       1.0  T
   4   -100.7112239  0.376893E-05  0.198E-02    0.78       1.0  T
   5   -100.7112744 -0.504995E-04  0.157E-03    0.80       7.5  T
   6   -100.7112745 -0.116254E-06  0.720E-04    0.80      16.4  T
   7   -100.7112746 -0.131208E-07  0.272E-04    0.80      43.3  T
     SCC iter.                  ...        0 min,  0.057 sec
     gradient                   ...        0 min,  0.075 sec
 * total energy  :   -99.3517274 Eh     change       -0.1522429E-03 Eh
   gradient norm :     0.0040103 Eh/α   predicted    -0.1116855E-03 ( -26.64%)
   displ. norm   :     0.1323848 α      lambda       -0.7382359E-03
   maximum displ.:     0.0538945 α      in ANC's #9, #11, #7, ...

   *** GEOMETRY OPTIMIZATION CONVERGED AFTER 6 ITERATIONS ***

------------------------------------------------------------------------
 total energy gain   :        -0.1653079 Eh     -103.7323 kcal/mol
 total RMSD          :         0.0860693 a0        0.0455 Å
 total power (kW/mol):       -72.3359914 (step) -447.0742 (real)
------------------------------------------------------------------------

 ANCopt (total)                0 d,  0 h,  0 min,  0.971 sec
 optimizer setup                ...        0 min,  0.000 sec (  0.026%)
 model hessian                  ...        0 min,  0.051 sec (  5.281%)
 ANC generation                 ...        0 min,  0.006 sec (  0.652%)
 coordinate transformation      ...        0 min,  0.000 sec (  0.040%)
 single point calculation       ...        0 min,  0.902 sec ( 92.917%)
 optimization log               ...        0 min,  0.003 sec (  0.324%)
 hessian update                 ...        0 min,  0.000 sec (  0.038%)
 rational function              ...        0 min,  0.004 sec (  0.389%)

================
 final structure:
================
72
 xtb: 6.6.1 (8d0f1dd)
N           -1.55716677041834        3.15076031622895        1.69566513605176
C           -2.32077803678810        2.16552494250144        1.59916678912619
C           -3.18611387350707        1.95313297793902        0.38590625364138
C           -3.64662182940239        0.51771607016899        0.38502298062444
C           -4.53651699971437        0.01468720733852       -0.57263189615734
C           -4.94700190189243       -1.30888124800955       -0.55022916930970
O           -5.81474413141312       -1.86547906011429       -1.41990996823436
C           -6.42562775038789       -1.05499026896922       -2.39710149130568
C           -4.45055216100719       -2.19750595653098        0.44698946581609
O           -4.90143194594934       -3.46030751836698        0.38008122481368
C           -4.51203837163746       -4.39290558846308        1.36103628807233
C           -3.55158927323939       -1.70132992716327        1.39478589320655
C           -3.20360758635309       -0.38530138085179        1.31336204643069
C           -2.40571085947403        2.27497034112599       -0.90954074725796
C           -1.44529009674087        1.17025128381834       -1.35210526697427
C           -0.33857549590237        0.90282061220735       -0.32931566189239
N            0.60556961649447       -0.08241284342318       -0.79545660899231
C            1.97211138516876        0.03946186681429       -0.35204600842397
C            2.96144493020451       -0.39199981114449       -1.45316812493112
C            4.37553860922229       -0.18504855253174       -0.99781180379790
C            5.02303844977701        1.02390676273469       -1.21980809491416
C            6.32026841992441        1.22937372343432       -0.78097571210929
C            7.00374231019339        0.22842824395785       -0.10119273790082
O            8.25805524116580        0.31439293632524        0.37079943392719
C            8.98860500588733        1.50529835809439        0.18536604249589
C            6.34959364566236       -1.01613233757388        0.13305875444959
O            7.08443066812073       -1.93065426604110        0.79048802416672
C            6.54111655503027       -3.20365496924292        1.04981709865763
C            5.04914105485155       -1.19538419176319       -0.31668199405168
C            0.08042674644821       -1.42348580423716       -0.85163451463891
C           -4.42841537518214        2.89442147144511        0.52177822292724
C           -5.14236632880910        2.65239574031261        1.85181314455502
C           -4.07181883551939        4.36900515155156        0.37574385148010
H           -4.90441882265428        0.68128150839323       -1.33601346504668
H           -6.99540157564997       -0.23947900176724       -1.94133333711719
H           -7.10542036637962       -1.71161534036745       -2.93637229364190
H           -5.69020375868450       -0.64386075582315       -3.09579811211459
H           -4.80417434969220       -4.06558090376710        2.36329927502349
H           -5.03883425580894       -5.31269488973855        1.11407636832665
H           -3.43311920278688       -4.57568064352268        1.33359946234225
H           -3.15305147097151       -2.34214154255649        2.16537331223966
H           -2.45951259221861        1.39121834788496        2.38158968965838
H           -3.12184018737120        2.44370511605280       -1.71506695425824
H           -1.84889253290840        3.19578114222957       -0.74331421980775
H           -2.00454376885800        0.25206293277695       -1.53443856082985
H           -0.97913903912168        1.47181586368235       -2.29162432329643
H           -0.80430492631267        0.56949286669871        0.61387012102057
H            0.18832906711838        1.83846555811281       -0.13394973915312
H            2.15923663323851       -0.56043849897954        0.55212929555309
H            2.16987011224728        1.08474743229646       -0.10705756665086
H            2.76195516156383        0.20359418445419       -2.34426237893905
H            2.80408289310510       -1.44177188417662       -1.70138359571199
H            4.51468544524005        1.81376412388246       -1.75088673812928
H            6.79806098246226        2.17535922731252       -0.97686137409968
H            8.49405692499635        2.35646436926042        0.66272947057991
H            9.14103253998687        1.71918920579553       -0.87665670347544
H            9.95225837112827        1.33370505037989        0.66129441500377
H            7.32426382410551       -3.75553120838962        1.56619692998065
H            5.65890319082752       -3.13891022314510        1.69426897784594
H            6.28124698811448       -3.72469569322909        0.12341966656729
H            4.54808178302393       -2.13582981330573       -0.14813405632452
H           -0.59080708178763       -1.52657025565353       -1.70446829906999
H           -0.48268997552476       -1.67327722608831        0.05768149879643
H            0.88850168058101       -2.13988165622842       -0.96775140358294
H           -5.11660094027789        2.62594904405675       -0.28637037461835
H           -4.54859837422261        3.02968359534908        2.68123636779949
H           -5.33019110399508        1.59221800175620        2.00984498240135
H           -6.09776047268799        3.17126051752237        1.85882799197002
H           -3.23554004175782        4.62789868476009        1.02087692028570
H           -3.80870155958719        4.61629994279910       -0.64868867182151
H           -4.92732264831497        4.97687736430974        0.65993573116174
H           -1.02409596797988        3.27019069789408        2.55017568417976

 Bond Distances (Angstroems)
 ---------------------------
N1-C2=1.2502         N1-H72=1.0142        C2-N1=1.2502         C2-C3=1.5053         C2-H42=1.1095        C3-C2=1.5053         
C3-C4=1.5075         C3-C14=1.5462        C3-C31=1.5645        C4-C3=1.5075         C4-C5=1.4007         C4-C13=1.3688        
C5-C4=1.4007         C5-C6=1.3859         C5-H34=1.0782        C6-C5=1.3859         C6-O7=1.3487         C6-C9=1.4250         
O7-C6=1.3487         O7-C8=1.4089         C8-O7=1.4089         C8-H35=1.0943        C8-H36=1.0882        C8-H37=1.0946        
C9-C6=1.4250         C9-O10=1.3425        C9-C12=1.3974        O10-C9=1.3425        O10-C11=1.4084       C11-O10=1.4084       
C11-H38=1.0941       C11-H39=1.0884       C11-H40=1.0946       C12-C9=1.3974        C12-C13=1.3637       C12-H41=1.0786       
C13-C4=1.3688        C13-C12=1.3637       C14-C3=1.5462        C14-C15=1.5293       C14-H43=1.0910       C14-H44=1.0888       
C15-C14=1.5293       C15-C16=1.5305       C15-H45=1.0904       C15-H46=1.0913       C16-C15=1.5305       C16-N17=1.4420       
C16-H47=1.1035       C16-H48=1.0914       N17-C16=1.4420       N17-C18=1.4418       N17-C30=1.4413       C18-N17=1.4418       
C18-C19=1.5419       C18-H49=1.1011       C18-H50=1.0917       C19-C18=1.5419       C19-C20=1.4999       C19-H51=1.0902       
C19-H52=1.0901       C20-C19=1.4999       C20-C21=1.3893       C20-C29=1.3923       C21-C20=1.3893       C21-C22=1.3848       
C21-H53=1.0790       C22-C21=1.3848       C22-C23=1.3897       C22-H54=1.0778       C23-C22=1.3897       C23-O24=1.3429       
C23-C26=1.4254       O24-C23=1.3429       O24-C25=1.4094       C25-O24=1.4094       C25-H55=1.0940       C25-H56=1.0940       
C25-H57=1.0884       C26-C23=1.4254       C26-O27=1.3448       C26-C29=1.3877       O27-C26=1.3448       O27-C28=1.4082       
C28-O27=1.4082       C28-H58=1.0884       C28-H59=1.0944       C28-H60=1.0942       C29-C20=1.3923       C29-C26=1.3877       
C29-H61=1.0788       C30-N17=1.4413       C30-H62=1.0902       C30-H63=1.0983       C30-H64=1.0861       C31-C3=1.5645        
C31-C32=1.5288       C31-C33=1.5241       C31-H65=1.0949       C32-C31=1.5288       C32-H66=1.0876       C32-H67=1.0882       
C32-H68=1.0872       C33-C31=1.5241       C33-H69=1.0875       C33-H70=1.0862       C33-H71=1.0873       H34-C5=1.0782        
H35-C8=1.0943        H36-C8=1.0882        H37-C8=1.0946        H38-C11=1.0941       H39-C11=1.0884       H40-C11=1.0946       
H41-C12=1.0786       H42-C2=1.1095        H43-C14=1.0910       H44-C14=1.0888       H45-C15=1.0904       H46-C15=1.0913       
H47-C16=1.1035       H48-C16=1.0914       H49-C18=1.1011       H50-C18=1.0917       H51-C19=1.0902       H52-C19=1.0901       
H53-C21=1.0790       H54-C22=1.0778       H55-C25=1.0940       H56-C25=1.0940       H57-C25=1.0884       H58-C28=1.0884       
H59-C28=1.0944       H60-C28=1.0942       H61-C29=1.0788       H62-C30=1.0902       H63-C30=1.0983       H64-C30=1.0861       
H65-C31=1.0949       H66-C32=1.0876       H67-C32=1.0882       H68-C32=1.0872       H69-C33=1.0875       H70-C33=1.0862       
H71-C33=1.0873       H72-N1=1.0142        
 C  H  Rav=1.0903 sigma=0.0066  Rmin=1.0778  Rmax=1.1095    38
 C  C  Rav=1.4540 sigma=0.0698  Rmin=1.3637  Rmax=1.5645    22
 N  H  Rav=1.0142 sigma=0.0000  Rmin=1.0142  Rmax=1.0142     1
 N  C  Rav=1.3939 sigma=0.0829  Rmin=1.2502  Rmax=1.4420     4
 O  C  Rav=1.3767 sigma=0.0320  Rmin=1.3425  Rmax=1.4094     8

 selected bond angles (degree)
 --------------------
H72-N1-C2=118.61               C3-C2-N1=121.64                H42-C2-N1=124.88               H42-C2-C3=113.46               
C4-C3-C2=108.09                C14-C3-C2=110.84               C14-C3-C4=110.60               C31-C3-C2=107.55               
C31-C3-C4=109.29               C31-C3-C14=110.38              C5-C4-C3=122.44                C13-C4-C3=121.93               
C13-C4-C5=115.62               C6-C5-C4=121.34                H34-C5-C4=118.61               H34-C5-C6=120.05               
O7-C6-C5=125.05                C9-C6-C5=120.24                C9-C6-O7=114.71                C8-O7-C6=119.26                
H35-C8-O7=111.44               H36-C8-O7=105.51               H36-C8-H35=109.32              H37-C8-O7=111.56               
H37-C8-H35=109.62              H37-C8-H36=109.27              O10-C9-C6=115.77               C12-C9-C6=118.51               
C12-C9-O10=125.72              C11-O10-C9=119.69              

 selected dihedral angles (degree)
 ---------------------------------
C3-C2-N1-H72=177.42           H42-C2-N1-H72=359.40          C4-C3-C2-N1=163.05            C4-C3-C2-H42=341.27           
C14-C3-C2-N1= 41.69           C14-C3-C2-H42=219.91          C31-C3-C2-N1=280.94           C31-C3-C2-H42= 99.16          
C5-C4-C3-C2=176.11            C5-C4-C3-C14=297.61           C5-C4-C3-C31= 59.34           C13-C4-C3-C2=355.12           
C13-C4-C3-C14=116.63          C13-C4-C3-C31=238.35          C6-C5-C4-C3=180.13            C6-C5-C4-C13=  1.06           
H34-C5-C4-C3=359.98           H34-C5-C4-C13=180.90          O7-C6-C5-C4=178.90            O7-C6-C5-H34=359.06           
C9-C6-C5-C4=359.07            C9-C6-C5-H34=179.23           C8-O7-C6-C5=356.44            C8-O7-C6-C9=176.28            
H35-C8-O7-C6=301.13           H36-C8-O7-C6=182.58           H37-C8-O7-C6= 64.03           O10-C9-C6-C5=180.37           
O10-C9-C6-O7=  0.51           C12-C9-C6-C5=  0.23           C12-C9-C6-O7=180.38           C11-O10-C9-C6=182.89          
C11-O10-C9-C12=  3.03         
           -------------------------------------------------
          |                Final Singlepoint                |
           -------------------------------------------------

          ...................................................
          :                      SETUP                      :
          :.................................................:
          :  # basis functions                 171          :
          :  # atomic orbitals                 171          :
          :  # shells                          105          :
          :  # electrons                       180          :
          :  max. iterations                   250          :
          :  Hamiltonian                  GFN2-xTB          :
          :  restarted?                      false          :
          :  GBSA solvation                  false          :
          :  PC potential                    false          :
          :  electronic temp.         5000.0000000     K    :
          :  accuracy                    1.0000000          :
          :  -> integral cutoff          0.2500000E+02      :
          :  -> integral neglect         0.1000000E-07      :
          :  -> SCF convergence          0.1000000E-05 Eh   :
          :  -> wf. convergence          0.1000000E-03 e    :
          :  Broyden damping             0.4000000          :
          ...................................................

 iter      E             dE          RMSdq      gap      omega  full diag
   1   -100.7112746 -0.100711E+03  0.101E-04    0.80       0.0  T
   2   -100.7112746  0.916074E-09  0.117E-04    0.80     100.7  T
   3   -100.7112746 -0.116083E-08  0.716E-05    0.80     164.6  T

   *** convergence criteria satisfied after 3 iterations ***

         #    Occupation            Energy/Eh            Energy/eV
      -------------------------------------------------------------
         1        2.0000           -0.8186578             -22.2768
       ...           ...                  ...                  ...
        84        1.9907           -0.5143951             -13.9974
        85        1.9702           -0.4957471             -13.4900
        86        1.9608           -0.4913689             -13.3708
        87        1.9213           -0.4799827             -13.0610
        88        1.8088           -0.4649822             -12.6528
        89        1.7714           -0.4618246             -12.5669
        90        1.6919           -0.4563680             -12.4184 (HOMO)
        91        0.9246           -0.4270065             -11.6194 (LUMO)
        92        0.0067           -0.3392116              -9.2304
        93        0.0027           -0.3246860              -8.8352
        94        0.0015           -0.3151080              -8.5745
        95        0.0013           -0.3131447              -8.5211
       ...           ...                  ...                  ...
       171                          0.5703528              15.5201
      -------------------------------------------------------------
                  HL-Gap            0.0293615 Eh            0.7990 eV
             Fermi-level           -0.4293998 Eh          -11.6846 eV

 SCC (total)                   0 d,  0 h,  0 min,  0.117 sec
 SCC setup                      ...        0 min,  0.001 sec (  0.757%)
 Dispersion                     ...        0 min,  0.002 sec (  1.365%)
 classical contributions        ...        0 min,  0.000 sec (  0.368%)
 integral evaluation            ...        0 min,  0.018 sec ( 15.120%)
 iterations                     ...        0 min,  0.026 sec ( 22.455%)
 molecular gradient             ...        0 min,  0.069 sec ( 59.437%)
 printout                       ...        0 min,  0.001 sec (  0.483%)

         :::::::::::::::::::::::::::::::::::::::::::::::::::::
         ::                     SUMMARY                     ::
         :::::::::::::::::::::::::::::::::::::::::::::::::::::
         :: total energy             -99.351727364063 Eh    ::
         :: gradient norm              0.004009442422 Eh/a0 ::
         :: HOMO-LUMO gap              0.798967883873 eV    ::
         ::.................................................::
         :: SCC energy              -100.711274563179 Eh    ::
         :: -> isotropic ES            0.101180614432 Eh    ::
         :: -> anisotropic ES          0.005652183713 Eh    ::
         :: -> anisotropic XC          0.043415161043 Eh    ::
         :: -> dispersion             -0.073678353564 Eh    ::
         :: repulsion energy           1.358410776918 Eh    ::
         :: add. restraining           0.000000000000 Eh    ::
         :: total charge               1.000000000001 e     ::
         :::::::::::::::::::::::::::::::::::::::::::::::::::::

           -------------------------------------------------
          |                Property Printout                |
           -------------------------------------------------

    * Orbital Energies and Occupations

         #    Occupation            Energy/Eh            Energy/eV
      -------------------------------------------------------------
         1        2.0000           -0.8186578             -22.2768
       ...           ...                  ...                  ...
        78        1.9969           -0.5320427             -14.4776
        79        1.9966           -0.5302880             -14.4299
        80        1.9956           -0.5261983             -14.3186
        81        1.9940           -0.5212917             -14.1851
        82        1.9924           -0.5175697             -14.0838
        83        1.9912           -0.5153051             -14.0222
        84        1.9907           -0.5143951             -13.9974
        85        1.9702           -0.4957471             -13.4900
        86        1.9608           -0.4913689             -13.3708
        87        1.9213           -0.4799827             -13.0610
        88        1.8088           -0.4649822             -12.6528
        89        1.7714           -0.4618246             -12.5669
        90        1.6919           -0.4563680             -12.4184 (HOMO)
        91        0.9246           -0.4270065             -11.6194 (LUMO)
        92        0.0067           -0.3392116              -9.2304
        93        0.0027           -0.3246860              -8.8352
        94        0.0015           -0.3151080              -8.5745
        95        0.0013           -0.3131447              -8.5211
        96        0.0011           -0.3111355              -8.4664
        97        0.0000           -0.1932891              -5.2597
        98        0.0000           -0.1907658              -5.1910
        99                         -0.1039659              -2.8291
       100                         -0.0720984              -1.9619
       101                         -0.0648749              -1.7653
       ...                                ...                  ...
       171                          0.5703528              15.5201
      -------------------------------------------------------------
                  HL-Gap            0.0293615 Eh            0.7990 eV
             Fermi-level           -0.4293998 Eh          -11.6846 eV

     #   Z          covCN         q      C6AA      α(0)
     1   7 N        1.776    -0.270    27.817     7.810
     2   6 C        2.828     0.106    25.658     8.300
     3   6 C        3.911     0.011    20.337     6.410
     4   6 C        2.975     0.018    27.612     8.619
     5   6 C        2.932    -0.072    29.791     8.951
     6   6 C        2.860     0.129    25.181     8.225
     7   8 O        1.706    -0.225    17.726     5.684
     8   6 C        3.644     0.026    20.479     6.504
     9   6 C        2.874     0.135    25.044     8.204
    10   8 O        1.706    -0.215    17.575     5.660
    11   6 C        3.645     0.026    20.475     6.504
    12   6 C        2.908    -0.060    29.498     8.906
    13   6 C        2.024    -0.077    33.108     9.293
    14   6 C        3.807    -0.070    21.828     6.651
    15   6 C        3.801    -0.068    21.802     6.648
    16   6 C        3.750    -0.004    20.717     6.491
    17   7 N        2.728    -0.097    23.144     7.145
    18   6 C        3.748    -0.000    20.647     6.481
    19   6 C        3.808    -0.073    21.883     6.659
    20   6 C        2.968     0.012    27.752     8.641
    21   6 C        2.922    -0.043    29.060     8.840
    22   6 C        2.912    -0.064    29.601     8.921
    23   6 C        2.864     0.136    25.021     8.199
    24   8 O        1.706    -0.212    17.526     5.652
    25   6 C        3.645     0.022    20.533     6.513
    26   6 C        2.861     0.136    25.020     8.199
    27   8 O        1.706    -0.215    17.580     5.661
    28   6 C        3.644     0.025    20.498     6.508
    29   6 C        2.919    -0.075    29.879     8.964
    30   6 C        3.703    -0.050    21.635     6.651
    31   6 C        3.855    -0.008    20.680     6.468
    32   6 C        3.755    -0.111    22.670     6.789
    33   6 C        3.755    -0.120    22.862     6.818
    34   1 H        0.926     0.064     2.148     2.292
    35   1 H        0.924     0.056     2.248     2.345
    36   1 H        0.925     0.084     1.935     2.175
    37   1 H        0.924     0.053     2.278     2.360
    38   1 H        0.924     0.059     2.211     2.326
    39   1 H        0.925     0.085     1.926     2.171
    40   1 H        0.924     0.055     2.263     2.353
    41   1 H        0.926     0.065     2.141     2.288
    42   1 H        0.922     0.038     2.471     2.458
    43   1 H        0.924     0.053     2.279     2.361
    44   1 H        0.925     0.077     2.012     2.218
    45   1 H        0.924     0.045     2.388     2.416
    46   1 H        0.924     0.058     2.221     2.331
    47   1 H        0.923     0.037     2.494     2.470
    48   1 H        0.924     0.057     2.240     2.340
    49   1 H        0.923     0.041     2.441     2.443
    50   1 H        0.924     0.055     2.263     2.353
    51   1 H        0.924     0.065     2.144     2.290
    52   1 H        0.925     0.055     2.254     2.348
    53   1 H        0.926     0.057     2.237     2.339
    54   1 H        0.926     0.063     2.164     2.301
    55   1 H        0.924     0.059     2.211     2.326
    56   1 H        0.924     0.061     2.190     2.314
    57   1 H        0.925     0.086     1.922     2.168
    58   1 H        0.925     0.085     1.931     2.173
    59   1 H        0.924     0.054     2.268     2.355
    60   1 H        0.924     0.057     2.231     2.336
    61   1 H        0.926     0.054     2.273     2.358
    62   1 H        0.925     0.060     2.195     2.317
    63   1 H        0.923     0.042     2.423     2.434
    64   1 H        0.925     0.061     2.191     2.315
    65   1 H        0.924     0.045     2.389     2.417
    66   1 H        0.925     0.044     2.397     2.421
    67   1 H        0.925     0.038     2.476     2.461
    68   1 H        0.925     0.052     2.292     2.368
    69   1 H        0.925     0.062     2.176     2.307
    70   1 H        0.925     0.048     2.344     2.394
    71   1 H        0.925     0.057     2.239     2.340
    72   1 H        0.860     0.164     1.311     1.794

 Mol. C6AA /au·bohr⁶  :      47250.705875
 Mol. C8AA /au·bohr⁸  :    1076454.001582
 Mol. α(0) /au        :        332.543762


Wiberg/Mayer (AO) data.
largest (>0.10) Wiberg bond orders for each atom

 ---------------------------------------------------------------------------
     #   Z sym  total        # sym  WBO       # sym  WBO       # sym  WBO
 ---------------------------------------------------------------------------
     1   7 N    3.027 --     2 C    1.947    72 H    0.937
     2   6 C    3.914 --     1 N    1.947     3 C    0.990    42 H    0.896
     3   6 C    3.960 --     2 C    0.990     4 C    0.987    14 C    0.956
                            31 C    0.918
     4   6 C    3.897 --    13 C    1.410     5 C    1.325     3 C    0.987
     5   6 C    3.904 --     6 C    1.399     4 C    1.325    34 H    0.947
     6   6 C    3.886 --     5 C    1.399     9 C    1.215     7 O    1.102
     7   8 O    2.239 --     6 C    1.102     8 C    0.976
     8   6 C    3.926 --    36 H    0.976     7 O    0.976    35 H    0.972
                            37 H    0.972
     9   6 C    3.834 --    12 C    1.327     6 C    1.215    10 O    1.112
    10   8 O    2.251 --     9 C    1.112    11 C    0.973
    11   6 C    3.924 --    39 H    0.976    10 O    0.973    38 H    0.972
                            40 H    0.972
    12   6 C    3.926 --    13 C    1.454     9 C    1.327    41 H    0.949
    13   6 C    3.113 --    12 C    1.454     4 C    1.410
    14   6 C    3.976 --    15 C    1.007    43 H    0.969    44 H    0.966
                             3 C    0.956
    15   6 C    3.976 --    14 C    1.007    16 C    0.993    46 H    0.971
                            45 H    0.969
    16   6 C    3.962 --    17 N    1.008    15 C    0.993    48 H    0.967
                            47 H    0.938
    17   7 N    3.100 --    30 C    1.018    18 C    1.010    16 C    1.008
    18   6 C    3.960 --    17 N    1.010    50 H    0.969    19 C    0.968
                            49 H    0.954
    19   6 C    3.974 --    20 C    1.015    51 H    0.969    18 C    0.968
                            52 H    0.966
    20   6 C    3.920 --    29 C    1.386    21 C    1.385    19 C    1.015
    21   6 C    3.922 --    22 C    1.428    20 C    1.385    53 H    0.966
    22   6 C    3.946 --    21 C    1.428    23 C    1.369    54 H    0.962
    23   6 C    3.866 --    22 C    1.369    26 C    1.205    24 O    1.121
    24   8 O    2.247 --    23 C    1.121    25 C    0.974
    25   6 C    3.923 --    57 H    0.976    24 O    0.974    55 H    0.971
                            56 H    0.970
    26   6 C    3.874 --    29 C    1.385    23 C    1.205    27 O    1.115
    27   8 O    2.248 --    26 C    1.115    28 C    0.976
    28   6 C    3.926 --    27 O    0.976    58 H    0.976    59 H    0.972
                            60 H    0.971
    29   6 C    3.948 --    20 C    1.386    26 C    1.385    61 H    0.961
    30   6 C    3.967 --    17 N    1.018    64 H    0.978    62 H    0.970
                            63 H    0.963
    31   6 C    3.972 --    33 C    1.012    32 C    1.007    65 H    0.955
                             3 C    0.918
    32   6 C    3.985 --    31 C    1.007    68 H    0.982    67 H    0.982
                            66 H    0.982
    33   6 C    3.978 --    31 C    1.012    70 H    0.982    71 H    0.977
                            69 H    0.972
    34   1 H    0.983 --     5 C    0.947
    35   1 H    0.991 --     8 C    0.972
    36   1 H    0.992 --     8 C    0.976
    37   1 H    0.991 --     8 C    0.972
    38   1 H    0.990 --    11 C    0.972
    39   1 H    0.991 --    11 C    0.976
    40   1 H    0.990 --    11 C    0.972
    41   1 H    0.979 --    12 C    0.949
    42   1 H    0.974 --     2 C    0.896
    43   1 H    0.993 --    14 C    0.969
    44   1 H    0.991 --    14 C    0.966
    45   1 H    0.996 --    15 C    0.969
    46   1 H    0.993 --    15 C    0.971
    47   1 H    0.972 --    16 C    0.938
    48   1 H    0.996 --    16 C    0.967
    49   1 H    0.973 --    18 C    0.954
    50   1 H    0.996 --    18 C    0.969
    51   1 H    0.992 --    19 C    0.969
    52   1 H    0.994 --    19 C    0.966
    53   1 H    0.995 --    21 C    0.966
    54   1 H    0.994 --    22 C    0.962
    55   1 H    0.988 --    25 C    0.971
    56   1 H    0.988 --    25 C    0.970
    57   1 H    0.992 --    25 C    0.976
    58   1 H    0.992 --    28 C    0.976
    59   1 H    0.990 --    28 C    0.972
    60   1 H    0.990 --    28 C    0.971
    61   1 H    0.995 --    29 C    0.961
    62   1 H    0.985 --    30 C    0.970
    63   1 H    0.976 --    30 C    0.963
    64   1 H    0.996 --    30 C    0.978
    65   1 H    0.991 --    31 C    0.955
    66   1 H    0.995 --    32 C    0.982
    67   1 H    0.997 --    32 C    0.982
    68   1 H    0.995 --    32 C    0.982
    69   1 H    0.992 --    33 C    0.972
    70   1 H    0.995 --    33 C    0.982
    71   1 H    0.993 --    33 C    0.977
    72   1 H    0.964 --     1 N    0.937
 ---------------------------------------------------------------------------

Topologies differ in total number of bonds
Writing topology from bond orders to xtbtopo.mol

molecular dipole:
                 x           y           z       tot (Debye)
 q only:        0.646      -0.088      -0.215
   full:        0.430      -0.405       0.211       1.594
molecular quadrupole (traceless):
                xx          xy          yy          xz          yz          zz
 q only:       72.579       2.612     -22.689       3.317      -8.470     -49.891
  q+dip:       70.013       5.510     -24.659       1.753      -9.383     -45.355
   full:       70.713       4.107     -25.938      -0.507      -7.936     -44.775

           -------------------------------------------------
          |                Geometry Summary                 |
           -------------------------------------------------

      molecular mass/u    :      455.6105846
   center of mass at/Å    :       -0.0014364      -0.0058861      -0.0017658
  moments of inertia/u·Å² :        0.2477681E+04   0.1133488E+05   0.1272980E+05
rotational constants/cm⁻¹ :        0.6803795E-02   0.1487235E-02   0.1324265E-02

 * 65 selected distances

     #   Z          #   Z                                           value/Å
     1   7 N        2   6 C                                       1.2502412
     4   6 C        5   6 C                                       1.4007336
     5   6 C        6   6 C                                       1.3859414
     6   6 C        7   8 O                                       1.3487486
     7   8 O        8   6 C                                       1.4088912
     6   6 C        9   6 C                                       1.4249778
     9   6 C       10   8 O                                       1.3425488
    10   8 O       11   6 C                                       1.4084175
     9   6 C       12   6 C                                       1.3973702
     4   6 C       13   6 C                                       1.3687644
    12   6 C       13   6 C                                       1.3636908
    14   6 C       15   6 C                                       1.5292730
    15   6 C       16   6 C                                       1.5305017 (max)
    16   6 C       17   7 N                                       1.4420065
    17   7 N       18   6 C                                       1.4418402
    20   6 C       21   6 C                                       1.3892846
    21   6 C       22   6 C                                       1.3847731
    22   6 C       23   6 C                                       1.3896524
    23   6 C       24   8 O                                       1.3429325
    24   8 O       25   6 C                                       1.4093774
    23   6 C       26   6 C                                       1.4253826
    26   6 C       27   8 O                                       1.3448232
    27   8 O       28   6 C                                       1.4081807
    20   6 C       29   6 C                                       1.3922846
    26   6 C       29   6 C                                       1.3876510
    17   7 N       30   6 C                                       1.4413216
    31   6 C       32   6 C                                       1.5288217
    31   6 C       33   6 C                                       1.5241012
     5   6 C       34   1 H                                       1.0781704
     8   6 C       35   1 H                                       1.0942695
     8   6 C       36   1 H                                       1.0881579
     8   6 C       37   1 H                                       1.0945561
    11   6 C       38   1 H                                       1.0940824
    11   6 C       39   1 H                                       1.0883546
    11   6 C       40   1 H                                       1.0946352
    12   6 C       41   1 H                                       1.0785532
    14   6 C       43   1 H                                       1.0909562
    14   6 C       44   1 H                                       1.0888391
    15   6 C       45   1 H                                       1.0904495
    15   6 C       46   1 H                                       1.0912994
    16   6 C       47   1 H                                       1.1034541
    16   6 C       48   1 H                                       1.0914339
    18   6 C       49   1 H                                       1.1011038
    18   6 C       50   1 H                                       1.0916730
    19   6 C       51   1 H                                       1.0902190
    19   6 C       52   1 H                                       1.0901355
    21   6 C       53   1 H                                       1.0790469
    22   6 C       54   1 H                                       1.0777503 (min)
    25   6 C       55   1 H                                       1.0940464
    25   6 C       56   1 H                                       1.0940183
    25   6 C       57   1 H                                       1.0883842
    28   6 C       58   1 H                                       1.0883636
    28   6 C       59   1 H                                       1.0944454
    28   6 C       60   1 H                                       1.0941792
    29   6 C       61   1 H                                       1.0788452
    30   6 C       62   1 H                                       1.0901867
    30   6 C       63   1 H                                       1.0983406
    30   6 C       64   1 H                                       1.0861360
    31   6 C       65   1 H                                       1.0948887
    32   6 C       66   1 H                                       1.0875889
    32   6 C       67   1 H                                       1.0882230
    32   6 C       68   1 H                                       1.0872203
    33   6 C       69   1 H                                       1.0874672
    33   6 C       70   1 H                                       1.0862079
    33   6 C       71   1 H                                       1.0872721

 * 4 distinct bonds (by element types)

   Z      Z             #   av. dist./Å        max./Å        min./Å
   1 H    6 C          37     1.0898096     1.1034541     1.0777503
   6 C    6 C          16     1.4264503     1.5305017     1.3636908
   6 C    7 N           4     1.3938524     1.4420065     1.2502412
   6 C    8 O           8     1.3767400     1.4093774     1.3425488


optimized geometry written to: xtbopt.xyz


           -------------------------------------------------
          | TOTAL ENERGY              -99.351727364063 Eh   |
          | GRADIENT NORM               0.004009442422 Eh/α |
          | HOMO-LUMO GAP               0.798967883873 eV   |
           -------------------------------------------------

------------------------------------------------------------------------
 * finished run on 2024/04/06 at 11:15:30.456     
------------------------------------------------------------------------
 total:
 * wall-time:     0 d,  0 h,  0 min,  1.262 sec
 *  cpu-time:     0 d,  0 h,  0 min,  1.233 sec
 * ratio c/w:     0.977 speedup
 SCF:
 * wall-time:     0 d,  0 h,  0 min,  0.121 sec
 *  cpu-time:     0 d,  0 h,  0 min,  0.121 sec
 * ratio c/w:     0.999 speedup
 ANC optimizer:
 * wall-time:     0 d,  0 h,  0 min,  1.095 sec
 *  cpu-time:     0 d,  0 h,  0 min,  1.088 sec
 * ratio c/w:     0.993 speedup

