      -----------------------------------------------------------      
     |                   =====================                   |     
     |                           x T B                           |     
     |                   =====================                   |     
     |                         S. Grimme                         |     
     |          Mulliken Center for Theoretical Chemistry        |     
     |                    University of Bonn                     |     
      -----------------------------------------------------------      

   * xtb version 6.6.1 (8d0f1dd) compiled by 'conda@1efc2f54142f' on 2023-08-01

   xtb is free software: you can redistribute it and/or modify it under
   the terms of the GNU Lesser General Public License as published by
   the Free Software Foundation, either version 3 of the License, or
   (at your option) any later version.
   
   xtb is distributed in the hope that it will be useful,
   but WITHOUT ANY WARRANTY; without even the implied warranty of
   MERCHANTABILITY or FITNESS FOR A PARTICULAR PURPOSE.  See the
   GNU Lesser General Public License for more details.
   
   Cite this work as:
   * C. Bannwarth, E. Caldeweyher, S. Ehlert, A. Hansen, P. Pracht,
     J. Seibert, S. Spicher, S. Grimme, WIREs Comput. Mol. Sci., 2020, 11,
     e01493. DOI: 10.1002/wcms.1493
   
   for GFN2-xTB:
   * C. Bannwarth, S. Ehlert and S. Grimme., J. Chem. Theory Comput., 2019,
     15, 1652-1671. DOI: 10.1021/acs.jctc.8b01176
   for GFN1-xTB:
   * S. Grimme, C. Bannwarth, P. Shushkov, J. Chem. Theory Comput., 2017,
     13, 1989-2009. DOI: 10.1021/acs.jctc.7b00118
   for GFN0-xTB:
   * P. Pracht, E. Caldeweyher, S. Ehlert, S. Grimme, ChemRxiv, 2019, preprint.
     DOI: 10.26434/chemrxiv.8326202.v1
   for GFN-FF:
   * S. Spicher and S. Grimme, Angew. Chem. Int. Ed., 2020, 59, 15665-15673.
     DOI: 10.1002/anie.202004239
   
   for ALPB and GBSA implicit solvation:
   * S. Ehlert, M. Stahn, S. Spicher, S. Grimme, J. Chem. Theory Comput.,
     2021, 17, 4250-4261. DOI: 10.1021/acs.jctc.1c00471
   
   for DFT-D4:
   * E. Caldeweyher, C. Bannwarth and S. Grimme, J. Chem. Phys., 2017,
     147, 034112. DOI: 10.1063/1.4993215
   * E. Caldeweyher, S. Ehlert, A. Hansen, H. Neugebauer, S. Spicher,
     C. Bannwarth and S. Grimme, J. Chem. Phys., 2019, 150, 154122.
     DOI: 10.1063/1.5090222
   * E. Caldeweyher, J.-M. Mewes, S. Ehlert and S. Grimme, Phys. Chem. Chem. Phys.
     2020, 22, 8499-8512. DOI: 10.1039/D0CP00502A
   
   for sTDA-xTB:
   * S. Grimme and C. Bannwarth, J. Chem. Phys., 2016, 145, 054103.
     DOI: 10.1063/1.4959605
   
   in the mass-spec context:
   * V. Asgeirsson, C. Bauer and S. Grimme, Chem. Sci., 2017, 8, 4879.
     DOI: 10.1039/c7sc00601b
   * J. Koopman and S. Grimme, ACS Omega 2019, 4, 12, 15120-15133.
     DOI: 10.1021/acsomega.9b02011
   
   for metadynamics refer to:
   * S. Grimme, J. Chem. Theory Comput., 2019, 155, 2847-2862
     DOI: 10.1021/acs.jctc.9b00143
   
   for SPH calculations refer to:
   * S. Spicher and S. Grimme, J. Chem. Theory Comput., 2021, 17, 1701-1714
     DOI: 10.1021/acs.jctc.0c01306
   
   with help from (in alphabetical order)
   P. Atkinson, C. Bannwarth, F. Bohle, G. Brandenburg, E. Caldeweyher
   M. Checinski, S. Dohm, S. Ehlert, S. Ehrlich, I. Gerasimov, C. Hölzer
   A. Katbashev, J. Koopman, C. Lavigne, S. Lehtola, F. März, M. Müller,
   F. Musil, H. Neugebauer, J. Pisarek, C. Plett, P. Pracht, F. Pultar,
   J. Seibert, P. Shushkov, S. Spicher, M. Stahn, M. Steiner, T. Strunk,
   J. Stückrath, T. Rose, and J. Unsleber
   
 * started run on 2024/06/05 at 19:58:56.209     

           -------------------------------------------------
          |                Calculation Setup                |
           -------------------------------------------------

          program call               : xtb struc.xyz --opt loose --input .xc1 --gfn2
          hostname                   : n-62-29-35
          coordinate file            : struc.xyz
          omp threads                :                     1

   ID    Z sym.   atoms
    1    6 C      1, 3, 5-7, 10, 11, 14
    2    7 N      2, 4, 9, 13
    3    8 O      8, 12
    4    1 H      15-25
constraining bond 4 11 to    5.9200000 Å, actual value:    3.6888736 Å

           -------------------------------------------------
          |                 G F N 2 - x T B                 |
           -------------------------------------------------

        Reference                      10.1021/acs.jctc.8b01176
      * Hamiltonian:
        H0-scaling (s, p, d)           1.850000    2.230000    2.230000
        zeta-weighting                 0.500000
      * Dispersion:
        s8                             2.700000
        a1                             0.520000
        a2                             5.000000
        s9                             5.000000
      * Repulsion:
        kExp                           1.500000    1.000000
        rExp                           1.000000
      * Coulomb:
        alpha                          2.000000
        third order                    shell-resolved
        anisotropic                    true
        a3                             3.000000
        a5                             4.000000
        cn-shift                       1.200000
        cn-exp                         4.000000
        max-rad                        5.000000


          ...................................................
          :                      SETUP                      :
          :.................................................:
          :  # basis functions                  67          :
          :  # atomic orbitals                  67          :
          :  # shells                           39          :
          :  # electrons                        74          :
          :  max. iterations                   250          :
          :  Hamiltonian                  GFN2-xTB          :
          :  restarted?                      false          :
          :  GBSA solvation                  false          :
          :  PC potential                    false          :
          :  electronic temp.         5000.0000000     K    :
          :  accuracy                    1.0000000          :
          :  -> integral cutoff          0.2500000E+02      :
          :  -> integral neglect         0.1000000E-07      :
          :  -> SCF convergence          0.1000000E-05 Eh   :
          :  -> wf. convergence          0.1000000E-03 e    :
          :  Broyden damping             0.4000000          :
          ...................................................

 iter      E             dE          RMSdq      gap      omega  full diag
   1    -42.5894031 -0.425894E+02  0.445E+00    3.52       0.0  T
   2    -42.7683054 -0.178902E+00  0.251E+00    3.36       1.0  T
   3    -42.7759211 -0.761567E-02  0.147E+00    3.35       1.0  T
   4    -42.7728404  0.308066E-02  0.553E-01    3.33       1.0  T
   5    -42.7789548 -0.611444E-02  0.112E-01    3.35       1.0  T
   6    -42.7790473 -0.924914E-04  0.614E-02    3.33       1.0  T
   7    -42.7790721 -0.247928E-04  0.258E-02    3.34       1.0  T
   8    -42.7790772 -0.508996E-05  0.938E-03    3.34       2.1  T
   9    -42.7790779 -0.669422E-06  0.448E-03    3.34       4.5  T
  10    -42.7790780 -0.821511E-07  0.115E-03    3.34      17.4  T
  11    -42.7790780 -0.322662E-08  0.553E-04    3.34      36.2  T
  12    -42.7790780 -0.287052E-08  0.180E-04    3.34     111.1  T

   *** convergence criteria satisfied after 12 iterations ***

         #    Occupation            Energy/Eh            Energy/eV
      -------------------------------------------------------------
         1        2.0000           -0.9185990             -24.9964
       ...           ...                  ...                  ...
        31        1.9996           -0.6230278             -16.9534
        32        1.9995           -0.6194601             -16.8564
        33        1.9979           -0.5974976             -16.2587
        34        1.9932           -0.5789629             -15.7544
        35        1.9817           -0.5631863             -15.3251
        36        1.9779           -0.5602245             -15.2445
        37        1.9748           -0.5581234             -15.1873 (HOMO)
        38        0.0652           -0.4353579             -11.8467 (LUMO)
        39        0.0099           -0.4050467             -11.0219
        40        0.0013           -0.3732218             -10.1559
        41        0.0000           -0.2886859              -7.8555
        42                         -0.2065804              -5.6213
       ...                                ...                  ...
        67                          0.5625656              15.3082
      -------------------------------------------------------------
                  HL-Gap            0.1227656 Eh            3.3406 eV
             Fermi-level           -0.4890455 Eh          -13.3076 eV

 SCC (total)                   0 d,  0 h,  0 min,  0.036 sec
 SCC setup                      ...        0 min,  0.000 sec (  0.914%)
 Dispersion                     ...        0 min,  0.000 sec (  1.155%)
 classical contributions        ...        0 min,  0.000 sec (  0.323%)
 integral evaluation            ...        0 min,  0.005 sec ( 14.691%)
 iterations                     ...        0 min,  0.018 sec ( 50.124%)
 molecular gradient             ...        0 min,  0.011 sec ( 32.361%)
 printout                       ...        0 min,  0.000 sec (  0.394%)

         :::::::::::::::::::::::::::::::::::::::::::::::::::::
         ::                     SUMMARY                     ::
         :::::::::::::::::::::::::::::::::::::::::::::::::::::
         :: total energy             -33.359613341133 Eh    ::
         :: gradient norm              5.959605846384 Eh/a0 ::
         :: HOMO-LUMO gap              3.340621582928 eV    ::
         ::.................................................::
         :: SCC energy               -42.779077977399 Eh    ::
         :: -> isotropic ES            0.141123876439 Eh    ::
         :: -> anisotropic ES         -0.005230418907 Eh    ::
         :: -> anisotropic XC          0.011966818540 Eh    ::
         :: -> dispersion             -0.022657731803 Eh    ::
         :: repulsion energy           0.531105277918 Eh    ::
         :: add. restraining           8.888245199339 Eh    ::
         :: total charge               1.000000000002 e     ::
         :::::::::::::::::::::::::::::::::::::::::::::::::::::

      ----------------------------------------------------------- 
     |                   =====================                   |
     |                        A N C O P T                        |
     |                   =====================                   |
     |               Approximate Normal Coordinate               |
     |                Rational Function Optimizer                |
      ----------------------------------------------------------- 

          ...................................................
          :                      SETUP                      :
          :.................................................:
          :   optimization level             loose          :
          :   max. optcycles                   200          :
          :   ANC micro-cycles                  20          :
          :   degrees of freedom                69          :
          :.................................................:
          :   RF solver                   davidson          :
          :   write xtbopt.log                true          :
          :   linear?                        false          :
          :   energy convergence         0.5000000E-04 Eh   :
          :   grad. convergence          0.4000000E-02 Eh/α :
          :   maxmium RF displ.          1.0000000          :
          :   Hlow (freq-cutoff)         0.1000000E-01      :
          :   Hmax (freq-cutoff)         5.0000000          :
          :   S6 in model hess.         20.0000000          :
          ...................................................

generating ANC from model Hessian ...
Using Lindh-Hessian (1995)
 Shifting diagonal of input Hessian by   0.98896000078022850     
 Lowest  eigenvalues of input Hessian
    0.010000    0.627470    0.000000    0.000000    0.000000    0.000000
    0.000000    0.000000    0.992815    0.993291    0.997568    0.997711
    0.998987    1.000666    1.002086    1.004187    1.013690    1.025140
 Highest eigenvalues
    3.023316    3.130538    3.217158    3.272429    3.446194    4.724481


........................................................................
.............................. CYCLE    1 ..............................
........................................................................

 iter      E             dE          RMSdq      gap      omega  full diag
   1    -42.7790780 -0.427791E+02  0.626E-05    3.34       0.0  T
   2    -42.7790780 -0.124203E-10  0.329E-05    3.34     607.4  T
   3    -42.7790780  0.106581E-12  0.193E-05    3.34    1034.2  T
     SCC iter.                  ...        0 min,  0.005 sec
     gradient                   ...        0 min,  0.011 sec
 * total energy  :   -33.3596133 Eh     change       -0.6650680E-10 Eh
   gradient norm :     5.9596056 Eh/α   predicted     0.0000000E+00 (-100.00%)
   displ. norm   :     0.7125214 α      lambda       -0.4204902E+01
   maximum displ.:     0.6171072 α      in ANC's #69, #51, #60, ...

........................................................................
.............................. CYCLE    2 ..............................
........................................................................

 iter      E             dE          RMSdq      gap      omega  full diag
   1    -42.7175956 -0.427176E+02  0.154E+00    3.27       0.0  T
   2    -42.7526133 -0.350177E-01  0.927E-01    3.07       1.0  T
   3    -42.7596668 -0.705349E-02  0.467E-01    3.24       1.0  T
   4    -42.7600602 -0.393389E-03  0.303E-01    3.21       1.0  T
   5    -42.7607879 -0.727741E-03  0.607E-02    3.22       1.0  T
   6    -42.7608489 -0.609992E-04  0.233E-02    3.22       1.0  T
   7    -42.7608533 -0.442043E-05  0.973E-03    3.22       2.1  T
   8    -42.7608539 -0.519096E-06  0.241E-03    3.22       8.3  T
   9    -42.7608539 -0.240983E-07  0.106E-03    3.22      18.9  T
  10    -42.7608539 -0.356984E-08  0.348E-04    3.22      57.4  T
  11    -42.7608539 -0.102794E-08  0.167E-04    3.22     119.9  T
     SCC iter.                  ...        0 min,  0.015 sec
     gradient                   ...        0 min,  0.011 sec
 * total energy  :   -36.9448143 Eh     change       -0.3585201E+01 Eh
   gradient norm :     4.2029749 Eh/α   predicted    -0.3170423E+01 ( -11.57%)
   displ. norm   :     0.7762842 α      lambda       -0.3222311E+01
   maximum displ.:     0.6303984 α      in ANC's #69, #51, #60, ...

........................................................................
.............................. CYCLE    3 ..............................
........................................................................

 iter      E             dE          RMSdq      gap      omega  full diag
   1    -42.6193985 -0.426194E+02  0.129E+00    2.40       0.0  T
   2    -42.6384812 -0.190826E-01  0.804E-01    2.70       1.0  T
   3    -42.6425182 -0.403702E-02  0.448E-01    2.45       1.0  T
   4    -42.6448320 -0.231385E-02  0.294E-01    2.60       1.0  T
   5    -42.6458084 -0.976396E-03  0.726E-02    2.57       1.0  T
   6    -42.6458828 -0.744294E-04  0.249E-02    2.55       1.0  T
   7    -42.6458895 -0.664240E-05  0.123E-02    2.56       1.6  T
   8    -42.6458903 -0.829274E-06  0.325E-03    2.56       6.1  T
   9    -42.6458904 -0.104264E-06  0.132E-03    2.55      15.2  T
  10    -42.6458904 -0.377450E-08  0.591E-04    2.55      33.9  T
  11    -42.6458904 -0.358868E-08  0.225E-04    2.55      88.8  T
     SCC iter.                  ...        0 min,  0.015 sec
     gradient                   ...        0 min,  0.011 sec
 * total energy  :   -39.6175035 Eh     change       -0.2672689E+01 Eh
   gradient norm :     2.7836578 Eh/α   predicted    -0.2582082E+01 (  -3.39%)
   displ. norm   :     0.7617845 α      lambda       -0.2091088E+01
   maximum displ.:     0.5727009 α      in ANC's #69, #51, #60, ...

........................................................................
.............................. CYCLE    4 ..............................
........................................................................

 iter      E             dE          RMSdq      gap      omega  full diag
   1    -42.4430446 -0.424430E+02  0.131E+00    1.14       0.0  T
   2    -42.4321844  0.108603E-01  0.149E+00    1.80       1.0  T
   3    -42.4890809 -0.568966E-01  0.457E-01    1.43       1.0  T
   4    -42.4882605  0.820403E-03  0.357E-01    1.39       1.0  T
   5    -42.4900952 -0.183467E-02  0.136E-01    1.46       1.0  T
   6    -42.4904338 -0.338583E-03  0.702E-02    1.40       1.0  T
   7    -42.4905482 -0.114383E-03  0.303E-02    1.42       1.0  T
   8    -42.4905658 -0.176178E-04  0.125E-02    1.42       1.6  T
   9    -42.4905676 -0.185019E-05  0.596E-03    1.42       3.4  T
  10    -42.4905684 -0.753484E-06  0.218E-03    1.42       9.2  T
  11    -42.4905684 -0.441529E-07  0.877E-04    1.42      22.8  T
  12    -42.4905684 -0.138064E-07  0.213E-04    1.42      94.1  T
     SCC iter.                  ...        0 min,  0.017 sec
     gradient                   ...        0 min,  0.011 sec
 * total energy  :   -41.2327336 Eh     change       -0.1615230E+01 Eh
   gradient norm :     1.5464935 Eh/α   predicted    -0.1652325E+01 (   2.30%)
   displ. norm   :     0.5959379 α      lambda       -0.9146494E+00
   maximum displ.:     0.5162371 α      in ANC's #69, #60, #62, ...

........................................................................
.............................. CYCLE    5 ..............................
........................................................................

 iter      E             dE          RMSdq      gap      omega  full diag
   1    -42.3790287 -0.423790E+02  0.102E+00    1.11       0.0  T
   2    -42.3509770  0.280518E-01  0.130E+00    1.03       1.0  T
   3    -42.4007635 -0.497866E-01  0.385E-01    1.11       1.0  T
   4    -42.4023332 -0.156971E-02  0.298E-01    1.02       1.0  T
   5    -42.4033619 -0.102869E-02  0.115E-01    1.07       1.0  T
   6    -42.4035224 -0.160425E-03  0.603E-02    1.05       1.0  T
   7    -42.4036047 -0.823510E-04  0.268E-02    1.07       1.0  T
   8    -42.4036162 -0.115083E-04  0.154E-02    1.07       1.3  T
   9    -42.4036250 -0.880492E-05  0.578E-03    1.07       3.5  T
  10    -42.4036260 -0.102429E-05  0.152E-03    1.07      13.1  T
  11    -42.4036261 -0.244016E-07  0.855E-04    1.07      23.4  T
  12    -42.4036261 -0.726810E-08  0.365E-04    1.07      54.8  T
     SCC iter.                  ...        0 min,  0.017 sec
     gradient                   ...        0 min,  0.011 sec
 * total energy  :   -41.8174307 Eh     change       -0.5846971E+00 Eh
   gradient norm :     0.4358743 Eh/α   predicted    -0.6197401E+00 (   5.99%)
   displ. norm   :     0.2595080 α      lambda       -0.1096529E+00
   maximum displ.:     0.1836253 α      in ANC's #69, #14, #62, ...

........................................................................
.............................. CYCLE    6 ..............................
........................................................................

 iter      E             dE          RMSdq      gap      omega  full diag
   1    -42.3854169 -0.423854E+02  0.613E-01    1.20       0.0  T
   2    -42.3743961  0.110208E-01  0.782E-01    0.86       1.0  T
   3    -42.3945457 -0.201496E-01  0.206E-01    1.11       1.0  T
   4    -42.3952239 -0.678167E-03  0.113E-01    1.05       1.0  T
   5    -42.3953327 -0.108803E-03  0.451E-02    1.06       1.0  T
   6    -42.3953403 -0.764634E-05  0.267E-02    1.06       1.0  T
   7    -42.3953642 -0.238083E-04  0.118E-02    1.06       1.7  T
   8    -42.3953667 -0.257323E-05  0.511E-03    1.07       3.9  T
   9    -42.3953678 -0.102571E-05  0.130E-03    1.07      15.3  T
  10    -42.3953678 -0.213286E-07  0.625E-04    1.07      32.0  T
  11    -42.3953678 -0.375046E-08  0.402E-04    1.07      49.7  T
     SCC iter.                  ...        0 min,  0.015 sec
     gradient                   ...        0 min,  0.011 sec
 * total energy  :   -41.8830321 Eh     change       -0.6560145E-01 Eh
   gradient norm :     0.1856368 Eh/α   predicted    -0.5852382E-01 ( -10.79%)
   displ. norm   :     0.1765398 α      lambda       -0.2793564E-01
   maximum displ.:     0.0682302 α      in ANC's #14, #33, #36, ...

........................................................................
.............................. CYCLE    7 ..............................
........................................................................

 iter      E             dE          RMSdq      gap      omega  full diag
   1    -42.4251688 -0.424252E+02  0.334E-01    1.26       0.0  T
   2    -42.4229136  0.225528E-02  0.401E-01    0.98       1.0  T
   3    -42.4279044 -0.499081E-02  0.115E-01    1.15       1.0  T
   4    -42.4279301 -0.257046E-04  0.713E-02    1.13       1.0  T
   5    -42.4279964 -0.662991E-04  0.368E-02    1.13       1.0  T
   6    -42.4280371 -0.406998E-04  0.187E-02    1.13       1.1  T
   7    -42.4280481 -0.110018E-04  0.466E-03    1.14       4.3  T
   8    -42.4280480  0.473790E-07  0.376E-03    1.13       5.3  T
   9    -42.4280484 -0.339783E-06  0.600E-04    1.13      33.4  T
  10    -42.4280484 -0.190518E-08  0.367E-04    1.13      54.5  T
     SCC iter.                  ...        0 min,  0.014 sec
     gradient                   ...        0 min,  0.011 sec
 * total energy  :   -41.9068718 Eh     change       -0.2383971E-01 Eh
   gradient norm :     0.1863037 Eh/α   predicted    -0.1440317E-01 ( -39.58%)
   displ. norm   :     0.4826536 α      lambda       -0.6552578E-01
   maximum displ.:     0.2014025 α      in ANC's #14, #33, #36, ...

........................................................................
.............................. CYCLE    8 ..............................
........................................................................

 iter      E             dE          RMSdq      gap      omega  full diag
   1    -42.5096639 -0.425097E+02  0.789E-01    1.66       0.0  T
   2    -42.5074273  0.223664E-02  0.733E-01    1.04       1.0  T
   3    -42.5208280 -0.134006E-01  0.292E-01    1.43       1.0  T
   4    -42.5209383 -0.110297E-03  0.173E-01    1.32       1.0  T
   5    -42.5215400 -0.601716E-03  0.749E-02    1.34       1.0  T
   6    -42.5217088 -0.168816E-03  0.277E-02    1.35       1.0  T
   7    -42.5217264 -0.176450E-04  0.910E-03    1.36       2.2  T
   8    -42.5217274 -0.101284E-05  0.497E-03    1.36       4.0  T
   9    -42.5217279 -0.427648E-06  0.130E-03    1.36      15.4  T
  10    -42.5217279 -0.235687E-07  0.715E-04    1.36      28.0  T
  11    -42.5217279 -0.538285E-08  0.259E-04    1.36      77.3  T
     SCC iter.                  ...        0 min,  0.015 sec
     gradient                   ...        0 min,  0.011 sec
 * total energy  :   -41.9537371 Eh     change       -0.4686526E-01 Eh
   gradient norm :     0.1788025 Eh/α   predicted    -0.4039827E-01 ( -13.80%)
   displ. norm   :     0.3782893 α      lambda       -0.3247239E-01
   maximum displ.:     0.1703701 α      in ANC's #14, #33, #36, ...

........................................................................
.............................. CYCLE    9 ..............................
........................................................................

 iter      E             dE          RMSdq      gap      omega  full diag
   1    -42.5750379 -0.425750E+02  0.497E-01    1.62       0.0  T
   2    -42.5757909 -0.753039E-03  0.338E-01    1.39       1.0  T
   3    -42.5767580 -0.967117E-03  0.196E-01    1.56       1.0  T
   4    -42.5771098 -0.351800E-03  0.825E-02    1.46       1.0  T
   5    -42.5772661 -0.156287E-03  0.269E-02    1.49       1.0  T
   6    -42.5772804 -0.142831E-04  0.111E-02    1.49       1.8  T
   7    -42.5772820 -0.162104E-05  0.572E-03    1.49       3.5  T
   8    -42.5772829 -0.843389E-06  0.163E-03    1.49      12.3  T
   9    -42.5772829 -0.279391E-07  0.662E-04    1.49      30.2  T
  10    -42.5772829 -0.242129E-08  0.315E-04    1.49      63.6  T
     SCC iter.                  ...        0 min,  0.014 sec
     gradient                   ...        0 min,  0.011 sec
 * total energy  :   -41.9763100 Eh     change       -0.2257291E-01 Eh
   gradient norm :     0.1321489 Eh/α   predicted    -0.1855994E-01 ( -17.78%)
   displ. norm   :     0.2776920 α      lambda       -0.1727641E-01
   maximum displ.:     0.1345180 α      in ANC's #14, #2, #33, ...

........................................................................
.............................. CYCLE   10 ..............................
........................................................................

 iter      E             dE          RMSdq      gap      omega  full diag
   1    -42.6003722 -0.426004E+02  0.313E-01    1.57       0.0  T
   2    -42.6005969 -0.224685E-03  0.182E-01    1.56       1.0  T
   3    -42.6004230  0.173900E-03  0.113E-01    1.54       1.0  T
   4    -42.6006060 -0.182969E-03  0.574E-02    1.57       1.0  T
   5    -42.6007041 -0.981716E-04  0.104E-02    1.56       1.9  T
   6    -42.6007050 -0.891507E-06  0.543E-03    1.56       3.7  T
   7    -42.6007052 -0.212400E-06  0.147E-03    1.56      13.6  T
   8    -42.6007052 -0.168021E-07  0.632E-04    1.56      31.7  T
   9    -42.6007052 -0.175510E-08  0.284E-04    1.56      70.5  T
     SCC iter.                  ...        0 min,  0.012 sec
     gradient                   ...        0 min,  0.011 sec
 * total energy  :   -41.9894143 Eh     change       -0.1310428E-01 Eh
   gradient norm :     0.1189693 Eh/α   predicted    -0.9304329E-02 ( -29.00%)
   displ. norm   :     0.3414440 α      lambda       -0.1958086E-01
   maximum displ.:     0.1708699 α      in ANC's #14, #2, #33, ...

........................................................................
.............................. CYCLE   11 ..............................
........................................................................

 iter      E             dE          RMSdq      gap      omega  full diag
   1    -42.6093211 -0.426093E+02  0.346E-01    1.58       0.0  T
   2    -42.6095964 -0.275319E-03  0.222E-01    1.64       1.0  T
   3    -42.6095927  0.368412E-05  0.141E-01    1.57       1.0  T
   4    -42.6098924 -0.299718E-03  0.441E-02    1.62       1.0  T
   5    -42.6099469 -0.544212E-04  0.123E-02    1.60       1.6  T
   6    -42.6099485 -0.163329E-05  0.635E-03    1.60       3.2  T
   7    -42.6099486 -0.988894E-07  0.362E-03    1.61       5.5  T
   8    -42.6099489 -0.281869E-06  0.125E-03    1.60      16.0  T
   9    -42.6099489 -0.312312E-07  0.519E-04    1.60      38.6  T
  10    -42.6099489 -0.814580E-09  0.234E-04    1.60      85.4  T
     SCC iter.                  ...        0 min,  0.014 sec
     gradient                   ...        0 min,  0.011 sec
 * total energy  :   -42.0041224 Eh     change       -0.1470810E-01 Eh
   gradient norm :     0.1211458 Eh/α   predicted    -0.1093223E-01 ( -25.67%)
   displ. norm   :     0.3704385 α      lambda       -0.1706248E-01
   maximum displ.:     0.1811955 α      in ANC's #14, #2, #1, ...

........................................................................
.............................. CYCLE   12 ..............................
........................................................................

 iter      E             dE          RMSdq      gap      omega  full diag
   1    -42.6068290 -0.426068E+02  0.349E-01    1.56       0.0  T
   2    -42.6071541 -0.325066E-03  0.257E-01    1.66       1.0  T
   3    -42.6077707 -0.616619E-03  0.146E-01    1.60       1.0  T
   4    -42.6078914 -0.120674E-03  0.641E-02    1.63       1.0  T
   5    -42.6079948 -0.103376E-03  0.179E-02    1.63       1.1  T
   6    -42.6080007 -0.596460E-05  0.658E-03    1.62       3.0  T
   7    -42.6080008 -0.603496E-07  0.411E-03    1.62       4.9  T
   8    -42.6080011 -0.298292E-06  0.141E-03    1.62      14.2  T
   9    -42.6080011 -0.385179E-07  0.530E-04    1.62      37.7  T
  10    -42.6080011  0.589530E-09  0.289E-04    1.62      69.2  T
     SCC iter.                  ...        0 min,  0.014 sec
     gradient                   ...        0 min,  0.011 sec
 * total energy  :   -42.0159689 Eh     change       -0.1184657E-01 Eh
   gradient norm :     0.1063274 Eh/α   predicted    -0.9702416E-02 ( -18.10%)
   displ. norm   :     0.4323748 α      lambda       -0.1228040E-01
   maximum displ.:     0.3042189 α      in ANC's #1, #14, #2, ...

........................................................................
.............................. CYCLE   13 ..............................
........................................................................

 iter      E             dE          RMSdq      gap      omega  full diag
   1    -42.5996616 -0.425997E+02  0.398E-01    1.54       0.0  T
   2    -42.5999650 -0.303383E-03  0.293E-01    1.67       1.0  T
   3    -42.6009389 -0.973975E-03  0.165E-01    1.60       1.0  T
   4    -42.6011416 -0.202626E-03  0.701E-02    1.63       1.0  T
   5    -42.6012519 -0.110342E-03  0.197E-02    1.62       1.0  T
   6    -42.6012584 -0.653759E-05  0.735E-03    1.63       2.7  T
   7    -42.6012584  0.122455E-07  0.423E-03    1.62       4.7  T
   8    -42.6012587 -0.259411E-06  0.128E-03    1.63      15.6  T
   9    -42.6012587 -0.342323E-07  0.629E-04    1.62      31.8  T
  10    -42.6012587 -0.270434E-08  0.251E-04    1.62      79.6  T
     SCC iter.                  ...        0 min,  0.014 sec
     gradient                   ...        0 min,  0.011 sec
 * total energy  :   -42.0215114 Eh     change       -0.5542446E-02 Eh
   gradient norm :     0.0859082 Eh/α   predicted    -0.7288162E-02 (  31.50%)
   displ. norm   :     0.4830664 α      lambda       -0.1411613E-01
   maximum displ.:     0.3909467 α      in ANC's #1, #14, #2, ...

........................................................................
.............................. CYCLE   14 ..............................
........................................................................

 iter      E             dE          RMSdq      gap      omega  full diag
   1    -42.6077709 -0.426078E+02  0.429E-01    1.58       0.0  T
   2    -42.6082300 -0.459119E-03  0.280E-01    1.63       1.0  T
   3    -42.6085349 -0.304912E-03  0.174E-01    1.62       1.0  T
   4    -42.6088933 -0.358339E-03  0.601E-02    1.62       1.0  T
   5    -42.6089715 -0.782525E-04  0.181E-02    1.62       1.1  T
   6    -42.6089753 -0.375729E-05  0.878E-03    1.63       2.3  T
   7    -42.6089756 -0.375066E-06  0.491E-03    1.62       4.1  T
   8    -42.6089762 -0.586768E-06  0.128E-03    1.62      15.6  T
   9    -42.6089763 -0.299863E-07  0.668E-04    1.62      29.9  T
  10    -42.6089763 -0.236300E-08  0.275E-04    1.62      72.8  T
     SCC iter.                  ...        0 min,  0.014 sec
     gradient                   ...        0 min,  0.011 sec
 * total energy  :   -42.0261789 Eh     change       -0.4667546E-02 Eh
   gradient norm :     0.1059411 Eh/α   predicted    -0.8706182E-02 (  86.53%)
   displ. norm   :     0.1400566 α      lambda       -0.6630619E-02
   maximum displ.:     0.1173502 α      in ANC's #1, #27, #14, ...

........................................................................
.............................. CYCLE   15 ..............................
........................................................................

 iter      E             dE          RMSdq      gap      omega  full diag
   1    -42.6236626 -0.426237E+02  0.148E-01    1.68       0.0  T
   2    -42.6237029 -0.403507E-04  0.113E-01    1.62       1.0  T
   3    -42.6238767 -0.173736E-03  0.613E-02    1.66       1.0  T
   4    -42.6238999 -0.232369E-04  0.231E-02    1.64       1.0  T
   5    -42.6239122 -0.123442E-04  0.605E-03    1.65       3.3  T
   6    -42.6239126 -0.379858E-06  0.256E-03    1.64       7.8  T
   7    -42.6239126 -0.184778E-07  0.150E-03    1.64      13.3  T
   8    -42.6239127 -0.412379E-07  0.410E-04    1.64      48.8  T
   9    -42.6239127 -0.187733E-08  0.215E-04    1.64      92.8  T
     SCC iter.                  ...        0 min,  0.013 sec
     gradient                   ...        0 min,  0.011 sec
 * total energy  :   -42.0312364 Eh     change       -0.5057419E-02 Eh
   gradient norm :     0.0720229 Eh/α   predicted    -0.3380381E-02 ( -33.16%)
   displ. norm   :     0.1881128 α      lambda       -0.8392097E-02
   maximum displ.:     0.0839929 α      in ANC's #1, #13, #2, ...

........................................................................
.............................. CYCLE   16 ..............................
........................................................................

 iter      E             dE          RMSdq      gap      omega  full diag
   1    -42.6428453 -0.426428E+02  0.222E-01    1.65       0.0  T
   2    -42.6429103 -0.650184E-04  0.131E-01    1.67       1.0  T
   3    -42.6428560  0.543739E-04  0.953E-02    1.65       1.0  T
   4    -42.6430065 -0.150581E-03  0.286E-02    1.66       1.0  T
   5    -42.6430284 -0.218061E-04  0.566E-03    1.66       3.5  T
   6    -42.6430285 -0.134554E-06  0.286E-03    1.66       7.0  T
   7    -42.6430285 -0.347223E-07  0.108E-03    1.66      18.6  T
   8    -42.6430285 -0.132786E-07  0.436E-04    1.66      45.8  T
   9    -42.6430285 -0.409202E-10  0.262E-04    1.66      76.4  T
     SCC iter.                  ...        0 min,  0.013 sec
     gradient                   ...        0 min,  0.011 sec
 * total energy  :   -42.0369411 Eh     change       -0.5704722E-02 Eh
   gradient norm :     0.0399080 Eh/α   predicted    -0.4344704E-02 ( -23.84%)
   displ. norm   :     0.1948982 α      lambda       -0.3895312E-02
   maximum displ.:     0.0946071 α      in ANC's #13, #2, #14, ...

........................................................................
.............................. CYCLE   17 ..............................
........................................................................

 iter      E             dE          RMSdq      gap      omega  full diag
   1    -42.6501823 -0.426502E+02  0.212E-01    1.61       0.0  T
   2    -42.6502781 -0.957872E-04  0.127E-01    1.68       1.0  T
   3    -42.6503091 -0.310257E-04  0.882E-02    1.62       1.0  T
   4    -42.6504246 -0.115501E-03  0.295E-02    1.66       1.0  T
   5    -42.6504461 -0.214864E-04  0.762E-03    1.65       2.6  T
   6    -42.6504470 -0.949184E-06  0.321E-03    1.65       6.2  T
   7    -42.6504471 -0.342152E-07  0.201E-03    1.65       9.9  T
   8    -42.6504471 -0.765388E-07  0.634E-04    1.65      31.6  T
   9    -42.6504471 -0.500693E-08  0.243E-04    1.65      82.2  T
     SCC iter.                  ...        0 min,  0.013 sec
     gradient                   ...        0 min,  0.011 sec
 * total energy  :   -42.0396316 Eh     change       -0.2690473E-02 Eh
   gradient norm :     0.0357685 Eh/α   predicted    -0.2021675E-02 ( -24.86%)
   displ. norm   :     0.1544876 α      lambda       -0.2132993E-02
   maximum displ.:     0.0808531 α      in ANC's #13, #2, #6, ...

........................................................................
.............................. CYCLE   18 ..............................
........................................................................

 iter      E             dE          RMSdq      gap      omega  full diag
   1    -42.6521670 -0.426522E+02  0.164E-01    1.59       0.0  T
   2    -42.6522443 -0.773228E-04  0.102E-01    1.66       1.0  T
   3    -42.6523053 -0.609965E-04  0.671E-02    1.61       1.0  T
   4    -42.6523731 -0.678131E-04  0.236E-02    1.64       1.0  T
   5    -42.6523832 -0.100830E-04  0.748E-03    1.63       2.7  T
   6    -42.6523844 -0.122019E-05  0.270E-03    1.63       7.4  T
   7    -42.6523845 -0.891383E-07  0.153E-03    1.63      13.1  T
   8    -42.6523845 -0.299440E-07  0.492E-04    1.63      40.6  T
   9    -42.6523846 -0.318204E-08  0.178E-04    1.63     112.7  T
     SCC iter.                  ...        0 min,  0.013 sec
     gradient                   ...        0 min,  0.011 sec
 * total energy  :   -42.0411756 Eh     change       -0.1544064E-02 Eh
   gradient norm :     0.0348307 Eh/α   predicted    -0.1091969E-02 ( -29.28%)
   displ. norm   :     0.1398501 α      lambda       -0.1865457E-02
   maximum displ.:     0.0768190 α      in ANC's #13, #6, #1, ...

........................................................................
.............................. CYCLE   19 ..............................
........................................................................

 iter      E             dE          RMSdq      gap      omega  full diag
   1    -42.6527874 -0.426528E+02  0.148E-01    1.59       0.0  T
   2    -42.6528524 -0.649814E-04  0.862E-02    1.64       1.0  T
   3    -42.6528556 -0.323986E-05  0.626E-02    1.60       1.0  T
   4    -42.6529295 -0.738689E-04  0.202E-02    1.62       1.0  T
   5    -42.6529350 -0.552786E-05  0.714E-03    1.62       2.8  T
   6    -42.6529363 -0.125658E-05  0.247E-03    1.62       8.1  T
   7    -42.6529364 -0.948048E-07  0.123E-03    1.62      16.2  T
   8    -42.6529364 -0.164687E-07  0.316E-04    1.62      63.4  T
   9    -42.6529364 -0.126699E-08  0.148E-04    1.62     135.6  T
     SCC iter.                  ...        0 min,  0.013 sec
     gradient                   ...        0 min,  0.011 sec
 * total energy  :   -42.0425453 Eh     change       -0.1369636E-02 Eh
   gradient norm :     0.0330580 Eh/α   predicted    -0.9510013E-03 ( -30.57%)
   displ. norm   :     0.1241460 α      lambda       -0.1780760E-02
   maximum displ.:     0.0718706 α      in ANC's #13, #6, #1, ...

........................................................................
.............................. CYCLE   20 ..............................
........................................................................

 iter      E             dE          RMSdq      gap      omega  full diag
   1    -42.6533555 -0.426534E+02  0.139E-01    1.60       0.0  T
   2    -42.6534101 -0.546346E-04  0.730E-02    1.62       1.0  T
   3    -42.6533841  0.260486E-04  0.528E-02    1.60       1.0  T
   4    -42.6534276 -0.434778E-04  0.179E-02    1.62       1.1  T
   5    -42.6534331 -0.557012E-05  0.586E-03    1.61       3.4  T
   6    -42.6534340 -0.911556E-06  0.186E-03    1.61      10.7  T
   7    -42.6534341 -0.409603E-07  0.986E-04    1.61      20.3  T
   8    -42.6534341 -0.142074E-07  0.262E-04    1.61      76.5  T
     SCC iter.                  ...        0 min,  0.012 sec
     gradient                   ...        0 min,  0.011 sec
 * total energy  :   -42.0438280 Eh     change       -0.1282796E-02 Eh
   gradient norm :     0.0303876 Eh/α   predicted    -0.9041407E-03 ( -29.52%)
   displ. norm   :     0.1055442 α      lambda       -0.1514272E-02
   maximum displ.:     0.0608068 α      in ANC's #13, #6, #33, ...
 * RMSD in coord.:     0.8611185 α      energy gain  -0.8684215E+01 Eh

generating ANC from model Hessian ...
Using Lindh-Hessian (1995)
 Shifting diagonal of input Hessian by    9.9333493355808090E-003
 Lowest  eigenvalues of input Hessian
    0.000000    0.000000    0.000000    0.000000    0.000000    0.000000
    0.010000    0.010090    0.010751    0.011517    0.013091    0.013158
    0.014202    0.015118    0.015591    0.016697    0.018340    0.019681
 Highest eigenvalues
    1.897312    2.242089    2.440703    2.476751    2.701328    3.327740


........................................................................
.............................. CYCLE   21 ..............................
........................................................................

 iter      E             dE          RMSdq      gap      omega  full diag
   1    -42.6546863 -0.426547E+02  0.127E-01    1.62       0.0  T
   2    -42.6547188 -0.325045E-04  0.709E-02    1.61       1.0  T
   3    -42.6547022  0.165909E-04  0.470E-02    1.62       1.0  T
   4    -42.6547369 -0.347547E-04  0.150E-02    1.61       1.3  T
   5    -42.6547421 -0.513940E-05  0.416E-03    1.61       4.8  T
   6    -42.6547425 -0.378463E-06  0.124E-03    1.61      16.1  T
   7    -42.6547425 -0.547264E-08  0.916E-04    1.61      21.8  T
   8    -42.6547425 -0.133796E-07  0.298E-04    1.61      67.2  T
     SCC iter.                  ...        0 min,  0.011 sec
     gradient                   ...        0 min,  0.011 sec
 * total energy  :   -42.0449326 Eh     change       -0.1104583E-02 Eh
   gradient norm :     0.0305549 Eh/α   predicted     0.0000000E+00 (-100.00%)
   displ. norm   :     0.3959280 α      lambda       -0.5243542E-02
   maximum displ.:     0.3404484 α      in ANC's #8, #15, #12, ...

........................................................................
.............................. CYCLE   22 ..............................
........................................................................

 iter      E             dE          RMSdq      gap      omega  full diag
   1    -42.6563080 -0.426563E+02  0.149E-01    1.68       0.0  T
   2    -42.6563864 -0.783879E-04  0.104E-01    1.64       1.0  T
   3    -42.6564237 -0.373001E-04  0.653E-02    1.67       1.0  T
   4    -42.6564721 -0.484297E-04  0.181E-02    1.65       1.1  T
   5    -42.6564771 -0.496345E-05  0.730E-03    1.66       2.7  T
   6    -42.6564785 -0.147293E-05  0.266E-03    1.66       7.5  T
   7    -42.6564787 -0.121744E-06  0.139E-03    1.66      14.4  T
   8    -42.6564787 -0.192363E-07  0.431E-04    1.66      46.4  T
   9    -42.6564787 -0.339887E-08  0.197E-04    1.66     101.7  T
     SCC iter.                  ...        0 min,  0.013 sec
     gradient                   ...        0 min,  0.011 sec
 * total energy  :   -42.0491854 Eh     change       -0.4252760E-02 Eh
   gradient norm :     0.0195858 Eh/α   predicted    -0.3032792E-02 ( -28.69%)
   displ. norm   :     0.6263896 α      lambda       -0.5418398E-02
   maximum displ.:     0.5540917 α      in ANC's #8, #15, #6, ...

........................................................................
.............................. CYCLE   23 ..............................
........................................................................

 iter      E             dE          RMSdq      gap      omega  full diag
   1    -42.6570985 -0.426571E+02  0.226E-01    1.78       0.0  T
   2    -42.6572442 -0.145745E-03  0.147E-01    1.71       1.0  T
   3    -42.6573517 -0.107495E-03  0.994E-02    1.77       1.0  T
   4    -42.6574593 -0.107543E-03  0.361E-02    1.73       1.0  T
   5    -42.6574886 -0.293056E-04  0.137E-02    1.74       1.5  T
   6    -42.6574933 -0.470899E-05  0.442E-03    1.74       4.5  T
   7    -42.6574936 -0.352999E-06  0.191E-03    1.74      10.5  T
   8    -42.6574937 -0.271035E-07  0.440E-04    1.74      45.4  T
   9    -42.6574937 -0.261263E-08  0.235E-04    1.74      84.9  T
     SCC iter.                  ...        0 min,  0.013 sec
     gradient                   ...        0 min,  0.011 sec
 * total energy  :   -42.0530655 Eh     change       -0.3880157E-02 Eh
   gradient norm :     0.0202229 Eh/α   predicted    -0.3772193E-02 (  -2.78%)
   displ. norm   :     0.6439728 α      lambda       -0.4456591E-02
   maximum displ.:     0.4929503 α      in ANC's #8, #7, #6, ...

........................................................................
.............................. CYCLE   24 ..............................
........................................................................

 iter      E             dE          RMSdq      gap      omega  full diag
   1    -42.6543362 -0.426543E+02  0.293E-01    1.84       0.0  T
   2    -42.6545344 -0.198174E-03  0.181E-01    1.79       1.0  T
   3    -42.6545908 -0.564360E-04  0.127E-01    1.84       1.0  T
   4    -42.6547582 -0.167400E-03  0.510E-02    1.80       1.0  T
   5    -42.6548365 -0.782668E-04  0.119E-02    1.82       1.7  T
   6    -42.6548389 -0.235388E-05  0.509E-03    1.82       3.9  T
   7    -42.6548392 -0.322204E-06  0.254E-03    1.82       7.9  T
   8    -42.6548393 -0.848804E-07  0.793E-04    1.82      25.2  T
   9    -42.6548393 -0.125052E-07  0.270E-04    1.82      74.2  T
     SCC iter.                  ...        0 min,  0.013 sec
     gradient                   ...        0 min,  0.011 sec
 * total energy  :   -42.0544914 Eh     change       -0.1425866E-02 Eh
   gradient norm :     0.0290666 Eh/α   predicted    -0.3152374E-02 ( 121.08%)
   displ. norm   :     0.3257741 α      lambda       -0.3476782E-02
   maximum displ.:     0.2073151 α      in ANC's #8, #7, #6, ...

........................................................................
.............................. CYCLE   25 ..............................
........................................................................

 iter      E             dE          RMSdq      gap      omega  full diag
   1    -42.6614021 -0.426614E+02  0.219E-01    1.91       0.0  T
   2    -42.6614470 -0.448453E-04  0.139E-01    1.83       1.0  T
   3    -42.6614190  0.279583E-04  0.105E-01    1.90       1.0  T
   4    -42.6616430 -0.224020E-03  0.186E-02    1.86       1.1  T
   5    -42.6616462 -0.317818E-05  0.755E-03    1.87       2.6  T
   6    -42.6616472 -0.103451E-05  0.312E-03    1.87       6.4  T
   7    -42.6616473 -0.674781E-07  0.194E-03    1.87      10.3  T
   8    -42.6616474 -0.711072E-07  0.478E-04    1.87      41.9  T
   9    -42.6616474 -0.425857E-08  0.196E-04    1.87     101.8  T
     SCC iter.                  ...        0 min,  0.013 sec
     gradient                   ...        0 min,  0.011 sec
 * total energy  :   -42.0566495 Eh     change       -0.2158056E-02 Eh
   gradient norm :     0.0206857 Eh/α   predicted    -0.1922885E-02 ( -10.90%)
   displ. norm   :     0.2473782 α      lambda       -0.1557509E-02
   maximum displ.:     0.1504147 α      in ANC's #6, #12, #8, ...

........................................................................
.............................. CYCLE   26 ..............................
........................................................................

 iter      E             dE          RMSdq      gap      omega  full diag
   1    -42.6609377 -0.426609E+02  0.218E-01    1.79       0.0  T
   2    -42.6610795 -0.141814E-03  0.141E-01    1.87       1.0  T
   3    -42.6612194 -0.139842E-03  0.860E-02    1.81       1.0  T
   4    -42.6612511 -0.317589E-04  0.446E-02    1.84       1.0  T
   5    -42.6613137 -0.625762E-04  0.683E-03    1.83       2.9  T
   6    -42.6613145 -0.730568E-06  0.309E-03    1.83       6.5  T
   7    -42.6613145 -0.526739E-07  0.156E-03    1.83      12.8  T
   8    -42.6613145 -0.323112E-07  0.698E-04    1.83      28.6  T
   9    -42.6613146 -0.125909E-07  0.174E-04    1.83     115.0  T
     SCC iter.                  ...        0 min,  0.013 sec
     gradient                   ...        0 min,  0.011 sec
 * total energy  :   -42.0577910 Eh     change       -0.1141557E-02 Eh
   gradient norm :     0.0219172 Eh/α   predicted    -0.8264128E-03 ( -27.61%)
   displ. norm   :     0.3300839 α      lambda       -0.1713395E-02
   maximum displ.:     0.2460156 α      in ANC's #6, #15, #19, ...

........................................................................
.............................. CYCLE   27 ..............................
........................................................................

 iter      E             dE          RMSdq      gap      omega  full diag
   1    -42.6627577 -0.426628E+02  0.294E-01    1.76       0.0  T
   2    -42.6629698 -0.212131E-03  0.178E-01    1.72       1.0  T
   3    -42.6630204 -0.506080E-04  0.117E-01    1.76       1.0  T
   4    -42.6632118 -0.191393E-03  0.394E-02    1.72       1.0  T
   5    -42.6632541 -0.422871E-04  0.983E-03    1.74       2.0  T
   6    -42.6632558 -0.175438E-05  0.416E-03    1.74       4.8  T
   7    -42.6632559 -0.106036E-06  0.262E-03    1.74       7.6  T
   8    -42.6632560 -0.107796E-06  0.101E-03    1.74      19.9  T
   9    -42.6632561 -0.284007E-07  0.266E-04    1.74      75.3  T
  10    -42.6632561  0.727098E-10  0.199E-04    1.74     100.6  T
     SCC iter.                  ...        0 min,  0.014 sec
     gradient                   ...        0 min,  0.011 sec
 * total energy  :   -42.0589481 Eh     change       -0.1157107E-02 Eh
   gradient norm :     0.0214202 Eh/α   predicted    -0.9500401E-03 ( -17.90%)
   displ. norm   :     0.2465579 α      lambda       -0.9700505E-03
   maximum displ.:     0.1717193 α      in ANC's #6, #12, #21, ...

........................................................................
.............................. CYCLE   28 ..............................
........................................................................

 iter      E             dE          RMSdq      gap      omega  full diag
   1    -42.6616366 -0.426616E+02  0.224E-01    1.68       0.0  T
   2    -42.6617909 -0.154217E-03  0.142E-01    1.65       1.0  T
   3    -42.6618975 -0.106616E-03  0.870E-02    1.67       1.0  T
   4    -42.6619733 -0.758020E-04  0.325E-02    1.65       1.0  T
   5    -42.6620026 -0.292781E-04  0.809E-03    1.67       2.5  T
   6    -42.6620039 -0.132684E-05  0.392E-03    1.66       5.1  T
   7    -42.6620042 -0.288024E-06  0.200E-03    1.66      10.0  T
   8    -42.6620042 -0.433747E-07  0.814E-04    1.66      24.6  T
   9    -42.6620042 -0.163501E-07  0.180E-04    1.66     111.3  T
     SCC iter.                  ...        0 min,  0.013 sec
     gradient                   ...        0 min,  0.011 sec
 * total energy  :   -42.0596403 Eh     change       -0.6921771E-03 Eh
   gradient norm :     0.0198236 Eh/α   predicted    -0.5145115E-03 ( -25.67%)
   displ. norm   :     0.2627965 α      lambda       -0.1059974E-02
   maximum displ.:     0.1587687 α      in ANC's #6, #12, #14, ...

........................................................................
.............................. CYCLE   29 ..............................
........................................................................

 iter      E             dE          RMSdq      gap      omega  full diag
   1    -42.6600644 -0.426601E+02  0.243E-01    1.62       0.0  T
   2    -42.6602181 -0.153748E-03  0.149E-01    1.56       1.0  T
   3    -42.6601670  0.511411E-04  0.980E-02    1.63       1.0  T
   4    -42.6602686 -0.101623E-03  0.546E-02    1.55       1.0  T
   5    -42.6603645 -0.959089E-04  0.133E-02    1.59       1.5  T
   6    -42.6603702 -0.573214E-05  0.507E-03    1.59       3.9  T
   7    -42.6603706 -0.407289E-06  0.222E-03    1.59       9.0  T
   8    -42.6603707 -0.264256E-07  0.715E-04    1.59      28.0  T
   9    -42.6603707 -0.921531E-08  0.255E-04    1.59      78.4  T
     SCC iter.                  ...        0 min,  0.013 sec
     gradient                   ...        0 min,  0.011 sec
 * total energy  :   -42.0603439 Eh     change       -0.7035642E-03 Eh
   gradient norm :     0.0163595 Eh/α   predicted    -0.5665919E-03 ( -19.47%)
   displ. norm   :     0.2391502 α      lambda       -0.9012908E-03
   maximum displ.:     0.1327123 α      in ANC's #12, #14, #6, ...

........................................................................
.............................. CYCLE   30 ..............................
........................................................................

 iter      E             dE          RMSdq      gap      omega  full diag
   1    -42.6561513 -0.426562E+02  0.196E-01    1.54       0.0  T
   2    -42.6562573 -0.106031E-03  0.120E-01    1.51       1.0  T
   3    -42.6562629 -0.559795E-05  0.738E-02    1.54       1.0  T
   4    -42.6563101 -0.471939E-04  0.337E-02    1.50       1.0  T
   5    -42.6563446 -0.345150E-04  0.127E-02    1.53       1.6  T
   6    -42.6563506 -0.599589E-05  0.418E-03    1.52       4.8  T
   7    -42.6563510 -0.329992E-06  0.175E-03    1.52      11.5  T
   8    -42.6563510 -0.979862E-08  0.620E-04    1.52      32.3  T
   9    -42.6563510 -0.843774E-08  0.157E-04    1.52     127.1  T
     SCC iter.                  ...        0 min,  0.013 sec
     gradient                   ...        0 min,  0.011 sec
 * total energy  :   -42.0609150 Eh     change       -0.5710860E-03 Eh
   gradient norm :     0.0158464 Eh/α   predicted    -0.4764201E-03 ( -16.58%)
   displ. norm   :     0.1580686 α      lambda       -0.5947875E-03
   maximum displ.:     0.0979778 α      in ANC's #12, #14, #8, ...

........................................................................
.............................. CYCLE   31 ..............................
........................................................................

 iter      E             dE          RMSdq      gap      omega  full diag
   1    -42.6576539 -0.426577E+02  0.103E-01    1.50       0.0  T
   2    -42.6576767 -0.227869E-04  0.622E-02    1.52       1.0  T
   3    -42.6576670  0.969574E-05  0.412E-02    1.49       1.0  T
   4    -42.6576690 -0.200537E-05  0.254E-02    1.53       1.0  T
   5    -42.6576960 -0.269470E-04  0.295E-03    1.51       6.8  T
   6    -42.6576960 -0.570169E-07  0.167E-03    1.51      12.0  T
   7    -42.6576960 -0.976546E-08  0.522E-04    1.51      38.3  T
   8    -42.6576960 -0.482650E-08  0.176E-04    1.51     113.7  T
     SCC iter.                  ...        0 min,  0.011 sec
     gradient                   ...        0 min,  0.011 sec
 * total energy  :   -42.0613002 Eh     change       -0.3851900E-03 Eh
   gradient norm :     0.0133169 Eh/α   predicted    -0.3048251E-03 ( -20.86%)
   displ. norm   :     0.1289176 α      lambda       -0.4236669E-03
   maximum displ.:     0.0656129 α      in ANC's #14, #5, #12, ...

........................................................................
.............................. CYCLE   32 ..............................
........................................................................

 iter      E             dE          RMSdq      gap      omega  full diag
   1    -42.6577481 -0.426577E+02  0.946E-02    1.50       0.0  T
   2    -42.6577495 -0.136425E-05  0.560E-02    1.51       1.0  T
   3    -42.6576880  0.614805E-04  0.431E-02    1.48       1.0  T
   4    -42.6577541 -0.660846E-04  0.949E-03    1.51       2.1  T
   5    -42.6577568 -0.272305E-05  0.365E-03    1.50       5.5  T
   6    -42.6577570 -0.231649E-06  0.154E-03    1.51      12.9  T
   7    -42.6577571 -0.224913E-07  0.520E-04    1.51      38.4  T
   8    -42.6577571 -0.442505E-08  0.178E-04    1.51     112.5  T
     SCC iter.                  ...        0 min,  0.011 sec
     gradient                   ...        0 min,  0.011 sec
 * total energy  :   -42.0615866 Eh     change       -0.2864788E-03 Eh
   gradient norm :     0.0123835 Eh/α   predicted    -0.2153554E-03 ( -24.83%)
   displ. norm   :     0.1070222 α      lambda       -0.3459855E-03
   maximum displ.:     0.0655981 α      in ANC's #5, #13, #14, ...

........................................................................
.............................. CYCLE   33 ..............................
........................................................................

 iter      E             dE          RMSdq      gap      omega  full diag
   1    -42.6622691 -0.426623E+02  0.885E-02    1.53       0.0  T
   2    -42.6622924 -0.233134E-04  0.494E-02    1.54       1.0  T
   3    -42.6622839  0.852135E-05  0.277E-02    1.53       1.0  T
   4    -42.6622920 -0.816038E-05  0.156E-02    1.54       1.3  T
   5    -42.6622980 -0.591925E-05  0.584E-03    1.53       3.4  T
   6    -42.6622992 -0.119943E-05  0.166E-03    1.53      12.0  T
   7    -42.6622992 -0.392557E-07  0.930E-04    1.53      21.5  T
   8    -42.6622992 -0.835429E-08  0.286E-04    1.53      70.0  T
     SCC iter.                  ...        0 min,  0.011 sec
     gradient                   ...        0 min,  0.011 sec
 * total energy  :   -42.0618193 Eh     change       -0.2326672E-03 Eh
   gradient norm :     0.0091446 Eh/α   predicted    -0.1749761E-03 ( -24.80%)
   displ. norm   :     0.2713554 α      lambda       -0.4566543E-03
   maximum displ.:     0.1722493 α      in ANC's #5, #6, #13, ...

........................................................................
.............................. CYCLE   34 ..............................
........................................................................

 iter      E             dE          RMSdq      gap      omega  full diag
   1    -42.6593954 -0.426594E+02  0.200E-01    1.51       0.0  T
   2    -42.6593611  0.342691E-04  0.127E-01    1.57       1.0  T
   3    -42.6590306  0.330468E-03  0.117E-01    1.46       1.0  T
   4    -42.6594681 -0.437492E-03  0.298E-02    1.54       1.0  T
   5    -42.6594995 -0.313757E-04  0.572E-03    1.53       3.5  T
   6    -42.6594999 -0.405512E-06  0.298E-03    1.53       6.7  T
   7    -42.6595000 -0.623348E-07  0.950E-04    1.53      21.0  T
   8    -42.6595000 -0.225502E-07  0.270E-04    1.53      74.1  T
     SCC iter.                  ...        0 min,  0.011 sec
     gradient                   ...        0 min,  0.011 sec
 * total energy  :   -42.0620722 Eh     change       -0.2528600E-03 Eh
   gradient norm :     0.0234948 Eh/α   predicted    -0.2451422E-03 (  -3.05%)
   displ. norm   :     0.2552599 α      lambda       -0.6003403E-03
   maximum displ.:     0.1942143 α      in ANC's #5, #13, #11, ...

........................................................................
.............................. CYCLE   35 ..............................
........................................................................

 iter      E             dE          RMSdq      gap      omega  full diag
   1    -42.6619593 -0.426620E+02  0.173E-01    1.59       0.0  T
   2    -42.6619979 -0.386163E-04  0.102E-01    1.55       1.0  T
   3    -42.6619169  0.810013E-04  0.794E-02    1.61       1.0  T
   4    -42.6620219 -0.104981E-03  0.354E-02    1.55       1.0  T
   5    -42.6620675 -0.455697E-04  0.580E-03    1.57       3.4  T
   6    -42.6620681 -0.630264E-06  0.294E-03    1.57       6.8  T
   7    -42.6620682 -0.718685E-07  0.122E-03    1.57      16.4  T
   8    -42.6620682 -0.200491E-07  0.483E-04    1.57      41.4  T
   9    -42.6620682 -0.427113E-08  0.178E-04    1.57     112.2  T
     SCC iter.                  ...        0 min,  0.013 sec
     gradient                   ...        0 min,  0.011 sec
 * total energy  :   -42.0625423 Eh     change       -0.4701842E-03 Eh
   gradient norm :     0.0223272 Eh/α   predicted    -0.3197310E-03 ( -32.00%)
   displ. norm   :     0.3813085 α      lambda       -0.1129534E-02
   maximum displ.:     0.2900997 α      in ANC's #5, #11, #4, ...

........................................................................
.............................. CYCLE   36 ..............................
........................................................................

 iter      E             dE          RMSdq      gap      omega  full diag
   1    -42.6634142 -0.426634E+02  0.253E-01    1.63       0.0  T
   2    -42.6635097 -0.955156E-04  0.143E-01    1.62       1.0  T
   3    -42.6634300  0.797319E-04  0.938E-02    1.63       1.0  T
   4    -42.6635637 -0.133673E-03  0.258E-02    1.61       1.0  T
   5    -42.6635852 -0.215147E-04  0.804E-03    1.62       2.5  T
   6    -42.6635861 -0.929747E-06  0.462E-03    1.62       4.3  T
   7    -42.6635864 -0.290699E-06  0.221E-03    1.62       9.0  T
   8    -42.6635866 -0.137920E-06  0.659E-04    1.62      30.4  T
   9    -42.6635866 -0.709847E-08  0.307E-04    1.62      65.0  T
     SCC iter.                  ...        0 min,  0.013 sec
     gradient                   ...        0 min,  0.011 sec
 * total energy  :   -42.0632814 Eh     change       -0.7390542E-03 Eh
   gradient norm :     0.0189866 Eh/α   predicted    -0.6468879E-03 ( -12.47%)
   displ. norm   :     0.2678347 α      lambda       -0.6682450E-03
   maximum displ.:     0.1809618 α      in ANC's #5, #13, #11, ...

........................................................................
.............................. CYCLE   37 ..............................
........................................................................

 iter      E             dE          RMSdq      gap      omega  full diag
   1    -42.6600247 -0.426600E+02  0.219E-01    1.65       0.0  T
   2    -42.6601231 -0.983942E-04  0.137E-01    1.60       1.0  T
   3    -42.6603106 -0.187443E-03  0.904E-02    1.64       1.0  T
   4    -42.6603924 -0.818483E-04  0.373E-02    1.61       1.0  T
   5    -42.6604344 -0.420387E-04  0.105E-02    1.63       1.9  T
   6    -42.6604378 -0.339000E-05  0.397E-03    1.62       5.0  T
   7    -42.6604380 -0.206065E-06  0.176E-03    1.62      11.3  T
   8    -42.6604381 -0.266854E-07  0.657E-04    1.62      30.4  T
   9    -42.6604381 -0.104948E-07  0.268E-04    1.62      74.6  T
     SCC iter.                  ...        0 min,  0.013 sec
     gradient                   ...        0 min,  0.011 sec
 * total energy  :   -42.0636810 Eh     change       -0.3996144E-03 Eh
   gradient norm :     0.0182821 Eh/α   predicted    -0.3580918E-03 ( -10.39%)
   displ. norm   :     0.3246371 α      lambda       -0.1510102E-02
   maximum displ.:     0.1476727 α      in ANC's #9, #11, #3, ...

........................................................................
.............................. CYCLE   38 ..............................
........................................................................

 iter      E             dE          RMSdq      gap      omega  full diag
   1    -42.6780457 -0.426780E+02  0.283E-01    1.59       0.0  T
   2    -42.6787596 -0.713863E-03  0.218E-01    1.52       1.0  T
   3    -42.6795170 -0.757430E-03  0.999E-02    1.59       1.0  T
   4    -42.6793338  0.183175E-03  0.867E-02    1.51       1.0  T
   5    -42.6795601 -0.226243E-03  0.211E-02    1.58       1.0  T
   6    -42.6795769 -0.168191E-04  0.554E-03    1.57       3.6  T
   7    -42.6795772 -0.289085E-06  0.283E-03    1.57       7.1  T
   8    -42.6795772 -0.393390E-07  0.101E-03    1.57      19.8  T
   9    -42.6795772 -0.153630E-07  0.390E-04    1.57      51.3  T
  10    -42.6795772 -0.127978E-08  0.218E-04    1.57      91.6  T
     SCC iter.                  ...        0 min,  0.014 sec
     gradient                   ...        0 min,  0.011 sec
 * total energy  :   -42.0621604 Eh     change        0.1520606E-02 Eh
   gradient norm :     0.0667006 Eh/α   predicted    -0.8346319E-03 (-154.89%)
   displ. norm   :     0.1924058 α      lambda       -0.3860194E-02
   maximum displ.:     0.1041533 α      in ANC's #5, #8, #3, ...

........................................................................
.............................. CYCLE   39 ..............................
........................................................................

 iter      E             dE          RMSdq      gap      omega  full diag
   1    -42.6599645 -0.426600E+02  0.235E-01    1.56       0.0  T
   2    -42.6603213 -0.356734E-03  0.209E-01    1.64       1.0  T
   3    -42.6613159 -0.994566E-03  0.795E-02    1.56       1.0  T
   4    -42.6612103  0.105514E-03  0.683E-02    1.63       1.0  T
   5    -42.6613404 -0.130069E-03  0.150E-02    1.58       1.3  T
   6    -42.6613481 -0.767240E-05  0.542E-03    1.58       3.7  T
   7    -42.6613487 -0.576913E-06  0.262E-03    1.58       7.6  T
   8    -42.6613487 -0.191616E-07  0.118E-03    1.58      17.0  T
   9    -42.6613487 -0.299785E-07  0.343E-04    1.58      58.3  T
  10    -42.6613487 -0.174602E-08  0.163E-04    1.58     122.9  T
     SCC iter.                  ...        0 min,  0.014 sec
     gradient                   ...        0 min,  0.011 sec
 * total energy  :   -42.0642601 Eh     change       -0.2099683E-02 Eh
   gradient norm :     0.0120375 Eh/α   predicted    -0.2001557E-02 (  -4.67%)
   displ. norm   :     0.1493444 α      lambda       -0.3748587E-03
   maximum displ.:     0.0786348 α      in ANC's #8, #5, #2, ...

........................................................................
.............................. CYCLE   40 ..............................
........................................................................

 iter      E             dE          RMSdq      gap      omega  full diag
   1    -42.6617612 -0.426618E+02  0.888E-02    1.60       0.0  T
   2    -42.6617830 -0.218326E-04  0.628E-02    1.58       1.0  T
   3    -42.6618395 -0.564797E-04  0.342E-02    1.60       1.0  T
   4    -42.6618387  0.801924E-06  0.202E-02    1.58       1.0  T
   5    -42.6618522 -0.135572E-04  0.517E-03    1.59       3.9  T
   6    -42.6618531 -0.887732E-06  0.150E-03    1.59      13.3  T
   7    -42.6618532 -0.263680E-07  0.809E-04    1.59      24.7  T
   8    -42.6618532 -0.509915E-08  0.300E-04    1.59      66.8  T
     SCC iter.                  ...        0 min,  0.011 sec
     gradient                   ...        0 min,  0.011 sec
 * total energy  :   -42.0645660 Eh     change       -0.3058875E-03 Eh
   gradient norm :     0.0085687 Eh/α   predicted    -0.1916114E-03 ( -37.36%)
   displ. norm   :     0.5609277 α      lambda       -0.1108306E-02
   maximum displ.:     0.2781847 α      in ANC's #5, #8, #2, ...

........................................................................
.............................. CYCLE   41 ..............................
........................................................................

 iter      E             dE          RMSdq      gap      omega  full diag
   1    -42.6576512 -0.426577E+02  0.228E-01    1.61       0.0  T
   2    -42.6577531 -0.101822E-03  0.136E-01    1.58       1.0  T
   3    -42.6576959  0.571936E-04  0.841E-02    1.61       1.0  T
   4    -42.6578028 -0.106933E-03  0.227E-02    1.58       1.0  T
   5    -42.6578176 -0.148304E-04  0.115E-02    1.60       1.7  T
   6    -42.6578222 -0.454787E-05  0.378E-03    1.59       5.3  T
   7    -42.6578224 -0.198115E-06  0.199E-03    1.59      10.0  T
   8    -42.6578224 -0.374817E-07  0.783E-04    1.59      25.5  T
   9    -42.6578224 -0.138642E-07  0.326E-04    1.59      61.3  T
     SCC iter.                  ...        0 min,  0.013 sec
     gradient                   ...        0 min,  0.011 sec
 * total energy  :   -42.0654341 Eh     change       -0.8681045E-03 Eh
   gradient norm :     0.0176788 Eh/α   predicted    -0.7285109E-03 ( -16.08%)
   displ. norm   :     0.5945586 α      lambda       -0.1663554E-02
   maximum displ.:     0.3059274 α      in ANC's #8, #2, #3, ...

........................................................................
.............................. CYCLE   42 ..............................
........................................................................

 iter      E             dE          RMSdq      gap      omega  full diag
   1    -42.6661551 -0.426662E+02  0.291E-01    1.58       0.0  T
   2    -42.6662130 -0.578841E-04  0.165E-01    1.58       1.0  T
   3    -42.6660752  0.137831E-03  0.879E-02    1.59       1.0  T
   4    -42.6662412 -0.165968E-03  0.207E-02    1.57       1.0  T
   5    -42.6662551 -0.138984E-04  0.971E-03    1.59       2.1  T
   6    -42.6662575 -0.247904E-05  0.464E-03    1.58       4.3  T
   7    -42.6662579 -0.321322E-06  0.198E-03    1.58      10.1  T
   8    -42.6662579 -0.728411E-07  0.680E-04    1.58      29.4  T
   9    -42.6662579 -0.561390E-08  0.363E-04    1.58      55.1  T
     SCC iter.                  ...        0 min,  0.013 sec
     gradient                   ...        0 min,  0.011 sec
 * total energy  :   -42.0663741 Eh     change       -0.9400239E-03 Eh
   gradient norm :     0.0212588 Eh/α   predicted    -0.1125807E-02 (  19.76%)
   displ. norm   :     0.5942615 α      lambda       -0.1359142E-02
   maximum displ.:     0.2868991 α      in ANC's #5, #8, #2, ...
 * RMSD in coord.:     0.9097035 α      energy gain  -0.2254606E-01 Eh

generating ANC from model Hessian ...
Using Lindh-Hessian (1995)
 Shifting diagonal of input Hessian by    9.3985483840745981E-003
 Lowest  eigenvalues of input Hessian
    0.000000    0.000000    0.000000    0.000000    0.000000    0.000000
    0.010000    0.010057    0.010416    0.011021    0.011579    0.012791
    0.014822    0.015720    0.017489    0.018412    0.020580    0.021813
 Highest eigenvalues
    1.877919    2.193376    2.264266    2.641398    2.767642    3.144344


........................................................................
.............................. CYCLE   43 ..............................
........................................................................

 iter      E             dE          RMSdq      gap      omega  full diag
   1    -42.6580030 -0.426580E+02  0.229E-01    1.62       0.0  T
   2    -42.6580540 -0.509653E-04  0.136E-01    1.59       1.0  T
   3    -42.6579230  0.130904E-03  0.818E-02    1.62       1.0  T
   4    -42.6580901 -0.167100E-03  0.171E-02    1.59       1.2  T
   5    -42.6580980 -0.789563E-05  0.652E-03    1.60       3.1  T
   6    -42.6580988 -0.732946E-06  0.394E-03    1.60       5.1  T
   7    -42.6580990 -0.249115E-06  0.221E-03    1.60       9.1  T
   8    -42.6580991 -0.856563E-07  0.753E-04    1.60      26.6  T
   9    -42.6580991 -0.135298E-07  0.332E-04    1.60      60.3  T
     SCC iter.                  ...        0 min,  0.013 sec
     gradient                   ...        0 min,  0.011 sec
 * total energy  :   -42.0672084 Eh     change       -0.8342897E-03 Eh
   gradient norm :     0.0298907 Eh/α   predicted     0.0000000E+00 (-100.00%)
   displ. norm   :     0.2100261 α      lambda       -0.1584830E-02
   maximum displ.:     0.1061893 α      in ANC's #9, #6, #2, ...

........................................................................
.............................. CYCLE   44 ..............................
........................................................................

 iter      E             dE          RMSdq      gap      omega  full diag
   1    -42.6629032 -0.426629E+02  0.191E-01    1.54       0.0  T
   2    -42.6628280  0.751590E-04  0.150E-01    1.64       1.0  T
   3    -42.6629977 -0.169674E-03  0.953E-02    1.54       1.0  T
   4    -42.6630834 -0.857345E-04  0.500E-02    1.61       1.0  T
   5    -42.6631765 -0.930776E-04  0.104E-02    1.58       1.9  T
   6    -42.6631799 -0.336281E-05  0.302E-03    1.58       6.6  T
   7    -42.6631799 -0.537377E-07  0.164E-03    1.58      12.2  T
   8    -42.6631799 -0.189373E-07  0.680E-04    1.58      29.4  T
   9    -42.6631799 -0.944165E-08  0.191E-04    1.58     104.6  T
     SCC iter.                  ...        0 min,  0.013 sec
     gradient                   ...        0 min,  0.011 sec
 * total energy  :   -42.0678025 Eh     change       -0.5941500E-03 Eh
   gradient norm :     0.0169529 Eh/α   predicted    -0.8277584E-03 (  39.32%)
   displ. norm   :     0.2707857 α      lambda       -0.1726198E-02
   maximum displ.:     0.1715473 α      in ANC's #6, #2, #9, ...

........................................................................
.............................. CYCLE   45 ..............................
........................................................................

 iter      E             dE          RMSdq      gap      omega  full diag
   1    -42.6723228 -0.426723E+02  0.225E-01    1.70       0.0  T
   2    -42.6719648  0.358072E-03  0.193E-01    1.51       1.0  T
   3    -42.6726284 -0.663663E-03  0.113E-01    1.67       1.0  T
   4    -42.6728067 -0.178246E-03  0.452E-02    1.60       1.0  T
   5    -42.6728572 -0.504805E-04  0.106E-02    1.62       1.9  T
   6    -42.6728603 -0.313808E-05  0.380E-03    1.62       5.3  T
   7    -42.6728603 -0.335725E-07  0.184E-03    1.62      10.9  T
   8    -42.6728604 -0.550122E-07  0.513E-04    1.62      39.0  T
   9    -42.6728604 -0.244574E-08  0.261E-04    1.62      76.7  T
     SCC iter.                  ...        0 min,  0.013 sec
     gradient                   ...        0 min,  0.011 sec
 * total energy  :   -42.0680579 Eh     change       -0.2553448E-03 Eh
   gradient norm :     0.0237459 Eh/α   predicted    -0.9263868E-03 ( 262.80%)
   displ. norm   :     0.1122104 α      lambda       -0.7983586E-03
   maximum displ.:     0.0546234 α      in ANC's #5, #2, #1, ...

........................................................................
.............................. CYCLE   46 ..............................
........................................................................

 iter      E             dE          RMSdq      gap      omega  full diag
   1    -42.6694998 -0.426695E+02  0.100E-01    1.58       0.0  T
   2    -42.6694962  0.358546E-05  0.794E-02    1.64       1.0  T
   3    -42.6695874 -0.911977E-04  0.445E-02    1.59       1.0  T
   4    -42.6695860  0.138462E-05  0.294E-02    1.62       1.0  T
   5    -42.6696158 -0.297884E-04  0.593E-03    1.61       3.4  T
   6    -42.6696169 -0.109086E-05  0.198E-03    1.61      10.1  T
   7    -42.6696169 -0.215707E-07  0.112E-03    1.61      17.8  T
   8    -42.6696169 -0.150775E-07  0.299E-04    1.61      66.9  T
   9    -42.6696169 -0.113041E-08  0.146E-04    1.61     137.1  T
     SCC iter.                  ...        0 min,  0.013 sec
     gradient                   ...        0 min,  0.011 sec
 * total energy  :   -42.0685965 Eh     change       -0.5386229E-03 Eh
   gradient norm :     0.0071996 Eh/α   predicted    -0.4042051E-03 ( -24.96%)
   displ. norm   :     0.2344285 α      lambda       -0.4525727E-03
   maximum displ.:     0.1377036 α      in ANC's #2, #5, #1, ...

........................................................................
.............................. CYCLE   47 ..............................
........................................................................

 iter      E             dE          RMSdq      gap      omega  full diag
   1    -42.6664987 -0.426665E+02  0.934E-02    1.58       0.0  T
   2    -42.6664734  0.253137E-04  0.673E-02    1.63       1.0  T
   3    -42.6664715  0.186767E-05  0.528E-02    1.58       1.0  T
   4    -42.6665360 -0.644863E-04  0.170E-02    1.61       1.2  T
   5    -42.6665451 -0.906235E-05  0.335E-03    1.60       6.0  T
   6    -42.6665454 -0.287374E-06  0.153E-03    1.61      13.1  T
   7    -42.6665454 -0.127826E-07  0.775E-04    1.60      25.8  T
   8    -42.6665454 -0.108591E-07  0.175E-04    1.60     114.2  T
     SCC iter.                  ...        0 min,  0.011 sec
     gradient                   ...        0 min,  0.011 sec
 * total energy  :   -42.0689451 Eh     change       -0.3485927E-03 Eh
   gradient norm :     0.0067019 Eh/α   predicted    -0.2387343E-03 ( -31.51%)
   displ. norm   :     0.3582390 α      lambda       -0.4681127E-03
   maximum displ.:     0.2132328 α      in ANC's #2, #5, #7, ...

........................................................................
.............................. CYCLE   48 ..............................
........................................................................

 iter      E             dE          RMSdq      gap      omega  full diag
   1    -42.6651249 -0.426651E+02  0.122E-01    1.61       0.0  T
   2    -42.6651309 -0.599663E-05  0.721E-02    1.61       1.0  T
   3    -42.6650750  0.558503E-04  0.490E-02    1.61       1.0  T
   4    -42.6651460 -0.709790E-04  0.893E-03    1.61       2.2  T
   5    -42.6651481 -0.213696E-05  0.329E-03    1.61       6.1  T
   6    -42.6651482 -0.915413E-07  0.220E-03    1.61       9.1  T
   7    -42.6651483 -0.116939E-06  0.616E-04    1.61      32.5  T
   8    -42.6651484 -0.806121E-08  0.185E-04    1.61     108.3  T
     SCC iter.                  ...        0 min,  0.011 sec
     gradient                   ...        0 min,  0.011 sec
 * total energy  :   -42.0693281 Eh     change       -0.3829652E-03 Eh
   gradient norm :     0.0119419 Eh/α   predicted    -0.2640958E-03 ( -31.04%)
   displ. norm   :     0.4545271 α      lambda       -0.5398671E-03
   maximum displ.:     0.2741451 α      in ANC's #2, #5, #6, ...

........................................................................
.............................. CYCLE   49 ..............................
........................................................................

 iter      E             dE          RMSdq      gap      omega  full diag
   1    -42.6653419 -0.426653E+02  0.152E-01    1.65       0.0  T
   2    -42.6653263  0.156331E-04  0.941E-02    1.61       1.0  T
   3    -42.6651212  0.205066E-03  0.873E-02    1.69       1.0  T
   4    -42.6653745 -0.253335E-03  0.174E-02    1.62       1.1  T
   5    -42.6653855 -0.109387E-04  0.417E-03    1.63       4.8  T
   6    -42.6653857 -0.242192E-06  0.222E-03    1.63       9.0  T
   7    -42.6653857 -0.317483E-07  0.649E-04    1.63      30.8  T
   8    -42.6653857 -0.888576E-08  0.205E-04    1.63      97.8  T
     SCC iter.                  ...        0 min,  0.011 sec
     gradient                   ...        0 min,  0.011 sec
 * total energy  :   -42.0697540 Eh     change       -0.4259773E-03 Eh
   gradient norm :     0.0129018 Eh/α   predicted    -0.3257013E-03 ( -23.54%)
   displ. norm   :     0.4529001 α      lambda       -0.5236715E-03
   maximum displ.:     0.2863980 α      in ANC's #2, #5, #4, ...

........................................................................
.............................. CYCLE   50 ..............................
........................................................................

 iter      E             dE          RMSdq      gap      omega  full diag
   1    -42.6685183 -0.426685E+02  0.154E-01    1.68       0.0  T
   2    -42.6684896  0.286404E-04  0.979E-02    1.62       1.0  T
   3    -42.6682948  0.194845E-03  0.922E-02    1.71       1.0  T
   4    -42.6685664 -0.271596E-03  0.169E-02    1.65       1.2  T
   5    -42.6685753 -0.891846E-05  0.468E-03    1.65       4.3  T
   6    -42.6685757 -0.431006E-06  0.220E-03    1.65       9.1  T
   7    -42.6685757 -0.277831E-07  0.753E-04    1.65      26.6  T
   8    -42.6685758 -0.747293E-08  0.189E-04    1.65     105.9  T
     SCC iter.                  ...        0 min,  0.011 sec
     gradient                   ...        0 min,  0.011 sec
 * total energy  :   -42.0701574 Eh     change       -0.4033655E-03 Eh
   gradient norm :     0.0093943 Eh/α   predicted    -0.3155451E-03 ( -21.77%)
   displ. norm   :     0.3981513 α      lambda       -0.4227842E-03
   maximum displ.:     0.2759757 α      in ANC's #2, #5, #4, ...

........................................................................
.............................. CYCLE   51 ..............................
........................................................................

 iter      E             dE          RMSdq      gap      omega  full diag
   1    -42.6735157 -0.426735E+02  0.139E-01    1.69       0.0  T
   2    -42.6734985  0.171139E-04  0.866E-02    1.64       1.0  T
   3    -42.6733489  0.149675E-03  0.809E-02    1.72       1.0  T
   4    -42.6735529 -0.203989E-03  0.164E-02    1.67       1.2  T
   5    -42.6735613 -0.844207E-05  0.417E-03    1.67       4.8  T
   6    -42.6735616 -0.330008E-06  0.196E-03    1.67      10.2  T
   7    -42.6735617 -0.262181E-07  0.674E-04    1.67      29.7  T
   8    -42.6735617 -0.474826E-08  0.144E-04    1.67     139.1  T
     SCC iter.                  ...        0 min,  0.011 sec
     gradient                   ...        0 min,  0.011 sec
 * total energy  :   -42.0704746 Eh     change       -0.3171914E-03 Eh
[...]
C            0.57187926199374       -0.03882502596221       -0.03214516357914
C            0.06657799397180        1.26494386314570        0.23041639901369
O            0.65330710086819        2.25870723724402        0.52663210936008
N           -1.48764818920296        1.46219055435706        0.10892907943458
C           -1.95420727864455        2.62301279676318        0.88186682551906
C           -2.21470682021351        0.91345775880292       -0.74683395575047
O           -2.74981764273434        0.26160196284273       -1.53415137852030
N           -0.79159892318490       -2.11526317579355       -0.46063940482098
C           -1.42910808363156       -3.32644889223793       -0.21402310960310
H            2.73814726326647        1.78784955205539       -0.52517220684215
H            3.59625745856895        0.46949320092411       -1.34069885770765
H            2.00428614807309        0.97942050461204       -1.92280072482080
H            3.82720300685578       -0.95737907439384        0.21935916305881
H           -1.36509037549254        2.68270101648555        1.79554543985548
H           -1.80242436899566        3.54019620529600        0.31064050866555
H           -3.00813600069964        2.50772526992592        1.12165443940038
H           -1.48710403915621       -3.55895733412594        0.85156223968578
H           -0.87438184869312       -4.11074742819833       -0.73295247380310
H           -2.43080633804536       -3.28035439545260       -0.64511614282370
H            1.57358551274705       -2.08072966215221        1.66578679306852

 Bond Distances (Angstroems)
 ---------------------------
C1-N2=1.4500         C1-H15=1.0930        C1-H16=1.0872        C1-H17=1.0903        N2-C1=1.4500         N2-C3=1.3691         
N2-C6=1.4284         C3-N2=1.3691         C3-N4=1.2578         C3-H18=1.0859        N4-C3=1.2578         N4-H25=1.0140        
C5-C6=1.3497         C5-N13=1.1793        C6-N2=1.4284         C6-C5=1.3497         C6-C7=1.4227         C7-C6=1.4227         
C7-O8=1.1915         C7-N9=1.5714         O8-C7=1.1915         N9-C7=1.5714         N9-C10=1.4706        N9-C11=1.2498        
C10-N9=1.4706        C10-H19=1.0888       C10-H20=1.0911       C10-H21=1.0870       C11-N9=1.2498        C11-O12=1.1537       
O12-C11=1.1537       N13-C5=1.1793        N13-C14=1.3908       C14-N13=1.3908       C14-H22=1.0922       C14-H23=1.0918       
C14-H24=1.0915       H15-C1=1.0930        H16-C1=1.0872        H17-C1=1.0903        H18-C3=1.0859        H19-C10=1.0888       
H20-C10=1.0911       H21-C10=1.0870       H22-C14=1.0922       H23-C14=1.0918       H24-C14=1.0915       H25-N4=1.0140        
 C  H  Rav=1.0899 sigma=0.0024  Rmin=1.0859  Rmax=1.0930    10
 C  C  Rav=1.3862 sigma=0.0365  Rmin=1.3497  Rmax=1.4227     2
 N  H  Rav=1.0140 sigma=0.0000  Rmin=1.0140  Rmax=1.0140     1
 N  C  Rav=1.3741 sigma=0.1175  Rmin=1.1793  Rmax=1.5714     9
 O  C  Rav=1.1726 sigma=0.0189  Rmin=1.1537  Rmax=1.1915     2

 selected bond angles (degree)
 --------------------
H15-C1-N2=111.10               H16-C1-N2=109.70               H16-C1-H15=108.72              H17-C1-N2=109.88               
H17-C1-H15=108.64              H17-C1-H16=108.76              C3-N2-C1=118.85                C6-N2-C1=115.65                
C6-N2-C3=125.44                N4-C3-N2=132.43                H18-C3-N2=112.20               H18-C3-N4=115.37               
H25-N4-C3=120.09               N13-C5-C6=170.72               C5-C6-N2=119.15                C7-C6-N2=116.08                
C7-C6-C5=124.76                O8-C7-C6=129.44                N9-C7-C6=116.88                N9-C7-O8=113.68                
C10-N9-C7=111.85               C11-N9-C7=124.97               C11-N9-C10=121.46              H19-C10-N9=108.22              
H20-C10-N9=110.13              H20-C10-H19=108.54             H21-C10-N9=109.87              H21-C10-H19=110.20             
H21-C10-H20=109.85             

 selected dihedral angles (degree)
 ---------------------------------
C3-N2-C1-H15=261.80           C3-N2-C1-H16= 22.03           C3-N2-C1-H17=141.55           C6-N2-C1-H15= 79.34           
C6-N2-C1-H16=199.57           C6-N2-C1-H17=319.09           N4-C3-N2-C1=176.42            N4-C3-N2-C6=359.14            
H18-C3-N2-C1=356.03           H18-C3-N2-C6=178.76           H25-N4-C3-N2=358.03           H25-N4-C3-H18=178.42          
C5-C6-N2-C1=131.93            C5-C6-N2-C3=309.29            C7-C6-N2-C1=312.10            C7-C6-N2-C3=129.46            
N2-C6-C5-N13=294.58           C7-C6-C5-N13=114.39           O8-C7-C6-N2=349.33            O8-C7-C6-C5=169.51            
N9-C7-C6-N2=168.73            N9-C7-C6-C5=348.91            C10-N9-C7-C6=157.48           C10-N9-C7-O8=336.98           
C11-N9-C7-C6=322.67           C11-N9-C7-O8=142.17           H19-C10-N9-C7=323.60          H19-C10-N9-C11=157.81         
H20-C10-N9-C7= 82.10          H20-C10-N9-C11=276.32         H21-C10-N9-C7=203.23          H21-C10-N9-C11= 37.45         
           -------------------------------------------------
          |                Final Singlepoint                |
           -------------------------------------------------

          ...................................................
          :                      SETUP                      :
          :.................................................:
          :  # basis functions                  67          :
          :  # atomic orbitals                  67          :
          :  # shells                           39          :
          :  # electrons                        74          :
          :  max. iterations                   250          :
          :  Hamiltonian                  GFN2-xTB          :
          :  restarted?                      false          :
          :  GBSA solvation                  false          :
          :  PC potential                    false          :
          :  electronic temp.         5000.0000000     K    :
          :  accuracy                    1.0000000          :
          :  -> integral cutoff          0.2500000E+02      :
          :  -> integral neglect         0.1000000E-07      :
          :  -> SCF convergence          0.1000000E-05 Eh   :
          :  -> wf. convergence          0.1000000E-03 e    :
          :  Broyden damping             0.4000000          :
          ...................................................

 iter      E             dE          RMSdq      gap      omega  full diag
   1    -42.6835263 -0.426835E+02  0.844E-05    1.79       0.0  T
   2    -42.6835263 -0.171667E-10  0.644E-05    1.79     310.5  T
   3    -42.6835263 -0.901537E-10  0.277E-05    1.79     723.3  T

   *** convergence criteria satisfied after 3 iterations ***

         #    Occupation            Energy/Eh            Energy/eV
      -------------------------------------------------------------
         1        2.0000           -0.9439970             -25.6875
       ...           ...                  ...                  ...
        31        1.9994           -0.6144567             -16.7202
        32        1.9991           -0.6085757             -16.5602
        33        1.9991           -0.6072348             -16.5237
        34        1.9984           -0.5988601             -16.2958
        35        1.9860           -0.5644812             -15.3603
        36        1.8630           -0.5273445             -14.3498
        37        1.8055           -0.5212937             -14.1851 (HOMO)
        38        0.2555           -0.4555958             -12.3974 (LUMO)
        39        0.0641           -0.4320577             -11.7569
        40        0.0269           -0.4179842             -11.3739
        41        0.0035           -0.3856666             -10.4945
        42        0.0005           -0.3538847              -9.6297
       ...           ...                  ...                  ...
        67                          1.0090643              27.4580
      -------------------------------------------------------------
                  HL-Gap            0.0656978 Eh            1.7877 eV
             Fermi-level           -0.4860148 Eh          -13.2251 eV

 SCC (total)                   0 d,  0 h,  0 min,  0.021 sec
 SCC setup                      ...        0 min,  0.000 sec (  0.881%)
 Dispersion                     ...        0 min,  0.000 sec (  0.900%)
 classical contributions        ...        0 min,  0.000 sec (  0.336%)
 integral evaluation            ...        0 min,  0.004 sec ( 20.453%)
 iterations                     ...        0 min,  0.005 sec ( 23.181%)
 molecular gradient             ...        0 min,  0.011 sec ( 53.622%)
 printout                       ...        0 min,  0.000 sec (  0.567%)

         :::::::::::::::::::::::::::::::::::::::::::::::::::::
         ::                     SUMMARY                     ::
         :::::::::::::::::::::::::::::::::::::::::::::::::::::
         :: total energy             -42.074346503074 Eh    ::
         :: gradient norm              0.002467734358 Eh/a0 ::
         :: HOMO-LUMO gap              1.787728564978 eV    ::
         ::.................................................::
         :: SCC energy               -42.683526265694 Eh    ::
         :: -> isotropic ES            0.120472350765 Eh    ::
         :: -> anisotropic ES         -0.002789034170 Eh    ::
         :: -> anisotropic XC          0.028733184264 Eh    ::
         :: -> dispersion             -0.020739865691 Eh    ::
         :: repulsion energy           0.608929385335 Eh    ::
         :: add. restraining           0.000038309239 Eh    ::
         :: total charge               1.000000000000 e     ::
         :::::::::::::::::::::::::::::::::::::::::::::::::::::

           -------------------------------------------------
          |                Property Printout                |
           -------------------------------------------------

    * Orbital Energies and Occupations

         #    Occupation            Energy/Eh            Energy/eV
      -------------------------------------------------------------
         1        2.0000           -0.9439970             -25.6875
       ...           ...                  ...                  ...
        25        2.0000           -0.6745675             -18.3559
        26        2.0000           -0.6638093             -18.0632
        27        1.9999           -0.6399043             -17.4127
        28        1.9998           -0.6345909             -17.2681
        29        1.9998           -0.6293265             -17.1248
        30        1.9996           -0.6213112             -16.9067
        31        1.9994           -0.6144567             -16.7202
        32        1.9991           -0.6085757             -16.5602
        33        1.9991           -0.6072348             -16.5237
        34        1.9984           -0.5988601             -16.2958
        35        1.9860           -0.5644812             -15.3603
        36        1.8630           -0.5273445             -14.3498
        37        1.8055           -0.5212937             -14.1851 (HOMO)
        38        0.2555           -0.4555958             -12.3974 (LUMO)
        39        0.0641           -0.4320577             -11.7569
        40        0.0269           -0.4179842             -11.3739
        41        0.0035           -0.3856666             -10.4945
        42        0.0005           -0.3538847              -9.6297
        43        0.0000           -0.3066407              -8.3441
        44        0.0000           -0.2604390              -7.0869
        45                         -0.1595157              -4.3406
        46                         -0.1187645              -3.2317
        47                         -0.0967935              -2.6339
        48                         -0.0435971              -1.1863
       ...                                ...                  ...
        67                          1.0090643              27.4580
      -------------------------------------------------------------
                  HL-Gap            0.0656978 Eh            1.7877 eV
             Fermi-level           -0.4860148 Eh          -13.2251 eV

     #   Z          covCN         q      C6AA      α(0)
     1   6 C        3.702    -0.069    21.986     6.704
     2   7 N        2.739    -0.030    21.816     6.937
     3   6 C        2.761     0.124    25.270     8.232
     4   7 N        1.772    -0.270    27.828     7.811
     5   6 C        1.909     0.087    28.933     8.687
     6   6 C        2.886    -0.003    28.108     8.692
     7   6 C        2.746     0.261    22.607     7.785
     8   8 O        0.857    -0.292    19.644     5.942
     9   7 N        2.710    -0.050    22.211     7.000
    10   6 C        3.706    -0.061    21.819     6.677
    11   6 C        1.792     0.307    24.291     7.966
    12   8 O        0.856    -0.140    17.113     5.546
    13   7 N        1.821    -0.002    21.988     6.948
    14   6 C        3.686    -0.057    21.800     6.684
    15   1 H        0.924     0.098     1.801     2.099
    16   1 H        0.925     0.089     1.887     2.148
    17   1 H        0.924     0.071     2.070     2.250
    18   1 H        0.925     0.098     1.804     2.100
    19   1 H        0.925     0.120     1.610     1.984
    20   1 H        0.924     0.112     1.682     2.028
    21   1 H        0.925     0.097     1.810     2.104
    22   1 H        0.924     0.103     1.760     2.075
    23   1 H        0.924     0.128     1.548     1.946
    24   1 H        0.924     0.122     1.600     1.978
    25   1 H        0.860     0.157     1.356     1.824

 Mol. C6AA /au·bohr⁶  :       6653.510936
 Mol. C8AA /au·bohr⁸  :     152611.996862
 Mol. α(0) /au        :        124.148622


Wiberg/Mayer (AO) data.
largest (>0.10) Wiberg bond orders for each atom

 ---------------------------------------------------------------------------
     #   Z sym  total        # sym  WBO       # sym  WBO       # sym  WBO
 ---------------------------------------------------------------------------
     1   6 C    3.934 --     2 N    0.989    17 H    0.975    16 H    0.969
                            15 H    0.956
     2   7 N    3.415 --     3 C    1.182     6 C    0.999     1 C    0.989
                             4 N    0.139
     3   6 C    3.949 --     4 N    1.786     2 N    1.182    18 H    0.926
     4   7 N    2.907 --     3 C    1.786    25 H    0.934     2 N    0.139
     5   6 C    3.882 --    13 N    2.236     6 C    1.385
     6   6 C    3.866 --     5 C    1.385     7 C    1.176     2 N    0.999
                            13 N    0.112
     7   6 C    3.852 --     8 O    1.793     6 C    1.176     9 N    0.728
     8   8 O    2.167 --     7 C    1.793
     9   7 N    3.562 --    11 C    1.572    10 C    0.921     7 C    0.728
                            12 O    0.225
    10   6 C    3.884 --    21 H    0.975    19 H    0.967    20 H    0.965
                             9 N    0.921
    11   6 C    3.710 --    12 O    2.029     9 N    1.572
    12   8 O    2.349 --    11 C    2.029     9 N    0.225
    13   7 N    3.544 --     5 C    2.236    14 C    1.041     6 C    0.112
    14   6 C    3.928 --    13 N    1.041    22 H    0.948    24 H    0.940
                            23 H    0.932
    15   1 H    0.975 --     1 C    0.956
    16   1 H    0.988 --     1 C    0.969
    17   1 H    0.988 --     1 C    0.975
    18   1 H    0.977 --     3 C    0.926
    19   1 H    0.984 --    10 C    0.967
    20   1 H    0.987 --    10 C    0.965
    21   1 H    0.990 --    10 C    0.975
    22   1 H    0.979 --    14 C    0.948
    23   1 H    0.979 --    14 C    0.932
    24   1 H    0.979 --    14 C    0.940
    25   1 H    0.966 --     4 N    0.934
 ---------------------------------------------------------------------------

Topologies differ in total number of bonds
Writing topology from bond orders to xtbtopo.mol

molecular dipole:
                 x           y           z       tot (Debye)
 q only:       -1.236      -0.653      -0.271
   full:       -1.590      -0.504      -0.389       4.354
molecular quadrupole (traceless):
                xx          xy          yy          xz          yz          zz
 q only:        5.751       0.267      11.087      -8.156       3.007     -16.838
  q+dip:        5.875       2.022       9.876     -10.093       2.640     -15.751
   full:        5.684       0.763       9.121     -11.251       2.043     -14.806

           -------------------------------------------------
          |                Geometry Summary                 |
           -------------------------------------------------

      molecular mass/u    :      195.1988581
   center of mass at/Å    :        0.0182520       0.0030509      -0.0552209
  moments of inertia/u·Å² :        0.6339322E+03   0.8595965E+03   0.1290592E+04
rotational constants/cm⁻¹ :        0.2659217E-01   0.1961110E-01   0.1306194E-01

 * 21 selected distances

     #   Z          #   Z                                           value/Å
     1   6 C        2   7 N                                       1.4500249
     2   7 N        3   6 C                                       1.3691424
     3   6 C        4   7 N                                       1.2578023
     5   6 C        6   6 C                                       1.3497185
     6   6 C        7   6 C                                       1.4227022
     7   6 C        8   8 O                                       1.1914532
     9   7 N       10   6 C                                       1.4705845 (max)
     9   7 N       11   6 C                                       1.2498210
    11   6 C       12   8 O                                       1.1537454
     5   6 C       13   7 N                                       1.1792954
    13   7 N       14   6 C                                       1.3907583
     1   6 C       15   1 H                                       1.0930419
     1   6 C       16   1 H                                       1.0871866
     1   6 C       17   1 H                                       1.0903447
     3   6 C       18   1 H                                       1.0858731 (min)
    10   6 C       19   1 H                                       1.0887747
    10   6 C       20   1 H                                       1.0911293
    10   6 C       21   1 H                                       1.0869937
    14   6 C       22   1 H                                       1.0921978
    14   6 C       23   1 H                                       1.0918486
    14   6 C       24   1 H                                       1.0914969

 * 4 distinct bonds (by element types)

   Z      Z             #   av. dist./Å        max./Å        min./Å
   1 H    6 C          10     1.0898887     1.0930419     1.0858731
   6 C    6 C           2     1.3862104     1.4227022     1.3497185
   6 C    7 N           7     1.3382041     1.4705845     1.1792954
   6 C    8 O           2     1.1725993     1.1914532     1.1537454


optimized geometry written to: xtbopt.xyz


           -------------------------------------------------
          | TOTAL ENERGY              -42.074346503074 Eh   |
          | GRADIENT NORM               0.002467734358 Eh/α |
          | HOMO-LUMO GAP               1.787728564978 eV   |
           -------------------------------------------------

------------------------------------------------------------------------
 * finished run on 2024/06/05 at 19:58:58.826     
------------------------------------------------------------------------
 total:
 * wall-time:     0 d,  0 h,  0 min,  2.617 sec
 *  cpu-time:     0 d,  0 h,  0 min,  2.597 sec
 * ratio c/w:     0.992 speedup
 SCF:
 * wall-time:     0 d,  0 h,  0 min,  0.036 sec
 *  cpu-time:     0 d,  0 h,  0 min,  0.036 sec
 * ratio c/w:     1.000 speedup
 ANC optimizer:
 * wall-time:     0 d,  0 h,  0 min,  2.553 sec
 *  cpu-time:     0 d,  0 h,  0 min,  2.549 sec
 * ratio c/w:     0.998 speedup

