      -----------------------------------------------------------      
     |                   =====================                   |     
     |                           x T B                           |     
     |                   =====================                   |     
     |                         S. Grimme                         |     
     |          Mulliken Center for Theoretical Chemistry        |     
     |                    University of Bonn                     |     
      -----------------------------------------------------------      

   * xtb version 6.6.1 (8d0f1dd) compiled by 'conda@1efc2f54142f' on 2023-08-01

   xtb is free software: you can redistribute it and/or modify it under
   the terms of the GNU Lesser General Public License as published by
   the Free Software Foundation, either version 3 of the License, or
   (at your option) any later version.
   
   xtb is distributed in the hope that it will be useful,
   but WITHOUT ANY WARRANTY; without even the implied warranty of
   MERCHANTABILITY or FITNESS FOR A PARTICULAR PURPOSE.  See the
   GNU Lesser General Public License for more details.
   
   Cite this work as:
   * C. Bannwarth, E. Caldeweyher, S. Ehlert, A. Hansen, P. Pracht,
     J. Seibert, S. Spicher, S. Grimme, WIREs Comput. Mol. Sci., 2020, 11,
     e01493. DOI: 10.1002/wcms.1493
   
   for GFN2-xTB:
   * C. Bannwarth, S. Ehlert and S. Grimme., J. Chem. Theory Comput., 2019,
     15, 1652-1671. DOI: 10.1021/acs.jctc.8b01176
   for GFN1-xTB:
   * S. Grimme, C. Bannwarth, P. Shushkov, J. Chem. Theory Comput., 2017,
     13, 1989-2009. DOI: 10.1021/acs.jctc.7b00118
   for GFN0-xTB:
   * P. Pracht, E. Caldeweyher, S. Ehlert, S. Grimme, ChemRxiv, 2019, preprint.
     DOI: 10.26434/chemrxiv.8326202.v1
   for GFN-FF:
   * S. Spicher and S. Grimme, Angew. Chem. Int. Ed., 2020, 59, 15665-15673.
     DOI: 10.1002/anie.202004239
   
   for ALPB and GBSA implicit solvation:
   * S. Ehlert, M. Stahn, S. Spicher, S. Grimme, J. Chem. Theory Comput.,
     2021, 17, 4250-4261. DOI: 10.1021/acs.jctc.1c00471
   
   for DFT-D4:
   * E. Caldeweyher, C. Bannwarth and S. Grimme, J. Chem. Phys., 2017,
     147, 034112. DOI: 10.1063/1.4993215
   * E. Caldeweyher, S. Ehlert, A. Hansen, H. Neugebauer, S. Spicher,
     C. Bannwarth and S. Grimme, J. Chem. Phys., 2019, 150, 154122.
     DOI: 10.1063/1.5090222
   * E. Caldeweyher, J.-M. Mewes, S. Ehlert and S. Grimme, Phys. Chem. Chem. Phys.
     2020, 22, 8499-8512. DOI: 10.1039/D0CP00502A
   
   for sTDA-xTB:
   * S. Grimme and C. Bannwarth, J. Chem. Phys., 2016, 145, 054103.
     DOI: 10.1063/1.4959605
   
   in the mass-spec context:
   * V. Asgeirsson, C. Bauer and S. Grimme, Chem. Sci., 2017, 8, 4879.
     DOI: 10.1039/c7sc00601b
   * J. Koopman and S. Grimme, ACS Omega 2019, 4, 12, 15120-15133.
     DOI: 10.1021/acsomega.9b02011
   
   for metadynamics refer to:
   * S. Grimme, J. Chem. Theory Comput., 2019, 155, 2847-2862
     DOI: 10.1021/acs.jctc.9b00143
   
   for SPH calculations refer to:
   * S. Spicher and S. Grimme, J. Chem. Theory Comput., 2021, 17, 1701-1714
     DOI: 10.1021/acs.jctc.0c01306
   
   with help from (in alphabetical order)
   P. Atkinson, C. Bannwarth, F. Bohle, G. Brandenburg, E. Caldeweyher
   M. Checinski, S. Dohm, S. Ehlert, S. Ehrlich, I. Gerasimov, C. Hölzer
   A. Katbashev, J. Koopman, C. Lavigne, S. Lehtola, F. März, M. Müller,
   F. Musil, H. Neugebauer, J. Pisarek, C. Plett, P. Pracht, F. Pultar,
   J. Seibert, P. Shushkov, S. Spicher, M. Stahn, M. Steiner, T. Strunk,
   J. Stückrath, T. Rose, and J. Unsleber
   
 * started run on 2024/06/05 at 20:00:08.717     

           -------------------------------------------------
          |                Calculation Setup                |
           -------------------------------------------------

          program call               : xtb struc.xyz --opt loose --input .xc1 --gfn2
          hostname                   : n-62-21-69
          coordinate file            : struc.xyz
          omp threads                :                     1

   ID    Z sym.   atoms
    1    6 C      1, 3, 5-7, 10, 11, 14
    2    7 N      2, 4, 9, 13
    3    8 O      8, 12
    4    1 H      15-25
constraining bond 4 13 to    4.8400000 Å, actual value:    2.4476530 Å

           -------------------------------------------------
          |                 G F N 2 - x T B                 |
           -------------------------------------------------

        Reference                      10.1021/acs.jctc.8b01176
      * Hamiltonian:
        H0-scaling (s, p, d)           1.850000    2.230000    2.230000
        zeta-weighting                 0.500000
      * Dispersion:
        s8                             2.700000
        a1                             0.520000
        a2                             5.000000
        s9                             5.000000
      * Repulsion:
        kExp                           1.500000    1.000000
        rExp                           1.000000
      * Coulomb:
        alpha                          2.000000
        third order                    shell-resolved
        anisotropic                    true
        a3                             3.000000
        a5                             4.000000
        cn-shift                       1.200000
        cn-exp                         4.000000
        max-rad                        5.000000


          ...................................................
          :                      SETUP                      :
          :.................................................:
          :  # basis functions                  67          :
          :  # atomic orbitals                  67          :
          :  # shells                           39          :
          :  # electrons                        74          :
          :  max. iterations                   250          :
          :  Hamiltonian                  GFN2-xTB          :
          :  restarted?                      false          :
          :  GBSA solvation                  false          :
          :  PC potential                    false          :
          :  electronic temp.         5000.0000000     K    :
          :  accuracy                    1.0000000          :
          :  -> integral cutoff          0.2500000E+02      :
          :  -> integral neglect         0.1000000E-07      :
          :  -> SCF convergence          0.1000000E-05 Eh   :
          :  -> wf. convergence          0.1000000E-03 e    :
          :  Broyden damping             0.4000000          :
          ...................................................

 iter      E             dE          RMSdq      gap      omega  full diag
   1    -42.5894031 -0.425894E+02  0.445E+00    3.52       0.0  T
   2    -42.7683054 -0.178902E+00  0.251E+00    3.36       1.0  T
   3    -42.7759211 -0.761567E-02  0.147E+00    3.35       1.0  T
   4    -42.7728404  0.308066E-02  0.553E-01    3.33       1.0  T
   5    -42.7789548 -0.611444E-02  0.112E-01    3.35       1.0  T
   6    -42.7790473 -0.924914E-04  0.614E-02    3.33       1.0  T
   7    -42.7790721 -0.247928E-04  0.258E-02    3.34       1.0  T
   8    -42.7790772 -0.508996E-05  0.938E-03    3.34       2.1  T
   9    -42.7790779 -0.669422E-06  0.448E-03    3.34       4.5  T
  10    -42.7790780 -0.821511E-07  0.115E-03    3.34      17.4  T
  11    -42.7790780 -0.322662E-08  0.553E-04    3.34      36.2  T
  12    -42.7790780 -0.287052E-08  0.180E-04    3.34     111.1  T

   *** convergence criteria satisfied after 12 iterations ***

         #    Occupation            Energy/Eh            Energy/eV
      -------------------------------------------------------------
         1        2.0000           -0.9185990             -24.9964
       ...           ...                  ...                  ...
        31        1.9996           -0.6230278             -16.9534
        32        1.9995           -0.6194601             -16.8564
        33        1.9979           -0.5974976             -16.2587
        34        1.9932           -0.5789629             -15.7544
        35        1.9817           -0.5631863             -15.3251
        36        1.9779           -0.5602245             -15.2445
        37        1.9748           -0.5581234             -15.1873 (HOMO)
        38        0.0652           -0.4353579             -11.8467 (LUMO)
        39        0.0099           -0.4050467             -11.0219
        40        0.0013           -0.3732218             -10.1559
        41        0.0000           -0.2886859              -7.8555
        42                         -0.2065804              -5.6213
       ...                                ...                  ...
        67                          0.5625656              15.3082
      -------------------------------------------------------------
                  HL-Gap            0.1227656 Eh            3.3406 eV
             Fermi-level           -0.4890455 Eh          -13.3076 eV

 SCC (total)                   0 d,  0 h,  0 min,  0.037 sec
 SCC setup                      ...        0 min,  0.000 sec (  0.784%)
 Dispersion                     ...        0 min,  0.000 sec (  0.968%)
 classical contributions        ...        0 min,  0.000 sec (  0.253%)
 integral evaluation            ...        0 min,  0.006 sec ( 14.866%)
 iterations                     ...        0 min,  0.018 sec ( 47.801%)
 molecular gradient             ...        0 min,  0.013 sec ( 34.876%)
 printout                       ...        0 min,  0.000 sec (  0.413%)

         :::::::::::::::::::::::::::::::::::::::::::::::::::::
         ::                     SUMMARY                     ::
         :::::::::::::::::::::::::::::::::::::::::::::::::::::
         :: total energy             -32.028679465679 Eh    ::
         :: gradient norm              6.393597576866 Eh/a0 ::
         :: HOMO-LUMO gap              3.340621582928 eV    ::
         ::.................................................::
         :: SCC energy               -42.779077977399 Eh    ::
         :: -> isotropic ES            0.141123876439 Eh    ::
         :: -> anisotropic ES         -0.005230418907 Eh    ::
         :: -> anisotropic XC          0.011966818540 Eh    ::
         :: -> dispersion             -0.022657731803 Eh    ::
         :: repulsion energy           0.531105277918 Eh    ::
         :: add. restraining          10.219179074793 Eh    ::
         :: total charge               1.000000000002 e     ::
         :::::::::::::::::::::::::::::::::::::::::::::::::::::

      ----------------------------------------------------------- 
     |                   =====================                   |
     |                        A N C O P T                        |
     |                   =====================                   |
     |               Approximate Normal Coordinate               |
     |                Rational Function Optimizer                |
      ----------------------------------------------------------- 

          ...................................................
          :                      SETUP                      :
          :.................................................:
          :   optimization level             loose          :
          :   max. optcycles                   200          :
          :   ANC micro-cycles                  20          :
          :   degrees of freedom                69          :
          :.................................................:
          :   RF solver                   davidson          :
          :   write xtbopt.log                true          :
          :   linear?                        false          :
          :   energy convergence         0.5000000E-04 Eh   :
          :   grad. convergence          0.4000000E-02 Eh/α :
          :   maxmium RF displ.          1.0000000          :
          :   Hlow (freq-cutoff)         0.1000000E-01      :
          :   Hmax (freq-cutoff)         5.0000000          :
          :   S6 in model hess.         20.0000000          :
          ...................................................

generating ANC from model Hessian ...
Using Lindh-Hessian (1995)
 Shifting diagonal of input Hessian by    1.7419628523966606     
 Lowest  eigenvalues of input Hessian
    0.010000    0.784210    0.000000    0.000000    0.000000    0.000000
    0.000000    0.000000    1.745934    1.747166    1.749379    1.750962
    1.751789    1.754164    1.754950    1.756609    1.762368    1.768262
 Highest eigenvalues
    3.842067    3.938041    4.011937    4.154768    4.255355    5.152415


........................................................................
.............................. CYCLE    1 ..............................
........................................................................

 iter      E             dE          RMSdq      gap      omega  full diag
   1    -42.7790780 -0.427791E+02  0.626E-05    3.34       0.0  T
   2    -42.7790780 -0.124203E-10  0.329E-05    3.34     607.4  T
   3    -42.7790780  0.106581E-12  0.193E-05    3.34    1034.2  T
     SCC iter.                  ...        0 min,  0.005 sec
     gradient                   ...        0 min,  0.013 sec
 * total energy  :   -32.0286795 Eh     change       -0.6650680E-10 Eh
   gradient norm :     6.3935974 Eh/α   predicted     0.0000000E+00 (-100.00%)
   displ. norm   :     0.6939205 α      lambda       -0.4421053E+01
   maximum displ.:     0.6475653 α      in ANC's #69, #61, #68, ...

........................................................................
.............................. CYCLE    2 ..............................
........................................................................

 iter      E             dE          RMSdq      gap      omega  full diag
   1    -42.6792716 -0.426793E+02  0.152E+00    3.06       0.0  T
   2    -42.6848456 -0.557394E-02  0.109E+00    3.26       1.0  T
   3    -42.7068456 -0.220000E-01  0.483E-01    3.03       1.0  T
   4    -42.7082361 -0.139050E-02  0.186E-01    3.16       1.0  T
   5    -42.7086650 -0.428917E-03  0.455E-02    3.12       1.0  T
   6    -42.7086798 -0.147434E-04  0.244E-02    3.11       1.0  T
   7    -42.7086827 -0.290342E-05  0.722E-03    3.12       2.8  T
   8    -42.7086834 -0.693886E-06  0.238E-03    3.11       8.4  T
   9    -42.7086834 -0.215450E-07  0.100E-03    3.11      19.9  T
  10    -42.7086834 -0.390715E-08  0.365E-04    3.11      54.9  T
  11    -42.7086834 -0.768082E-09  0.138E-04    3.11     144.5  T
     SCC iter.                  ...        0 min,  0.015 sec
     gradient                   ...        0 min,  0.013 sec
 * total energy  :   -35.8506712 Eh     change       -0.3821992E+01 Eh
   gradient norm :     4.6674999 Eh/α   predicted    -0.3277890E+01 ( -14.24%)
   displ. norm   :     0.7736711 α      lambda       -0.3600626E+01
   maximum displ.:     0.7143649 α      in ANC's #69, #61, #60, ...

........................................................................
.............................. CYCLE    3 ..............................
........................................................................

 iter      E             dE          RMSdq      gap      omega  full diag
   1    -42.4407239 -0.424407E+02  0.201E+00    2.21       0.0  T
   2    -42.2663436  0.174380E+00  0.277E+00    2.84       1.0  T
   3    -42.5499586 -0.283615E+00  0.724E-01    2.70       1.0  T
   4    -42.5501558 -0.197220E-03  0.515E-01    2.55       1.0  T
   5    -42.5536753 -0.351947E-02  0.146E-01    2.63       1.0  T
   6    -42.5538890 -0.213735E-03  0.691E-02    2.64       1.0  T
   7    -42.5539317 -0.427226E-04  0.348E-02    2.65       1.0  T
   8    -42.5539397 -0.793581E-05  0.109E-02    2.65       1.8  T
   9    -42.5539414 -0.173173E-05  0.278E-03    2.64       7.2  T
  10    -42.5539415 -0.392483E-07  0.595E-04    2.64      33.6  T
  11    -42.5539415 -0.208296E-08  0.159E-04    2.64     126.1  T
     SCC iter.                  ...        0 min,  0.015 sec
     gradient                   ...        0 min,  0.013 sec
 * total energy  :   -38.7899264 Eh     change       -0.2939255E+01 Eh
   gradient norm :     3.0244651 Eh/α   predicted    -0.2877920E+01 (  -2.09%)
   displ. norm   :     0.7498405 α      lambda       -0.2250617E+01
   maximum displ.:     0.6299431 α      in ANC's #69, #61, #48, ...

........................................................................
.............................. CYCLE    4 ..............................
........................................................................

 iter      E             dE          RMSdq      gap      omega  full diag
   1    -42.2941800 -0.422942E+02  0.186E+00    2.07       0.0  T
   2    -42.2548645  0.393155E-01  0.199E+00    1.58       1.0  T
   3    -42.3786423 -0.123778E+00  0.848E-01    1.87       1.0  T
   4    -42.3811060 -0.246375E-02  0.854E-01    1.85       1.0  T
   5    -42.3949105 -0.138045E-01  0.281E-01    1.77       1.0  T
   6    -42.3965053 -0.159483E-02  0.131E-01    1.82       1.0  T
   7    -42.3969273 -0.421985E-03  0.420E-02    1.83       1.0  T
   8    -42.3969403 -0.129890E-04  0.194E-02    1.83       1.0  T
   9    -42.3969477 -0.738326E-05  0.518E-03    1.83       3.9  T
  10    -42.3969478 -0.141841E-06  0.233E-03    1.83       8.6  T
  11    -42.3969479 -0.904939E-07  0.818E-04    1.83      24.5  T
  12    -42.3969479 -0.147465E-07  0.323E-04    1.83      61.9  T
     SCC iter.                  ...        0 min,  0.016 sec
     gradient                   ...        0 min,  0.013 sec
 * total energy  :   -40.6162758 Eh     change       -0.1826349E+01 Eh
   gradient norm :     1.8745288 Eh/α   predicted    -0.1758057E+01 (  -3.74%)
   displ. norm   :     0.6824676 α      lambda       -0.1273110E+01
   maximum displ.:     0.5679891 α      in ANC's #69, #61, #65, ...

........................................................................
.............................. CYCLE    5 ..............................
........................................................................

 iter      E             dE          RMSdq      gap      omega  full diag
   1    -42.2357640 -0.422358E+02  0.129E+00    1.90       0.0  T
   2    -42.2165207  0.192433E-01  0.136E+00    1.27       1.0  T
   3    -42.2518884 -0.353677E-01  0.863E-01    1.82       1.0  T
   4    -42.2678954 -0.160070E-01  0.410E-01    1.55       1.0  T
   5    -42.2719252 -0.402980E-02  0.261E-01    1.59       1.0  T
   6    -42.2731446 -0.121942E-02  0.483E-02    1.57       1.0  T
   7    -42.2731837 -0.391030E-04  0.202E-02    1.58       1.0  T
   8    -42.2731805  0.317534E-05  0.154E-02    1.58       1.3  T
   9    -42.2731861 -0.556232E-05  0.493E-03    1.58       4.1  T
  10    -42.2731864 -0.357765E-06  0.176E-03    1.58      11.4  T
  11    -42.2731865 -0.203663E-07  0.784E-04    1.58      25.5  T
  12    -42.2731865 -0.103117E-07  0.296E-04    1.58      67.5  T
     SCC iter.                  ...        0 min,  0.016 sec
     gradient                   ...        0 min,  0.013 sec
 * total energy  :   -41.5083118 Eh     change       -0.8920359E+00 Eh
   gradient norm :     0.7386308 Eh/α   predicted    -0.9330408E+00 (   4.60%)
   displ. norm   :     0.3873341 α      lambda       -0.2836039E+00
   maximum displ.:     0.3169381 α      in ANC's #69, #20, #61, ...

........................................................................
.............................. CYCLE    6 ..............................
........................................................................

 iter      E             dE          RMSdq      gap      omega  full diag
   1    -42.2064313 -0.422064E+02  0.610E-01    1.61       0.0  T
   2    -42.1880091  0.184222E-01  0.856E-01    1.17       1.0  T
   3    -42.2071072 -0.190981E-01  0.427E-01    1.57       1.0  T
   4    -42.2123147 -0.520746E-02  0.186E-01    1.42       1.0  T
   5    -42.2130884 -0.773730E-03  0.109E-01    1.42       1.0  T
   6    -42.2133257 -0.237235E-03  0.257E-02    1.42       1.0  T
   7    -42.2133401 -0.144588E-04  0.883E-03    1.43       2.3  T
   8    -42.2133405 -0.424582E-06  0.314E-03    1.43       6.4  T
   9    -42.2133406 -0.796555E-07  0.108E-03    1.43      18.5  T
  10    -42.2133406 -0.560455E-08  0.531E-04    1.43      37.7  T
  11    -42.2133406 -0.241810E-08  0.261E-04    1.43      76.5  T
     SCC iter.                  ...        0 min,  0.015 sec
     gradient                   ...        0 min,  0.013 sec
 * total energy  :   -41.6663823 Eh     change       -0.1580705E+00 Eh
   gradient norm :     0.2286075 Eh/α   predicted    -0.1630763E+00 (   3.17%)
   displ. norm   :     0.1353298 α      lambda       -0.2763116E-01
   maximum displ.:     0.0656828 α      in ANC's #20, #36, #29, ...

........................................................................
.............................. CYCLE    7 ..............................
........................................................................

 iter      E             dE          RMSdq      gap      omega  full diag
   1    -42.2177887 -0.422178E+02  0.178E-01    1.50       0.0  T
   2    -42.2162224  0.156628E-02  0.251E-01    1.39       1.0  T
   3    -42.2179882 -0.176573E-02  0.115E-01    1.49       1.0  T
   4    -42.2182457 -0.257583E-03  0.533E-02    1.45       1.0  T
   5    -42.2182797 -0.339346E-04  0.195E-02    1.46       1.0  T
   6    -42.2182842 -0.454230E-05  0.948E-03    1.46       2.1  T
   7    -42.2182862 -0.194221E-05  0.441E-03    1.46       4.5  T
   8    -42.2182864 -0.247403E-06  0.151E-03    1.46      13.2  T
   9    -42.2182864 -0.245479E-07  0.758E-04    1.46      26.4  T
  10    -42.2182864 -0.379423E-08  0.303E-04    1.46      66.0  T
     SCC iter.                  ...        0 min,  0.014 sec
     gradient                   ...        0 min,  0.013 sec
 * total energy  :   -41.6910223 Eh     change       -0.2463997E-01 Eh
   gradient norm :     0.2153411 Eh/α   predicted    -0.1408195E-01 ( -42.85%)
   displ. norm   :     0.5211265 α      lambda       -0.9755599E-01
   maximum displ.:     0.2770420 α      in ANC's #20, #21, #36, ...

........................................................................
.............................. CYCLE    8 ..............................
........................................................................

 iter      E             dE          RMSdq      gap      omega  full diag
   1    -42.2459224 -0.422459E+02  0.691E-01    1.69       0.0  T
   2    -42.2332437  0.126787E-01  0.802E-01    1.39       1.0  T
   3    -42.2455750 -0.123313E-01  0.492E-01    1.71       1.0  T
   4    -42.2512131 -0.563818E-02  0.215E-01    1.57       1.0  T
   5    -42.2517673 -0.554132E-03  0.112E-01    1.60       1.0  T
   6    -42.2520108 -0.243497E-03  0.348E-02    1.60       1.0  T
   7    -42.2520241 -0.133580E-04  0.170E-02    1.60       1.2  T
   8    -42.2520275 -0.335684E-05  0.535E-03    1.60       3.7  T
   9    -42.2520277 -0.183579E-06  0.307E-03    1.60       6.5  T
  10    -42.2520277 -0.688040E-07  0.806E-04    1.60      24.8  T
  11    -42.2520277 -0.310604E-08  0.403E-04    1.60      49.7  T
     SCC iter.                  ...        0 min,  0.015 sec
     gradient                   ...        0 min,  0.013 sec
 * total energy  :   -41.7640728 Eh     change       -0.7305055E-01 Eh
   gradient norm :     0.2032522 Eh/α   predicted    -0.6202466E-01 ( -15.09%)
   displ. norm   :     0.4726172 α      lambda       -0.5709133E-01
   maximum displ.:     0.2644342 α      in ANC's #20, #21, #36, ...

........................................................................
.............................. CYCLE    9 ..............................
........................................................................

 iter      E             dE          RMSdq      gap      omega  full diag
   1    -42.2745737 -0.422746E+02  0.581E-01    1.54       0.0  T
   2    -42.2722081  0.236559E-02  0.520E-01    1.38       1.0  T
   3    -42.2724843 -0.276220E-03  0.421E-01    1.60       1.0  T
   4    -42.2761768 -0.369247E-02  0.239E-01    1.45       1.0  T
   5    -42.2775769 -0.140010E-02  0.112E-01    1.50       1.0  T
   6    -42.2778533 -0.276394E-03  0.259E-02    1.50       1.0  T
   7    -42.2778560 -0.274854E-05  0.144E-02    1.50       1.4  T
   8    -42.2778582 -0.215958E-05  0.375E-03    1.50       5.3  T
   9    -42.2778582 -0.775953E-07  0.245E-03    1.50       8.2  T
  10    -42.2778583 -0.774725E-07  0.871E-04    1.50      23.0  T
  11    -42.2778583 -0.556430E-08  0.357E-04    1.50      56.0  T
     SCC iter.                  ...        0 min,  0.015 sec
     gradient                   ...        0 min,  0.013 sec
 * total energy  :   -41.8039460 Eh     change       -0.3987322E-01 Eh
   gradient norm :     0.1667343 Eh/α   predicted    -0.3492188E-01 ( -12.42%)
   displ. norm   :     0.2935081 α      lambda       -0.2252331E-01
   maximum displ.:     0.1740401 α      in ANC's #20, #21, #29, ...

........................................................................
.............................. CYCLE   10 ..............................
........................................................................

 iter      E             dE          RMSdq      gap      omega  full diag
   1    -42.2951711 -0.422952E+02  0.336E-01    1.46       0.0  T
   2    -42.2953355 -0.164412E-03  0.253E-01    1.42       1.0  T
   3    -42.2949692  0.366289E-03  0.194E-01    1.49       1.0  T
   4    -42.2946512  0.318022E-03  0.197E-01    1.40       1.0  T
   5    -42.2959963 -0.134513E-02  0.627E-02    1.45       1.0  T
   6    -42.2960885 -0.921470E-04  0.111E-02    1.45       1.8  T
   7    -42.2960893 -0.881656E-06  0.699E-03    1.45       2.9  T
   8    -42.2960898 -0.474154E-06  0.203E-03    1.45       9.9  T
   9    -42.2960899 -0.941681E-07  0.933E-04    1.45      21.4  T
  10    -42.2960899 -0.800865E-08  0.384E-04    1.45      52.1  T
     SCC iter.                  ...        0 min,  0.014 sec
     gradient                   ...        0 min,  0.012 sec
 * total energy  :   -41.8195457 Eh     change       -0.1559969E-01 Eh
   gradient norm :     0.1516005 Eh/α   predicted    -0.1223184E-01 ( -21.59%)
   displ. norm   :     0.2100597 α      lambda       -0.1627582E-01
   maximum displ.:     0.1261563 α      in ANC's #20, #21, #33, ...

........................................................................
.............................. CYCLE   11 ..............................
........................................................................

 iter      E             dE          RMSdq      gap      omega  full diag
   1    -42.3165801 -0.423166E+02  0.242E-01    1.44       0.0  T
   2    -42.3165749  0.520378E-05  0.166E-01    1.44       1.0  T
   3    -42.3158981  0.676810E-03  0.172E-01    1.40       1.0  T
   4    -42.3164087 -0.510617E-03  0.113E-01    1.46       1.0  T
   5    -42.3168520 -0.443352E-03  0.265E-02    1.43       1.0  T
   6    -42.3168683 -0.162748E-04  0.654E-03    1.43       3.1  T
   7    -42.3168691 -0.764089E-06  0.315E-03    1.43       6.3  T
   8    -42.3168692 -0.939914E-07  0.948E-04    1.43      21.1  T
   9    -42.3168692 -0.102287E-07  0.354E-04    1.43      56.5  T
     SCC iter.                  ...        0 min,  0.013 sec
     gradient                   ...        0 min,  0.012 sec
 * total energy  :   -41.8326702 Eh     change       -0.1312451E-01 Eh
   gradient norm :     0.1463029 Eh/α   predicted    -0.8497158E-02 ( -35.26%)
   displ. norm   :     0.3210910 α      lambda       -0.2799653E-01
   maximum displ.:     0.1746458 α      in ANC's #20, #21, #27, ...

........................................................................
.............................. CYCLE   12 ..............................
........................................................................

 iter      E             dE          RMSdq      gap      omega  full diag
   1    -42.3476180 -0.423476E+02  0.421E-01    1.45       0.0  T
   2    -42.3461967  0.142132E-02  0.355E-01    1.47       1.0  T
   3    -42.3454134  0.783246E-03  0.339E-01    1.37       1.0  T
   4    -42.3484503 -0.303684E-02  0.147E-01    1.48       1.0  T
   5    -42.3490123 -0.562008E-03  0.254E-02    1.44       1.0  T
   6    -42.3490270 -0.147627E-04  0.120E-02    1.44       1.7  T
   7    -42.3490290 -0.192305E-05  0.503E-03    1.44       4.0  T
   8    -42.3490292 -0.252766E-06  0.157E-03    1.44      12.8  T
   9    -42.3490292 -0.906637E-08  0.993E-04    1.44      20.1  T
  10    -42.3490292 -0.416253E-08  0.438E-04    1.44      45.6  T
     SCC iter.                  ...        0 min,  0.014 sec
     gradient                   ...        0 min,  0.012 sec
 * total energy  :   -41.8522586 Eh     change       -0.1958831E-01 Eh
   gradient norm :     0.1197169 Eh/α   predicted    -0.1544161E-01 ( -21.17%)
   displ. norm   :     0.2330407 α      lambda       -0.1283981E-01
   maximum displ.:     0.1139404 α      in ANC's #20, #1, #21, ...

........................................................................
.............................. CYCLE   13 ..............................
........................................................................

 iter      E             dE          RMSdq      gap      omega  full diag
   1    -42.3588617 -0.423589E+02  0.323E-01    1.47       0.0  T
   2    -42.3587505  0.111137E-03  0.261E-01    1.50       1.0  T
   3    -42.3585474  0.203173E-03  0.228E-01    1.42       1.0  T
   4    -42.3594027 -0.855339E-03  0.146E-01    1.51       1.0  T
   5    -42.3600216 -0.618863E-03  0.355E-02    1.47       1.0  T
   6    -42.3600508 -0.292159E-04  0.122E-02    1.47       1.6  T
   7    -42.3600528 -0.200728E-05  0.575E-03    1.47       3.5  T
   8    -42.3600530 -0.172851E-06  0.171E-03    1.47      11.7  T
   9    -42.3600530 -0.297891E-07  0.972E-04    1.47      20.6  T
  10    -42.3600530 -0.428955E-08  0.333E-04    1.47      60.1  T
     SCC iter.                  ...        0 min,  0.014 sec
     gradient                   ...        0 min,  0.013 sec
 * total energy  :   -41.8606559 Eh     change       -0.8397385E-02 Eh
   gradient norm :     0.0879321 Eh/α   predicted    -0.6768764E-02 ( -19.39%)
   displ. norm   :     0.1624224 α      lambda       -0.4849132E-02
   maximum displ.:     0.1159440 α      in ANC's #1, #20, #21, ...

........................................................................
.............................. CYCLE   14 ..............................
........................................................................

 iter      E             dE          RMSdq      gap      omega  full diag
   1    -42.3591701 -0.423592E+02  0.211E-01    1.49       0.0  T
   2    -42.3593181 -0.148025E-03  0.143E-01    1.51       1.0  T
   3    -42.3593899 -0.718396E-04  0.890E-02    1.48       1.0  T
   4    -42.3590720  0.317892E-03  0.109E-01    1.53       1.0  T
   5    -42.3594876 -0.415530E-03  0.374E-02    1.49       1.0  T
   6    -42.3595311 -0.434961E-04  0.630E-03    1.50       3.2  T
   7    -42.3595313 -0.219381E-06  0.291E-03    1.50       6.9  T
   8    -42.3595313 -0.540051E-07  0.592E-04    1.50      33.8  T
   9    -42.3595313 -0.107634E-08  0.353E-04    1.50      56.6  T
     SCC iter.                  ...        0 min,  0.012 sec
     gradient                   ...        0 min,  0.012 sec
 * total energy  :   -41.8642297 Eh     change       -0.3573774E-02 Eh
   gradient norm :     0.0725987 Eh/α   predicted    -0.2488565E-02 ( -30.37%)
   displ. norm   :     0.1623236 α      lambda       -0.5707666E-02
   maximum displ.:     0.0733577 α      in ANC's #1, #20, #21, ...

........................................................................
.............................. CYCLE   15 ..............................
........................................................................

 iter      E             dE          RMSdq      gap      omega  full diag
   1    -42.3640262 -0.423640E+02  0.198E-01    1.51       0.0  T
   2    -42.3641242 -0.979629E-04  0.144E-01    1.53       1.0  T
   3    -42.3642584 -0.134193E-03  0.828E-02    1.51       1.0  T
   4    -42.3641729  0.854423E-04  0.678E-02    1.54       1.0  T
   5    -42.3642651 -0.921191E-04  0.484E-02    1.51       1.0  T
   6    -42.3643487 -0.836694E-04  0.484E-03    1.52       4.1  T
   7    -42.3643488 -0.122440E-06  0.281E-03    1.52       7.1  T
   8    -42.3643489 -0.758098E-07  0.720E-04    1.52      27.8  T
   9    -42.3643489 -0.505391E-08  0.393E-04    1.52      50.9  T
     SCC iter.                  ...        0 min,  0.012 sec
     gradient                   ...        0 min,  0.012 sec
 * total energy  :   -41.8683181 Eh     change       -0.4088371E-02 Eh
   gradient norm :     0.0655140 Eh/α   predicted    -0.2929124E-02 ( -28.35%)
   displ. norm   :     0.1546412 α      lambda       -0.4956460E-02
   maximum displ.:     0.0720666 α      in ANC's #1, #20, #21, ...

........................................................................
.............................. CYCLE   16 ..............................
........................................................................

 iter      E             dE          RMSdq      gap      omega  full diag
   1    -42.3639833 -0.423640E+02  0.196E-01    1.49       0.0  T
   2    -42.3639978 -0.145343E-04  0.178E-01    1.55       1.0  T
   3    -42.3642231 -0.225287E-03  0.112E-01    1.56       1.0  T
   4    -42.3638387  0.384456E-03  0.139E-01    1.49       1.0  T
   5    -42.3645087 -0.670009E-03  0.158E-02    1.54       1.3  T
   6    -42.3645118 -0.309236E-05  0.788E-03    1.53       2.5  T
   7    -42.3645129 -0.114423E-05  0.406E-03    1.53       4.9  T
   8    -42.3645132 -0.252908E-06  0.122E-03    1.53      16.3  T
   9    -42.3645132 -0.251087E-07  0.549E-04    1.53      36.4  T
  10    -42.3645132 -0.420192E-08  0.155E-04    1.53     128.7  T
     SCC iter.                  ...        0 min,  0.014 sec
     gradient                   ...        0 min,  0.012 sec
 * total energy  :   -41.8716756 Eh     change       -0.3357555E-02 Eh
   gradient norm :     0.0681238 Eh/α   predicted    -0.2537780E-02 ( -24.42%)
   displ. norm   :     0.1444998 α      lambda       -0.3446326E-02
   maximum displ.:     0.0811024 α      in ANC's #1, #20, #21, ...

........................................................................
.............................. CYCLE   17 ..............................
........................................................................

 iter      E             dE          RMSdq      gap      omega  full diag
   1    -42.3703651 -0.423704E+02  0.179E-01    1.47       0.0  T
   2    -42.3704392 -0.741456E-04  0.152E-01    1.54       1.0  T
   3    -42.3706502 -0.210946E-03  0.950E-02    1.53       1.0  T
   4    -42.3702779  0.372228E-03  0.128E-01    1.49       1.0  T
   5    -42.3708521 -0.574157E-03  0.207E-02    1.52       1.0  T
   6    -42.3708640 -0.118725E-04  0.883E-03    1.52       2.3  T
   7    -42.3708650 -0.981747E-06  0.448E-03    1.52       4.5  T
   8    -42.3708652 -0.279058E-06  0.137E-03    1.52      14.6  T
   9    -42.3708653 -0.281238E-07  0.764E-04    1.52      26.2  T
  10    -42.3708653 -0.956296E-08  0.235E-04    1.52      85.1  T
     SCC iter.                  ...        0 min,  0.014 sec
     gradient                   ...        0 min,  0.012 sec
 * total energy  :   -41.8740228 Eh     change       -0.2347201E-02 Eh
   gradient norm :     0.0629041 Eh/α   predicted    -0.1759186E-02 ( -25.05%)
   displ. norm   :     0.2610982 α      lambda       -0.4164785E-02
   maximum displ.:     0.2094505 α      in ANC's #1, #20, #21, ...

........................................................................
.............................. CYCLE   18 ..............................
........................................................................

 iter      E             dE          RMSdq      gap      omega  full diag
   1    -42.3689032 -0.423689E+02  0.362E-01    1.31       0.0  T
   2    -42.3666100  0.229327E-02  0.451E-01    1.58       1.0  T
   3    -42.3733010 -0.669103E-02  0.184E-01    1.52       1.0  T
   4    -42.3713940  0.190699E-02  0.258E-01    1.42       1.0  T
   5    -42.3736775 -0.228348E-02  0.506E-02    1.46       1.0  T
   6    -42.3737642 -0.867067E-04  0.152E-02    1.47       1.3  T
   7    -42.3737685 -0.426456E-05  0.779E-03    1.47       2.6  T
   8    -42.3737689 -0.440576E-06  0.391E-03    1.47       5.1  T
   9    -42.3737694 -0.490058E-06  0.119E-03    1.47      16.8  T
  10    -42.3737694 -0.235287E-07  0.529E-04    1.47      37.8  T
  11    -42.3737694 -0.528630E-08  0.159E-04    1.47     125.8  T
     SCC iter.                  ...        0 min,  0.015 sec
     gradient                   ...        0 min,  0.012 sec
 * total energy  :   -41.8768281 Eh     change       -0.2805231E-02 Eh
   gradient norm :     0.0717284 Eh/α   predicted    -0.2224381E-02 ( -20.71%)
   displ. norm   :     0.1802490 α      lambda       -0.4601894E-02
   maximum displ.:     0.0634327 α      in ANC's #20, #35, #21, ...

........................................................................
.............................. CYCLE   19 ..............................
........................................................................

 iter      E             dE          RMSdq      gap      omega  full diag
   1    -42.3809794 -0.423810E+02  0.312E-01    1.22       0.0  T
   2    -42.3761554  0.482402E-02  0.481E-01    1.55       1.0  T
   3    -42.3856929 -0.953756E-02  0.153E-01    1.44       1.0  T
   4    -42.3850725  0.620396E-03  0.180E-01    1.38       1.0  T
   5    -42.3861248 -0.105222E-02  0.368E-02    1.38       1.0  T
   6    -42.3861570 -0.322785E-04  0.142E-02    1.39       1.4  T
   7    -42.3861615 -0.448181E-05  0.458E-03    1.39       4.4  T
   8    -42.3861615  0.640047E-07  0.284E-03    1.39       7.0  T
   9    -42.3861617 -0.194992E-06  0.950E-04    1.39      21.1  T
  10    -42.3861617 -0.230992E-07  0.317E-04    1.39      63.1  T
     SCC iter.                  ...        0 min,  0.014 sec
     gradient                   ...        0 min,  0.012 sec
 * total energy  :   -41.8802559 Eh     change       -0.3427863E-02 Eh
   gradient norm :     0.0822365 Eh/α   predicted    -0.2375840E-02 ( -30.69%)
   displ. norm   :     0.3074634 α      lambda       -0.6697244E-02
   maximum displ.:     0.1741307 α      in ANC's #1, #35, #20, ...

........................................................................
.............................. CYCLE   20 ..............................
........................................................................

 iter      E             dE          RMSdq      gap      omega  full diag
   1    -42.3786812 -0.423787E+02  0.577E-01    0.94       0.0  T
   2    -42.3481472  0.305339E-01  0.103E+00    1.59       1.0  T
   3    -42.3939858 -0.458385E-01  0.294E-01    1.36       1.0  T
   4    -42.3937935  0.192270E-03  0.283E-01    1.26       1.0  T
   5    -42.3961994 -0.240589E-02  0.516E-02    1.23       1.0  T
   6    -42.3962829 -0.835125E-04  0.243E-02    1.25       1.0  T
   7    -42.3962971 -0.141980E-04  0.759E-03    1.25       2.6  T
   8    -42.3962976 -0.476037E-06  0.398E-03    1.25       5.0  T
   9    -42.3962978 -0.232310E-06  0.117E-03    1.25      17.2  T
  10    -42.3962978 -0.144340E-07  0.493E-04    1.25      40.6  T
  11    -42.3962978 -0.280167E-10  0.231E-04    1.25      86.7  T
     SCC iter.                  ...        0 min,  0.015 sec
     gradient                   ...        0 min,  0.012 sec
 * total energy  :   -41.8853334 Eh     change       -0.5077483E-02 Eh
   gradient norm :     0.0958452 Eh/α   predicted    -0.3665202E-02 ( -27.81%)
   displ. norm   :     0.2854984 α      lambda       -0.8231831E-02
   maximum displ.:     0.1102453 α      in ANC's #35, #47, #31, ...
 * RMSD in coord.:     0.9007348 α      energy gain  -0.9856654E+01 Eh

generating ANC from model Hessian ...
Using Lindh-Hessian (1995)
 Shifting diagonal of input Hessian by    1.1358090157475046E-002
 Lowest  eigenvalues of input Hessian
    0.010000    0.000000    0.000000    0.000000    0.000000    0.000000
    0.000000    0.013155    0.013481    0.014677    0.016605    0.018914
    0.019453    0.021062    0.023092    0.024421    0.027861    0.037174
 Highest eigenvalues
    1.999449    2.032331    2.271998    2.444946    2.522787    2.826253


........................................................................
.............................. CYCLE   21 ..............................
........................................................................

 iter      E             dE          RMSdq      gap      omega  full diag
   1    -42.3938680 -0.423939E+02  0.580E-01    0.80       0.0  T
   2    -42.3485720  0.452961E-01  0.112E+00    1.42       1.0  T
   3    -42.4080017 -0.594298E-01  0.264E-01    1.16       1.0  T
   4    -42.4083225 -0.320711E-03  0.234E-01    1.09       1.0  T
   5    -42.4100125 -0.169009E-02  0.369E-02    1.08       1.0  T
   6    -42.4100203 -0.778267E-05  0.136E-02    1.09       1.5  T
   7    -42.4100239 -0.360134E-05  0.557E-03    1.09       3.6  T
   8    -42.4100243 -0.338134E-06  0.280E-03    1.09       7.1  T
   9    -42.4100243 -0.462629E-07  0.120E-03    1.09      16.7  T
  10    -42.4100243 -0.347899E-07  0.483E-04    1.09      41.4  T
  11    -42.4100243 -0.108433E-08  0.261E-04    1.09      76.6  T
     SCC iter.                  ...        0 min,  0.015 sec
     gradient                   ...        0 min,  0.013 sec
 * total energy  :   -41.8914513 Eh     change       -0.6117888E-02 Eh
   gradient norm :     0.1177823 Eh/α   predicted     0.0000000E+00 (-100.00%)
   displ. norm   :     0.4364807 α      lambda       -0.2521942E-01
   maximum displ.:     0.1833444 α      in ANC's #7, #21, #3, ...

........................................................................
.............................. CYCLE   22 ..............................
........................................................................

 iter      E             dE          RMSdq      gap      omega  full diag
   1    -42.4082982 -0.424083E+02  0.481E-01    0.79       0.0  T
   2    -42.3872109  0.210873E-01  0.737E-01    1.18       1.0  T
   3    -42.4106839 -0.234730E-01  0.269E-01    0.89       1.0  T
   4    -42.4096596  0.102432E-02  0.269E-01    0.86       1.0  T
   5    -42.4125369 -0.287731E-02  0.417E-02    0.95       1.0  T
   6    -42.4126186 -0.816802E-04  0.124E-02    0.93       1.6  T
   7    -42.4126204 -0.180035E-05  0.810E-03    0.93       2.5  T
   8    -42.4126216 -0.119461E-05  0.173E-03    0.93      11.6  T
   9    -42.4126216 -0.469198E-07  0.813E-04    0.93      24.6  T
  10    -42.4126216 -0.902702E-08  0.432E-04    0.93      46.3  T
     SCC iter.                  ...        0 min,  0.014 sec
     gradient                   ...        0 min,  0.013 sec
 * total energy  :   -41.9113324 Eh     change       -0.1988113E-01 Eh
   gradient norm :     0.0825390 Eh/α   predicted    -0.1506185E-01 ( -24.24%)
   displ. norm   :     0.5879807 α      lambda       -0.2432874E-01
   maximum displ.:     0.2501416 α      in ANC's #7, #3, #21, ...

........................................................................
.............................. CYCLE   23 ..............................
........................................................................

 iter      E             dE          RMSdq      gap      omega  full diag
   1    -42.4049921 -0.424050E+02  0.736E-01    0.43       0.0  T
   2    -42.3184866  0.865055E-01  0.144E+00    0.67       1.0  T
   3    -42.4160473 -0.975606E-01  0.335E-01    0.61       1.0  T
   4    -42.4118609  0.418636E-02  0.403E-01    0.56       1.0  T
   5    -42.4183246 -0.646367E-02  0.797E-02    0.66       1.0  T
   6    -42.4185637 -0.239077E-03  0.299E-02    0.65       1.0  T
   7    -42.4185758 -0.121552E-04  0.143E-02    0.64       1.4  T
   8    -42.4185827 -0.688942E-05  0.400E-03    0.64       5.0  T
   9    -42.4185829 -0.192630E-06  0.202E-03    0.64       9.9  T
  10    -42.4185829 -0.482276E-07  0.751E-04    0.64      26.6  T
  11    -42.4185830 -0.903297E-08  0.352E-04    0.64      56.8  T
     SCC iter.                  ...        0 min,  0.015 sec
     gradient                   ...        0 min,  0.012 sec
 * total energy  :   -41.9315680 Eh     change       -0.2023553E-01 Eh
   gradient norm :     0.1059180 Eh/α   predicted    -0.1636987E-01 ( -19.10%)
   displ. norm   :     0.6973544 α      lambda       -0.2847564E-01
   maximum displ.:     0.2481568 α      in ANC's #7, #3, #33, ...

........................................................................
.............................. CYCLE   24 ..............................
........................................................................

 iter      E             dE          RMSdq      gap      omega  full diag
   1    -42.4167844 -0.424168E+02  0.849E-01    0.23       0.0  T
   2    -42.3661236  0.506608E-01  0.121E+00    0.16       1.0  T
   3    -42.4182597 -0.521361E-01  0.507E-01    0.27       1.0  T
   4    -42.4220469 -0.378715E-02  0.254E-01    0.30       1.0  T
   5    -42.4241678 -0.212092E-02  0.104E-01    0.35       1.0  T
   6    -42.4246380 -0.470224E-03  0.510E-02    0.32       1.0  T
   7    -42.4247036 -0.655554E-04  0.273E-02    0.32       1.0  T
   8    -42.4247198 -0.162375E-04  0.787E-03    0.33       2.5  T
   9    -42.4247210 -0.117368E-05  0.442E-03    0.32       4.5  T
  10    -42.4247213 -0.264789E-06  0.232E-03    0.32       8.6  T
  11    -42.4247214 -0.126703E-06  0.717E-04    0.32      27.9  T
  12    -42.4247214 -0.466576E-08  0.381E-04    0.32      52.4  T
     SCC iter.                  ...        0 min,  0.016 sec
     gradient                   ...        0 min,  0.013 sec
 * total energy  :   -41.9557898 Eh     change       -0.2422183E-01 Eh
   gradient norm :     0.1333938 Eh/α   predicted    -0.2116179E-01 ( -12.63%)
   displ. norm   :     0.7109861 α      lambda       -0.3409112E-01
   maximum displ.:     0.2628863 α      in ANC's #12, #33, #11, ...

........................................................................
.............................. CYCLE   25 ..............................
........................................................................

 iter      E             dE          RMSdq      gap      omega  full diag
   1    -42.4327383 -0.424327E+02  0.106E+00    0.30       0.0  T
   2    -42.4127338  0.200045E-01  0.939E-01    0.16       1.0  T
   3    -42.4035147  0.921904E-02  0.960E-01    0.44       1.0  T
   4    -42.4344114 -0.308967E-01  0.293E-01    0.27       1.0  T
   5    -42.4372865 -0.287507E-02  0.146E-01    0.27       1.0  T
   6    -42.4380980 -0.811524E-03  0.575E-02    0.27       1.0  T
   7    -42.4381438 -0.457634E-04  0.347E-02    0.28       1.0  T
   8    -42.4381650 -0.212438E-04  0.145E-02    0.28       1.4  T
   9    -42.4381714 -0.635327E-05  0.480E-03    0.28       4.2  T
  10    -42.4381717 -0.315143E-06  0.274E-03    0.28       7.3  T
  11    -42.4381718 -0.102414E-06  0.965E-04    0.28      20.7  T
  12    -42.4381718 -0.157219E-07  0.225E-04    0.28      89.1  T
     SCC iter.                  ...        0 min,  0.016 sec
     gradient                   ...        0 min,  0.012 sec
 * total energy  :   -41.9847497 Eh     change       -0.2895994E-01 Eh
   gradient norm :     0.1516695 Eh/α   predicted    -0.2566212E-01 ( -11.39%)
   displ. norm   :     0.6993929 α      lambda       -0.4993916E-01
   maximum displ.:     0.3407680 α      in ANC's #26, #12, #33, ...

........................................................................
.............................. CYCLE   26 ..............................
........................................................................

 iter      E             dE          RMSdq      gap      omega  full diag
   1    -42.4523122 -0.424523E+02  0.149E+00    0.56       0.0  T
   2    -42.3272890  0.125023E+00  0.204E+00    0.13       1.0  T
   3    -42.4654138 -0.138125E+00  0.891E-01    0.56       1.0  T
   4    -42.4825643 -0.171505E-01  0.288E-01    0.34       1.0  T
   5    -42.4836398 -0.107551E-02  0.135E-01    0.35       1.0  T
   6    -42.4840822 -0.442389E-03  0.692E-02    0.36       1.0  T
   7    -42.4841926 -0.110419E-03  0.232E-02    0.37       1.0  T
   8    -42.4842007 -0.811468E-05  0.704E-03    0.38       2.8  T
   9    -42.4842010 -0.225979E-06  0.555E-03    0.38       3.6  T
  10    -42.4842016 -0.595542E-06  0.158E-03    0.38      12.6  T
  11    -42.4842016 -0.477798E-07  0.559E-04    0.38      35.8  T
  12    -42.4842016 -0.416932E-08  0.298E-04    0.38      67.1  T
     SCC iter.                  ...        0 min,  0.016 sec
     gradient                   ...        0 min,  0.013 sec
 * total energy  :   -42.0201652 Eh     change       -0.3541551E-01 Eh
   gradient norm :     0.1773211 Eh/α   predicted    -0.3718345E-01 (   4.99%)
   displ. norm   :     0.3680064 α      lambda       -0.3409428E-01
   maximum displ.:     0.1459321 α      in ANC's #12, #11, #21, ...

........................................................................
.............................. CYCLE   27 ..............................
........................................................................

 iter      E             dE          RMSdq      gap      omega  full diag
   1    -42.5267606 -0.425268E+02  0.484E-01    0.49       0.0  T
   2    -42.5148598  0.119008E-01  0.647E-01    0.30       1.0  T
   3    -42.5277167 -0.128569E-01  0.322E-01    0.51       1.0  T
   4    -42.5298908 -0.217414E-02  0.861E-02    0.43       1.0  T
   5    -42.5299522 -0.613909E-04  0.249E-02    0.44       1.0  T
   6    -42.5299677 -0.154763E-04  0.969E-03    0.44       2.1  T
   7    -42.5299685 -0.791812E-06  0.438E-03    0.44       4.6  T
   8    -42.5299689 -0.391455E-06  0.159E-03    0.44      12.6  T
   9    -42.5299689 -0.417427E-07  0.768E-04    0.44      26.0  T
  10    -42.5299689 -0.521764E-08  0.438E-04    0.44      45.6  T
     SCC iter.                  ...        0 min,  0.014 sec
     gradient                   ...        0 min,  0.013 sec
 * total energy  :   -42.0453023 Eh     change       -0.2513705E-01 Eh
   gradient norm :     0.1414113 Eh/α   predicted    -0.1935582E-01 ( -23.00%)
   displ. norm   :     0.5156991 α      lambda       -0.3816846E-01
   maximum displ.:     0.2586466 α      in ANC's #12, #11, #46, ...

........................................................................
.............................. CYCLE   28 ..............................
........................................................................

 iter      E             dE          RMSdq      gap      omega  full diag
   1    -42.5519844 -0.425520E+02  0.572E-01    0.43       0.0  T
   2    -42.5464156  0.556885E-02  0.565E-01    0.59       1.0  T
   3    -42.5505733 -0.415768E-02  0.429E-01    0.37       1.0  T
   4    -42.5555263 -0.495309E-02  0.184E-01    0.49       1.0  T
   5    -42.5563384 -0.812010E-03  0.488E-02    0.46       1.0  T
   6    -42.5564113 -0.729905E-04  0.140E-02    0.46       1.4  T
   7    -42.5564125 -0.112487E-05  0.717E-03    0.46       2.8  T
   8    -42.5564131 -0.590081E-06  0.394E-03    0.46       5.1  T
   9    -42.5564133 -0.279108E-06  0.197E-03    0.46      10.2  T
  10    -42.5564134 -0.792309E-07  0.574E-04    0.46      34.9  T
  11    -42.5564134 -0.596693E-08  0.228E-04    0.46      87.5  T
     SCC iter.                  ...        0 min,  0.015 sec
     gradient                   ...        0 min,  0.013 sec
 * total energy  :   -42.0661861 Eh     change       -0.2088376E-01 Eh
   gradient norm :     0.0758630 Eh/α   predicted    -0.2415968E-01 (  15.69%)
   displ. norm   :     0.6753901 α      lambda       -0.2491839E-01
   maximum displ.:     0.4217167 α      in ANC's #12, #11, #7, ...

........................................................................
.............................. CYCLE   29 ..............................
........................................................................

 iter      E             dE          RMSdq      gap      omega  full diag
   1    -42.5530370 -0.425530E+02  0.766E-01    0.62       0.0  T
   2    -42.4787769  0.742601E-01  0.167E+00    0.10       1.0  T
   3    -42.5745473 -0.957704E-01  0.312E-01    0.38       1.0  T
   4    -42.5729283  0.161901E-02  0.322E-01    0.36       1.0  T
   5    -42.5751370 -0.220867E-02  0.130E-01    0.38       1.0  T
   6    -42.5754791 -0.342111E-03  0.273E-02    0.41       1.0  T
   7    -42.5754960 -0.169159E-04  0.122E-02    0.41       1.6  T
   8    -42.5754963 -0.302218E-06  0.678E-03    0.41       2.9  T
   9    -42.5754970 -0.653037E-06  0.167E-03    0.41      11.9  T
  10    -42.5754970 -0.693848E-07  0.685E-04    0.41      29.2  T
  11    -42.5754970 -0.288045E-08  0.294E-04    0.41      68.1  T
     SCC iter.                  ...        0 min,  0.015 sec
     gradient                   ...        0 min,  0.013 sec
 * total energy  :   -42.0622203 Eh     change        0.3965744E-02 Eh
   gradient norm :     0.1813294 Eh/α   predicted    -0.1814262E-01 (-557.48%)
   displ. norm   :     0.2834561 α      lambda       -0.3796376E-01
   maximum displ.:     0.1011767 α      in ANC's #26, #33, #24, ...

........................................................................
.............................. CYCLE   30 ..............................
........................................................................

 iter      E             dE          RMSdq      gap      omega  full diag
   1    -42.5717602 -0.425718E+02  0.585E-01    0.36       0.0  T
   2    -42.5293958  0.423644E-01  0.123E+00    0.83       1.0  T
   3    -42.5834459 -0.540501E-01  0.215E-01    0.46       1.0  T
   4    -42.5835941 -0.148170E-03  0.162E-01    0.47       1.0  T
   5    -42.5840235 -0.429470E-03  0.441E-02    0.45       1.0  T
   6    -42.5840600 -0.364367E-04  0.194E-02    0.45       1.0  T
   7    -42.5840680 -0.802025E-05  0.937E-03    0.45       2.1  T
   8    -42.5840698 -0.176696E-05  0.440E-03    0.45       4.5  T
   9    -42.5840699 -0.141868E-06  0.147E-03    0.45      13.6  T
  10    -42.5840700 -0.613070E-07  0.497E-04    0.45      40.2  T
  11    -42.5840700 -0.434759E-08  0.160E-04    0.45     125.1  T
     SCC iter.                  ...        0 min,  0.015 sec
     gradient                   ...        0 min,  0.013 sec
 * total energy  :   -42.0789003 Eh     change       -0.1667998E-01 Eh
   gradient norm :     0.0526203 Eh/α   predicted    -0.2050705E-01 (  22.94%)
   displ. norm   :     0.2266220 α      lambda       -0.3387818E-02
   maximum displ.:     0.1134584 α      in ANC's #2, #19, #11, ...

........................................................................
.............................. CYCLE   31 ..............................
........................................................................

 iter      E             dE          RMSdq      gap      omega  full diag
   1    -42.5882840 -0.425883E+02  0.121E-01    0.45       0.0  T
   2    -42.5881355  0.148558E-03  0.105E-01    0.42       1.0  T
   3    -42.5880705  0.650221E-04  0.961E-02    0.46       1.0  T
   4    -42.5883024 -0.231957E-03  0.378E-02    0.43       1.0  T
   5    -42.5883500 -0.475468E-04  0.909E-03    0.44       2.2  T
   6    -42.5883520 -0.207173E-05  0.285E-03    0.44       7.0  T
   7    -42.5883521 -0.270003E-07  0.153E-03    0.44      13.1  T
   8    -42.5883521 -0.528499E-07  0.382E-04    0.44      52.4  T
   9    -42.5883521 -0.246643E-08  0.189E-04    0.44     105.8  T
     SCC iter.                  ...        0 min,  0.013 sec
     gradient                   ...        0 min,  0.013 sec
 * total energy  :   -42.0813992 Eh     change       -0.2498919E-02 Eh
   gradient norm :     0.0327145 Eh/α   predicted    -0.1780912E-02 ( -28.73%)
   displ. norm   :     0.3683011 α      lambda       -0.4901579E-02
   maximum displ.:     0.1664721 α      in ANC's #11, #19, #12, ...

........................................................................
.............................. CYCLE   32 ..............................
........................................................................

 iter      E             dE          RMSdq      gap      omega  full diag
   1    -42.6003130 -0.426003E+02  0.230E-01    0.37       0.0  T
   2    -42.6004383 -0.125370E-03  0.147E-01    0.37       1.0  T
   3    -42.6004056  0.327195E-04  0.106E-01    0.37       1.0  T
   4    -42.6004367 -0.310493E-04  0.696E-02    0.38       1.0  T
   5    -42.6005462 -0.109582E-03  0.468E-02    0.36       1.0  T
   6    -42.6006201 -0.739128E-04  0.716E-03    0.37       2.8  T
   7    -42.6006213 -0.116241E-05  0.317E-03    0.37       6.3  T
   8    -42.6006214 -0.676101E-07  0.119E-03    0.37      16.8  T
   9    -42.6006214 -0.373788E-07  0.363E-04    0.37      55.0  T
  10    -42.6006214 -0.704048E-09  0.148E-04    0.37     135.5  T
     SCC iter.                  ...        0 min,  0.014 sec
     gradient                   ...        0 min,  0.013 sec
 * total energy  :   -42.0838230 Eh     change       -0.2423821E-02 Eh
   gradient norm :     0.0254635 Eh/α   predicted    -0.2783247E-02 (  14.83%)
   displ. norm   :     0.4207010 α      lambda       -0.3508984E-02
   maximum displ.:     0.2330484 α      in ANC's #2, #11, #3, ...

........................................................................
.............................. CYCLE   33 ..............................
........................................................................

 iter      E             dE          RMSdq      gap      omega  full diag
   1    -42.5881227 -0.425881E+02  0.274E-01    0.28       0.0  T
   2    -42.5869610  0.116169E-02  0.231E-01    0.35       1.0  T
   3    -42.5865782  0.382825E-03  0.252E-01    0.25       1.0  T
   4    -42.5883874 -0.180919E-02  0.418E-02    0.31       1.0  T
   5    -42.5884300 -0.425988E-04  0.178E-02    0.30       1.1  T
   6    -42.5884385 -0.851844E-05  0.538E-03    0.30       3.7  T
   7    -42.5884387 -0.171765E-06  0.256E-03    0.30       7.8  T
   8    -42.5884388 -0.102197E-06  0.632E-04    0.30      31.6  T
   9    -42.5884388 -0.466823E-08  0.345E-04    0.30      57.9  T
     SCC iter.                  ...        0 min,  0.012 sec
     gradient                   ...        0 min,  0.013 sec
 * total energy  :   -42.0846866 Eh     change       -0.8635751E-03 Eh
   gradient norm :     0.0324106 Eh/α   predicted    -0.2065032E-02 ( 139.13%)
   displ. norm   :     0.1791983 α      lambda       -0.2392380E-02
   maximum displ.:     0.0688722 α      in ANC's #4, #10, #8, ...

........................................................................
.............................. CYCLE   34 ..............................
........................................................................

 iter      E             dE          RMSdq      gap      omega  full diag
   1    -42.5979039 -0.425979E+02  0.148E-01    0.33       0.0  T
   2    -42.5978515  0.523095E-04  0.959E-02    0.31       1.0  T
   3    -42.5972511  0.600487E-03  0.146E-01    0.36       1.0  T
   4    -42.5979398 -0.688794E-03  0.288E-02    0.32       1.0  T
   5    -42.5979612 -0.213965E-04  0.130E-02    0.32       1.5  T
   6    -42.5979667 -0.549359E-05  0.332E-03    0.32       6.0  T
   7    -42.5979669 -0.123036E-06  0.167E-03    0.32      12.0  T
   8    -42.5979669 -0.197335E-07  0.507E-04    0.32      39.4  T
   9    -42.5979669 -0.532334E-08  0.207E-04    0.32      96.6  T
     SCC iter.                  ...        0 min,  0.012 sec
     gradient                   ...        0 min,  0.013 sec
 * total energy  :   -42.0861352 Eh     change       -0.1448631E-02 Eh
   gradient norm :     0.0160775 Eh/α   predicted    -0.1234609E-02 ( -14.77%)
   displ. norm   :     0.1530202 α      lambda       -0.1245196E-02
   maximum displ.:     0.0647472 α      in ANC's #2, #17, #14, ...

........................................................................
.............................. CYCLE   35 ..............................
........................................................................

 iter      E             dE          RMSdq      gap      omega  full diag
   1    -42.6021331 -0.426021E+02  0.110E-01    0.29       0.0  T
   2    -42.6018434  0.289634E-03  0.114E-01    0.33       1.0  T
   3    -42.6020581 -0.214635E-03  0.780E-02    0.29       1.0  T
   4    -42.6021929 -0.134863E-03  0.252E-02    0.31       1.0  T
   5    -42.6022126 -0.196463E-04  0.967E-03    0.30       2.1  T
   6    -42.6022151 -0.250908E-05  0.269E-03    0.30       7.4  T
   7    -42.6022152 -0.743690E-07  0.125E-03    0.30      16.0  T
   8    -42.6022152 -0.157556E-07  0.386E-04    0.30      51.8  T
   9    -42.6022152 -0.245598E-08  0.206E-04    0.30      97.2  T
     SCC iter.                  ...        0 min,  0.012 sec
     gradient                   ...        0 min,  0.013 sec
 * total energy  :   -42.0869337 Eh     change       -0.7984580E-03 Eh
   gradient norm :     0.0120990 Eh/α   predicted    -0.6371823E-03 ( -20.20%)
   displ. norm   :     0.2694459 α      lambda       -0.8560033E-03
   maximum displ.:     0.1489357 α      in ANC's #2, #4, #10, ...

........................................................................
.............................. CYCLE   36 ..............................
........................................................................

 iter      E             dE          RMSdq      gap      omega  full diag
   1    -42.5999454 -0.425999E+02  0.153E-01    0.26       0.0  T
   2    -42.5995205  0.424902E-03  0.139E-01    0.30       1.0  T
   3    -42.5995798 -0.593289E-04  0.130E-01    0.24       1.0  T
   4    -42.6000170 -0.437197E-03  0.369E-02    0.28       1.0  T
   5    -42.6000669 -0.499383E-04  0.872E-03    0.27       2.3  T
   6    -42.6000685 -0.157780E-05  0.368E-03    0.27       5.4  T
   7    -42.6000687 -0.161786E-06  0.151E-03    0.27      13.2  T
   8    -42.6000687 -0.347489E-07  0.485E-04    0.27      41.2  T
   9    -42.6000687 -0.123489E-08  0.306E-04    0.27      65.4  T
     SCC iter.                  ...        0 min,  0.012 sec
     gradient                   ...        0 min,  0.013 sec
 * total energy  :   -42.0874512 Eh     change       -0.5175021E-03 Eh
   gradient norm :     0.0126228 Eh/α   predicted    -0.4590781E-03 ( -11.29%)
   displ. norm   :     0.1596043 α      lambda       -0.3988865E-03
   maximum displ.:     0.1038320 α      in ANC's #2, #4, #10, ...

........................................................................
.............................. CYCLE   37 ..............................
........................................................................

 iter      E             dE          RMSdq      gap      omega  full diag
   1    -42.5995344 -0.425995E+02  0.900E-02    0.26       0.0  T
   2    -42.5995319  0.243044E-05  0.542E-02    0.27       1.0  T
   3    -42.5993209  0.211004E-03  0.754E-02    0.24       1.0  T
   4    -42.5995366 -0.215627E-03  0.111E-02    0.27       1.8  T
   5    -42.5995405 -0.394346E-05  0.228E-03    0.26       8.8  T
   6    -42.5995405 -0.484622E-07  0.140E-03    0.26      14.3  T
   7    -42.5995406 -0.751916E-08  0.671E-04    0.26      29.8  T
   8    -42.5995406 -0.153391E-07  0.231E-04    0.26      86.5  T
     SCC iter.                  ...        0 min,  0.011 sec
     gradient                   ...        0 min,  0.013 sec
 * total energy  :   -42.0876949 Eh     change       -0.2437456E-03 Eh
   gradient norm :     0.0094636 Eh/α   predicted    -0.2045261E-03 ( -16.09%)
   displ. norm   :     0.2059706 α      lambda       -0.3891974E-03
   maximum displ.:     0.1193536 α      in ANC's #2, #6, #8, ...

........................................................................
.............................. CYCLE   38 ..............................
........................................................................

 iter      E             dE          RMSdq      gap      omega  full diag
   1    -42.5982672 -0.425983E+02  0.128E-01    0.27       0.0  T
   2    -42.5982258  0.413739E-04  0.829E-02    0.26       1.0  T
   3    -42.5975265  0.699281E-03  0.141E-01    0.30       1.0  T
   4    -42.5982810 -0.754475E-03  0.129E-02    0.27       1.5  T
   5    -42.5982849 -0.397063E-05  0.557E-03    0.27       3.6  T
   6    -42.5982855 -0.570643E-06  0.229E-03    0.27       8.7  T
   7    -42.5982855 -0.345360E-07  0.879E-04    0.27      22.7  T
   8    -42.5982856 -0.240636E-07  0.262E-04    0.27      76.3  T
     SCC iter.                  ...        0 min,  0.011 sec
     gradient                   ...        0 min,  0.013 sec
 * total energy  :   -42.0879594 Eh     change       -0.2644098E-03 Eh
   gradient norm :     0.0084602 Eh/α   predicted    -0.2028570E-03 ( -23.28%)
   displ. norm   :     0.2610416 α      lambda       -0.4650699E-03
   maximum displ.:     0.1285706 α      in ANC's #6, #2, #3, ...

........................................................................
.............................. CYCLE   39 ..............................
........................................................................

 iter      E             dE          RMSdq      gap      omega  full diag
   1    -42.5988269 -0.425988E+02  0.173E-01    0.28       0.0  T
   2    -42.5986863  0.140544E-03  0.119E-01    0.26       1.0  T
   3    -42.5976980  0.988387E-03  0.181E-01    0.33       1.0  T
   4    -42.5988312 -0.113321E-02  0.350E-02    0.27       1.0  T
   5    -42.5988740 -0.427927E-04  0.564E-03    0.28       3.5  T
   6    -42.5988743 -0.309138E-06  0.289E-03    0.28       6.9  T
   7    -42.5988743 -0.702913E-07  0.867E-04    0.28      23.1  T
   8    -42.5988743 -0.932658E-08  0.289E-04    0.28      69.2  T
     SCC iter.                  ...        0 min,  0.011 sec
     gradient                   ...        0 min,  0.013 sec
 * total energy  :   -42.0882366 Eh     change       -0.2772663E-03 Eh
   gradient norm :     0.0125002 Eh/α   predicted    -0.2483825E-03 ( -10.42%)
   displ. norm   :     0.2331734 α      lambda       -0.3775679E-03
   maximum displ.:     0.1257563 α      in ANC's #2, #6, #1, ...

........................................................................
.............................. CYCLE   40 ..............................
........................................................................

 iter      E             dE          RMSdq      gap      omega  full diag
   1    -42.5984056 -0.425984E+02  0.153E-01    0.30       0.0  T
   2    -42.5982676  0.137927E-03  0.108E-01    0.27       1.0  T
   3    -42.5975374  0.730279E-03  0.161E-01    0.33       1.0  T
   4    -42.5984264 -0.888997E-03  0.216E-02    0.29       1.0  T
   5    -42.5984430 -0.166802E-04  0.462E-03    0.29       4.3  T
   6    -42.5984432 -0.165030E-06  0.227E-03    0.29       8.8  T
   7    -42.5984432 -0.149405E-07  0.778E-04    0.29      25.7  T
   8    -42.5984432 -0.128684E-07  0.234E-04    0.29      85.5  T
     SCC iter.                  ...        0 min,  0.011 sec
     gradient                   ...        0 min,  0.013 sec
 * total energy  :   -42.0884606 Eh     change       -0.2239895E-03 Eh
   gradient norm :     0.0133683 Eh/α   predicted    -0.1990508E-03 ( -11.13%)
   displ. norm   :     0.1831791 α      lambda       -0.4119932E-03
   maximum displ.:     0.0979710 α      in ANC's #1, #3, #6, ...

........................................................................
.............................. CYCLE   41 ..............................
........................................................................

 iter      E             dE          RMSdq      gap      omega  full diag
   1    -42.6015932 -0.426016E+02  0.108E-01    0.29       0.0  T
   2    -42.6015778  0.154016E-04  0.649E-02    0.29       1.0  T
   3    -42.6012213  0.356429E-03  0.102E-01    0.32       1.0  T
   4    -42.6015910 -0.369686E-03  0.195E-02    0.29       1.0  T
   5    -42.6016053 -0.142584E-04  0.436E-03    0.29       4.6  T
   6    -42.6016056 -0.333264E-06  0.188E-03    0.29      10.6  T
   7    -42.6016056 -0.117092E-07  0.925E-04    0.29      21.6  T
   8    -42.6016056 -0.205122E-07  0.241E-04    0.29      83.0  T
     SCC iter.                  ...        0 min,  0.011 sec
     gradient                   ...        0 min,  0.013 sec
 * total energy  :   -42.0887521 Eh     change       -0.2914358E-03 Eh
   gradient norm :     0.0106969 Eh/α   predicted    -0.2129100E-03 ( -26.94%)
   displ. norm   :     0.4646075 α      lambda       -0.6541898E-03
   maximum displ.:     0.2570910 α      in ANC's #1, #3, #2, ...

........................................................................
.............................. CYCLE   42 ..............................
........................................................................

 iter      E             dE          RMSdq      gap      omega  full diag
   1    -42.5979072 -0.425979E+02  0.288E-01    0.26       0.0  T
   2    -42.5978181  0.890630E-04  0.174E-01    0.29       1.0  T
   3    -42.5948948  0.292336E-02  0.283E-01    0.19       1.0  T
   4    -42.5979421 -0.304735E-02  0.183E-02    0.27       1.1  T
   5    -42.5979500 -0.793159E-05  0.850E-03    0.27       2.4  T
   6    -42.5979509 -0.908460E-06  0.367E-03    0.27       5.5  T
   7    -42.5979510 -0.926479E-07  0.125E-03    0.27      16.0  T
   8    -42.5979511 -0.514510E-07  0.412E-04    0.27      48.5  T
   9    -42.5979511 -0.234635E-08  0.182E-04    0.27     109.8  T
     SCC iter.                  ...        0 min,  0.013 sec
     gradient                   ...        0 min,  0.013 sec
 * total energy  :   -42.0891854 Eh     change       -0.4333501E-03 Eh
   gradient norm :     0.0186489 Eh/α   predicted    -0.3977067E-03 (  -8.23%)
   displ. norm   :     0.3789048 α      lambda       -0.9448220E-03
   maximum displ.:     0.2450822 α      in ANC's #1, #3, #2, ...
 * RMSD in coord.:     0.8764628 α      energy gain  -0.2038520E+00 Eh

generating ANC from model Hessian ...
Using Lindh-Hessian (1995)
 Shifting diagonal of input Hessian by    9.3093264918074001E-003
 Lowest  eigenvalues of input Hessian
    0.000000    0.000000    0.000000    0.000000    0.000000    0.000000
    0.010000    0.012727    0.014098    0.015950    0.017902    0.019491
    0.020863    0.021223    0.023732    0.026132    0.034300    0.040068
 Highest eigenvalues
    1.955173    2.010475    2.245525    2.296000    2.471011    3.288104


........................................................................
.............................. CYCLE   43 ..............................
........................................................................

 iter      E             dE          RMSdq      gap      omega  full diag
   1    -42.5985996 -0.425986E+02  0.206E-01    0.21       0.0  T
   2    -42.5981254  0.474163E-03  0.165E-01    0.26       1.0  T
   3    -42.5975399  0.585476E-03  0.192E-01    0.18       1.0  T
   4    -42.5987042 -0.116430E-02  0.178E-02    0.23       1.1  T
   5    -42.5987142 -0.996126E-05  0.682E-03    0.23       2.9  T
   6    -42.5987151 -0.914163E-06  0.299E-03    0.23       6.7  T
   7    -42.5987151 -0.178965E-07  0.108E-03    0.23      18.5  T
   8    -42.5987152 -0.291361E-07  0.404E-04    0.23      49.6  T
   9    -42.5987152 -0.278685E-08  0.205E-04    0.23      97.7  T
     SCC iter.                  ...        0 min,  0.013 sec
     gradient                   ...        0 min,  0.013 sec
 * total energy  :   -42.0898300 Eh     change       -0.6446297E-03 Eh
   gradient norm :     0.0194932 Eh/α   predicted     0.0000000E+00 (-100.00%)
   displ. norm   :     0.1788469 α      lambda       -0.1056487E-02
   maximum displ.:     0.0904856 α      in ANC's #1, #2, #4, ...

........................................................................
.............................. CYCLE   44 ..............................
........................................................................

 iter      E             dE          RMSdq      gap      omega  full diag
   1    -42.6037521 -0.426038E+02  0.114E-01    0.24       0.0  T
   2    -42.6037451  0.699419E-05  0.670E-02    0.23       1.0  T
   3    -42.6033933  0.351871E-03  0.987E-02    0.26       1.0  T
   4    -42.6037594 -0.366150E-03  0.121E-02    0.23       1.7  T
   5    -42.6037632 -0.382538E-05  0.467E-03    0.23       4.3  T
   6    -42.6037635 -0.307613E-06  0.222E-03    0.23       9.0  T
   7    -42.6037636 -0.502003E-07  0.641E-04    0.23      31.2  T
   8    -42.6037636 -0.896282E-08  0.246E-04    0.23      81.1  T
     SCC iter.                  ...        0 min,  0.011 sec
     gradient                   ...        0 min,  0.013 sec
 * total energy  :   -42.0906492 Eh     change       -0.8191259E-03 Eh
   gradient norm :     0.0092401 Eh/α   predicted    -0.5452445E-03 ( -33.44%)
   displ. norm   :     0.3971964 α      lambda       -0.1305791E-02
   maximum displ.:     0.2170029 α      in ANC's #1, #2, #4, ...

........................................................................
.............................. CYCLE   45 ..............................
........................................................................

 iter      E             dE          RMSdq      gap      omega  full diag
   1    -42.6071620 -0.426072E+02  0.255E-01    0.24       0.0  T
   2    -42.6071667 -0.465791E-05  0.147E-01    0.23       1.0  T
   3    -42.6065319  0.634747E-03  0.134E-01    0.28       1.0  T
   4    -42.6071481 -0.616166E-03  0.380E-02    0.23       1.0  T
   5    -42.6072005 -0.523670E-04  0.106E-02    0.24       1.9  T
   6    -42.6072029 -0.249393E-05  0.446E-03    0.24       4.5  T
   7    -42.6072031 -0.118989E-06  0.121E-03    0.24      16.5  T
   8    -42.6072031 -0.238095E-07  0.476E-04    0.24      42.0  T
   9    -42.6072031 -0.265005E-08  0.250E-04    0.24      79.9  T
     SCC iter.                  ...        0 min,  0.013 sec
     gradient                   ...        0 min,  0.013 sec
 * total energy  :   -42.0916220 Eh     change       -0.9728178E-03 Eh
   gradient norm :     0.0101577 Eh/α   predicted    -0.7560350E-03 ( -22.28%)
   displ. norm   :     0.4852006 α      lambda       -0.1073875E-02
   maximum displ.:     0.2828252 α      in ANC's #1, #2, #4, ...

........................................................................
.............................. CYCLE   46 ..............................
........................................................................

 iter      E             dE          RMSdq      gap      omega  full diag
   1    -42.6057816 -0.426058E+02  0.305E-01    0.24       0.0  T
   2    -42.6058080 -0.264457E-04  0.176E-01    0.24       1.0  T
   3    -42.6054552  0.352876E-03  0.100E-01    0.26       1.0  T
   4    -42.6058012 -0.346043E-03  0.354E-02    0.23       1.0  T
   5    -42.6058365 -0.353251E-04  0.166E-02    0.25       1.2  T
   6    -42.6058457 -0.911747E-05  0.523E-03    0.24       3.8  T
   7    -42.6058459 -0.211310E-06  0.155E-03    0.24      12.9  T
   8    -42.6058459 -0.256442E-07  0.550E-04    0.24      36.4  T
   9    -42.6058459 -0.668120E-08  0.267E-04    0.24      74.8  T
     SCC iter.                  ...        0 min,  0.013 sec
     gradient                   ...        0 min,  0.013 sec
 * total energy  :   -42.0924397 Eh     change       -0.8177398E-03 Eh
   gradient norm :     0.0196457 Eh/α   predicted    -0.6633451E-03 ( -18.88%)
   displ. norm   :     0.4536879 α      lambda       -0.1024155E-02
   maximum displ.:     0.2656611 α      in ANC's #1, #2, #3, ...

........................................................................
.............................. CYCLE   47 ..............................
........................................................................

 iter      E             dE          RMSdq      gap      omega  full diag
   1    -42.6049947 -0.426050E+02  0.276E-01    0.24       0.0  T
   2    -42.6050161 -0.213682E-04  0.160E-01    0.24       1.0  T
   3    -42.6048111  0.204966E-03  0.726E-02    0.24       1.0  T
   4    -42.6050268 -0.215674E-03  0.212E-02    0.24       1.0  T
   5    -42.6050358 -0.900882E-05  0.123E-02    0.24       1.6  T
   6    -42.6050401 -0.431056E-05  0.541E-03    0.24       3.7  T
   7    -42.6050406 -0.508322E-06  0.162E-03    0.24      12.4  T
   8    -42.6050407 -0.435797E-07  0.480E-04    0.24      41.7  T
   9    -42.6050407 -0.442357E-08  0.254E-04    0.24      78.7  T
     SCC iter.                  ...        0 min,  0.013 sec
     gradient                   ...        0 min,  0.013 sec
 * total energy  :   -42.0931937 Eh     change       -0.7539912E-03 Eh
   gradient norm :     0.0253557 Eh/α   predicted    -0.6174803E-03 ( -18.11%)
   displ. norm   :     0.3830768 α      lambda       -0.1206292E-02
   maximum displ.:     0.2294708 α      in ANC's #2, #1, #3, ...

........................................................................
.............................. CYCLE   48 ..............................
........................................................................

 iter      E             dE          RMSdq      gap      omega  full diag
   1    -42.6083152 -0.426083E+02  0.211E-01    0.24       0.0  T
   2    -42.6083137  0.152559E-05  0.123E-01    0.24       1.0  T
   3    -42.6076557  0.657902E-03  0.128E-01    0.21       1.0  T
   4    -42.6083215 -0.665763E-03  0.237E-02    0.24       1.0  T
   5    -42.6083392 -0.176515E-04  0.616E-03    0.24       3.2  T
   6    -42.6083397 -0.500722E-06  0.386E-03    0.24       5.2  T
   7    -42.6083399 -0.195205E-06  0.136E-03    0.24      14.7  T
   8    -42.6083399 -0.294318E-07  0.393E-04    0.24      50.9  T
   9    -42.6083399 -0.185086E-08  0.225E-04    0.24      89.0  T
     SCC iter.                  ...        0 min,  0.012 sec
     gradient                   ...        0 min,  0.013 sec
 * total energy  :   -42.0941083 Eh     change       -0.9146438E-03 Eh
   gradient norm :     0.0184593 Eh/α   predicted    -0.6916566E-03 ( -24.38%)
   displ. norm   :     0.4559700 α      lambda       -0.1189464E-02
   maximum displ.:     0.3085622 α      in ANC's #1, #2, #3, ...

........................................................................
.............................. CYCLE   49 ..............................
........................................................................

 iter      E             dE          RMSdq      gap      omega  full diag
   1    -42.6111368 -0.426111E+02  0.254E-01    0.23       0.0  T
   2    -42.6111301  0.662579E-05  0.148E-01    0.23       1.0  T
   3    -42.6100758  0.105434E-02  0.164E-01    0.18       1.0  T
   4    -42.6111605 -0.108473E-02  0.194E-02    0.23       1.0  T
   5    -42.6111685 -0.798598E-05  0.603E-03    0.23       3.3  T
   6    -42.6111686 -0.684476E-07  0.368E-03    0.23       5.4  T
   7    -42.6111688 -0.266751E-06  0.132E-03    0.23      15.1  T
   8    -42.6111689 -0.465273E-07  0.462E-04    0.23      43.3  T
   9    -42.6111689 -0.172407E-08  0.228E-04    0.23      87.8  T
     SCC iter.                  ...        0 min,  0.012 sec
     gradient                   ...        0 min,  0.013 sec
 * total energy  :   -42.0949902 Eh     change       -0.8818461E-03 Eh
   gradient norm :     0.0125184 Eh/α   predicted    -0.7183823E-03 ( -18.54%)
   displ. norm   :     0.4183104 α      lambda       -0.1220783E-02
   maximum displ.:     0.3038562 α      in ANC's #1, #2, #18, ...

........................................................................
.............................. CYCLE   50 ..............................
........................................................................

[...]
C           -1.95569940901544        2.10817380331059       -0.70817562628938
C           -1.99209096697574       -0.16472790612042        0.05506753765733
O           -3.18773068008308       -0.14966815293093        0.09496824057037
N           -1.26582446283226       -1.32164687389960        0.42061017225254
C           -2.02813765980613       -2.48569922886417        0.82154738774337
H            2.21571055800994        0.47973123305261        2.05651618334718
H            3.81386773778195        0.49861957265849        1.28272520531638
H            2.59243306292853        1.69924550316921        0.82410743225274
H            4.17797555828931       -0.45783375767716       -0.58318701889586
H           -1.24732423184959        2.91082328624994       -0.89933067977632
H           -2.54200991917480        1.90436959625568       -1.60511174488314
H           -2.64144048918931        2.38521335935045        0.09281314201127
H           -1.38311636180748       -3.17152029178907        1.36519212279070
H           -2.43740825119305       -2.98836100689443       -0.05801536310071
H           -2.86325494580767       -2.16600063784635        1.44538463794540
H            2.10526262535669       -1.73659977451775       -2.19874304212297

 Bond Distances (Angstroems)
 ---------------------------
C1-N2=1.4463         C1-H15=1.0905        C1-H16=1.0875        C1-H17=1.0958        N2-C1=1.4463         N2-C3=1.3684         
N2-C6=1.4015         C3-N2=1.3684         C3-N4=1.2537         C3-H18=1.0873        N4-C3=1.2537         N4-H25=1.0101        
C5-C6=1.3374         C5-N13=1.3154        C6-N2=1.4015         C6-C5=1.3374         C6-C7=1.5102         C7-C6=1.5102         
C7-O8=1.2047         C7-N9=1.3713         O8-C7=1.2047         N9-C7=1.3713         N9-C10=1.4589        N9-C11=1.3806        
C10-N9=1.4589        C10-H19=1.0875       C10-H20=1.0908       C10-H21=1.0902       C11-N9=1.3806        C11-O12=1.1964       
C11-N13=1.4141       O12-C11=1.1964       N13-C5=1.3154        N13-C11=1.4141       N13-C14=1.4481       C14-N13=1.4481       
C14-H22=1.0872       C14-H23=1.0926       C14-H24=1.0903       H15-C1=1.0905        H16-C1=1.0875        H17-C1=1.0958        
H18-C3=1.0873        H19-C10=1.0875       H20-C10=1.0908       H21-C10=1.0902       H22-C14=1.0872       H23-C14=1.0926       
H24-C14=1.0903       H25-N4=1.0101        
 C  H  Rav=1.0900 sigma=0.0026  Rmin=1.0872  Rmax=1.0958    10
 C  C  Rav=1.4238 sigma=0.0864  Rmin=1.3374  Rmax=1.5102     2
 N  H  Rav=1.0101 sigma=0.0000  Rmin=1.0101  Rmax=1.0101     1
 N  C  Rav=1.3858 sigma=0.0607  Rmin=1.2537  Rmax=1.4589    10
 O  C  Rav=1.2005 sigma=0.0041  Rmin=1.1964  Rmax=1.2047     2

 selected bond angles (degree)
 --------------------
H15-C1-N2=109.82               H16-C1-N2=110.24               H16-C1-H15=109.23              H17-C1-N2=110.42               
H17-C1-H15=108.49              H17-C1-H16=108.60              C3-N2-C1=118.27                C6-N2-C1=114.32                
C6-N2-C3=126.32                N4-C3-N2=132.09                H18-C3-N2=112.52               H18-C3-N4=115.39               
H25-N4-C3=124.33               N13-C5-C6=128.29               C5-C6-N2=129.28                C7-C6-N2=115.74                
C7-C6-C5=114.54                O8-C7-C6=120.23                N9-C7-C6=115.44                N9-C7-O8=124.32                
C10-N9-C7=118.04               C11-N9-C7=126.74               C11-N9-C10=115.21              H19-C10-N9=108.72              
H20-C10-N9=109.69              H20-C10-H19=110.09             H21-C10-N9=109.50              H21-C10-H19=110.57             
H21-C10-H20=108.27             

 selected dihedral angles (degree)
 ---------------------------------
C3-N2-C1-H15=215.46           C3-N2-C1-H16=335.86           C3-N2-C1-H17= 95.86           C6-N2-C1-H15= 46.67           
C6-N2-C1-H16=167.08           C6-N2-C1-H17=287.07           N4-C3-N2-C1=187.41            N4-C3-N2-C6=354.71            
H18-C3-N2-C1=  6.90           H18-C3-N2-C6=174.20           H25-N4-C3-N2=358.78           H25-N4-C3-H18=179.30          
C5-C6-N2-C1=250.78            C5-C6-N2-C3= 83.05            C7-C6-N2-C1= 62.64            C7-C6-N2-C3=254.91            
N2-C6-C5-N13=171.54           C7-C6-C5-N13=359.60           O8-C7-C6-N2=  5.01            O8-C7-C6-C5=178.10            
N9-C7-C6-N2=184.61            N9-C7-C6-C5=357.70            C10-N9-C7-C6=182.01           C10-N9-C7-O8=  1.59           
C11-N9-C7-C6=  3.43           C11-N9-C7-O8=183.01           H19-C10-N9-C7=356.32          H19-C10-N9-C11=175.06         
H20-C10-N9-C7=116.75          H20-C10-N9-C11=295.49         H21-C10-N9-C7=235.43          H21-C10-N9-C11= 54.17         
           -------------------------------------------------
          |                Final Singlepoint                |
           -------------------------------------------------

          ...................................................
          :                      SETUP                      :
          :.................................................:
          :  # basis functions                  67          :
          :  # atomic orbitals                  67          :
          :  # shells                           39          :
          :  # electrons                        74          :
          :  max. iterations                   250          :
          :  Hamiltonian                  GFN2-xTB          :
          :  restarted?                      false          :
          :  GBSA solvation                  false          :
          :  PC potential                    false          :
          :  electronic temp.         5000.0000000     K    :
          :  accuracy                    1.0000000          :
          :  -> integral cutoff          0.2500000E+02      :
          :  -> integral neglect         0.1000000E-07      :
          :  -> SCF convergence          0.1000000E-05 Eh   :
          :  -> wf. convergence          0.1000000E-03 e    :
          :  Broyden damping             0.4000000          :
          ...................................................

 iter      E             dE          RMSdq      gap      omega  full diag
   1    -42.6353008 -0.426353E+02  0.105E-04    0.76       0.0  T
   2    -42.6353008  0.555573E-10  0.957E-05    0.76     209.0  T
   3    -42.6353008 -0.192358E-09  0.717E-05    0.76     278.9  T

   *** convergence criteria satisfied after 3 iterations ***

         #    Occupation            Energy/Eh            Energy/eV
      -------------------------------------------------------------
         1        2.0000           -0.9055968             -24.6425
       ...           ...                  ...                  ...
        31        1.9951           -0.6307333             -17.1631
        32        1.9933           -0.6256481             -17.0248
        33        1.9708           -0.6021143             -16.3844
        34        1.9486           -0.5930039             -16.1365
        35        1.8816           -0.5792423             -15.7620
        36        1.7810           -0.5686350             -15.4733
        37        1.6131           -0.5580503             -15.1853 (HOMO)
        38        0.8279           -0.5299409             -14.4204 (LUMO)
        39        0.0022           -0.4276693             -11.6375
        40        0.0007           -0.4096437             -11.1470
        41        0.0002           -0.3858141             -10.4985
        42        0.0000           -0.3179702              -8.6524
       ...           ...                  ...                  ...
        67                          0.5434151              14.7871
      -------------------------------------------------------------
                  HL-Gap            0.0281094 Eh            0.7649 eV
             Fermi-level           -0.5354457 Eh          -14.5702 eV

 SCC (total)                   0 d,  0 h,  0 min,  0.023 sec
 SCC setup                      ...        0 min,  0.000 sec (  0.837%)
 Dispersion                     ...        0 min,  0.000 sec (  0.839%)
 classical contributions        ...        0 min,  0.000 sec (  0.312%)
 integral evaluation            ...        0 min,  0.005 sec ( 21.440%)
 iterations                     ...        0 min,  0.005 sec ( 20.420%)
 molecular gradient             ...        0 min,  0.013 sec ( 55.536%)
 printout                       ...        0 min,  0.000 sec (  0.558%)

         :::::::::::::::::::::::::::::::::::::::::::::::::::::
         ::                     SUMMARY                     ::
         :::::::::::::::::::::::::::::::::::::::::::::::::::::
         :: total energy             -42.103522379121 Eh    ::
         :: gradient norm              0.001825911624 Eh/a0 ::
         :: HOMO-LUMO gap              0.764895254536 eV    ::
         ::.................................................::
         :: SCC energy               -42.635300755330 Eh    ::
         :: -> isotropic ES            0.129621128554 Eh    ::
         :: -> anisotropic ES         -0.003418903318 Eh    ::
         :: -> anisotropic XC          0.016710449972 Eh    ::
         :: -> dispersion             -0.021613848306 Eh    ::
         :: repulsion energy           0.531563513269 Eh    ::
         :: add. restraining           0.000027344393 Eh    ::
         :: total charge               1.000000000000 e     ::
         :::::::::::::::::::::::::::::::::::::::::::::::::::::

           -------------------------------------------------
          |                Property Printout                |
           -------------------------------------------------

    * Orbital Energies and Occupations

         #    Occupation            Energy/Eh            Energy/eV
      -------------------------------------------------------------
         1        2.0000           -0.9055968             -24.6425
       ...           ...                  ...                  ...
        25        1.9991           -0.6579145             -17.9028
        26        1.9988           -0.6534468             -17.7812
        27        1.9982           -0.6464061             -17.5896
        28        1.9971           -0.6389137             -17.3857
        29        1.9967           -0.6369518             -17.3323
        30        1.9961           -0.6342942             -17.2600
        31        1.9951           -0.6307333             -17.1631
        32        1.9933           -0.6256481             -17.0248
        33        1.9708           -0.6021143             -16.3844
        34        1.9486           -0.5930039             -16.1365
        35        1.8816           -0.5792423             -15.7620
        36        1.7810           -0.5686350             -15.4733
        37        1.6131           -0.5580503             -15.1853 (HOMO)
        38        0.8279           -0.5299409             -14.4204 (LUMO)
        39        0.0022           -0.4276693             -11.6375
        40        0.0007           -0.4096437             -11.1470
        41        0.0002           -0.3858141             -10.4985
        42        0.0000           -0.3179702              -8.6524
        43                         -0.2150000              -5.8504
        44                         -0.1643913              -4.4733
        45                         -0.1471782              -4.0049
        46                         -0.0948016              -2.5797
        47                         -0.0620397              -1.6882
        48                         -0.0512629              -1.3949
       ...                                ...                  ...
        67                          0.5434151              14.7871
      -------------------------------------------------------------
                  HL-Gap            0.0281094 Eh            0.7649 eV
             Fermi-level           -0.5354457 Eh          -14.5702 eV

     #   Z          covCN         q      C6AA      α(0)
     1   6 C        3.712    -0.078    22.130     6.722
     2   7 N        2.733     0.016    20.980     6.803
     3   6 C        2.764     0.129    25.154     8.214
     4   7 N        1.773    -0.199    26.110     7.567
     5   6 C        1.948    -0.001    31.111     9.007
     6   6 C        2.902     0.019    27.575     8.610
     7   6 C        2.780     0.279    22.275     7.730
     8   8 O        0.858    -0.318    20.106     6.012
     9   7 N        2.738    -0.063    22.467     7.040
    10   6 C        3.709    -0.062    21.842     6.679
    11   6 C        2.733     0.318    21.592     7.608
    12   8 O        0.859    -0.314    20.036     6.001
    13   7 N        2.741     0.012    21.040     6.813
    14   6 C        3.702    -0.068    21.972     6.702
    15   1 H        0.924     0.095     1.829     2.115
    16   1 H        0.925     0.105     1.738     2.062
    17   1 H        0.924     0.123     1.593     1.974
    18   1 H        0.925     0.125     1.575     1.963
    19   1 H        0.925     0.118     1.627     1.995
    20   1 H        0.924     0.111     1.689     2.033
    21   1 H        0.924     0.113     1.670     2.021
    22   1 H        0.925     0.110     1.700     2.039
    23   1 H        0.924     0.114     1.663     2.017
    24   1 H        0.924     0.121     1.607     1.983
    25   1 H        0.860     0.195     1.130     1.665

 Mol. C6AA /au·bohr⁶  :       6570.005583
 Mol. C8AA /au·bohr⁸  :     151003.039937
 Mol. α(0) /au        :        123.373097


Wiberg/Mayer (AO) data.
largest (>0.10) Wiberg bond orders for each atom

 ---------------------------------------------------------------------------
     #   Z sym  total        # sym  WBO       # sym  WBO       # sym  WBO
 ---------------------------------------------------------------------------
     1   6 C    3.893 --     2 N    0.989    15 H    0.963    16 H    0.962
                            17 H    0.928
     2   7 N    3.386 --     3 C    1.180     6 C    1.051     1 C    0.989
                             4 N    0.101
     3   6 C    3.932 --     4 N    1.786     2 N    1.180    18 H    0.911
     4   7 N    2.845 --     3 C    1.786    25 H    0.920     2 N    0.101
     5   6 C    3.200 --     6 C    1.586    13 N    1.339
     6   6 C    3.775 --     5 C    1.586     2 N    1.051     7 C    0.917
     7   6 C    3.871 --     8 O    1.693     9 N    1.154     6 C    0.917
     8   8 O    2.038 --     7 C    1.693     9 N    0.129
     9   7 N    3.543 --     7 C    1.154    11 C    1.114    10 C    0.957
                             8 O    0.129    12 O    0.124
    10   6 C    3.876 --    19 H    0.965     9 N    0.957    21 H    0.956
                            20 H    0.954
    11   6 C    3.926 --    12 O    1.716     9 N    1.114    13 N    1.006
    12   8 O    2.044 --    11 C    1.716     9 N    0.124    13 N    0.102
    13   7 N    3.544 --     5 C    1.339    11 C    1.006    14 C    0.967
                            12 O    0.102
    14   6 C    3.879 --    22 H    0.971    13 N    0.967    24 H    0.956
                            23 H    0.946
    15   1 H    0.975 --     1 C    0.963
    16   1 H    0.981 --     1 C    0.962
    17   1 H    0.950 --     1 C    0.928
    18   1 H    0.956 --     3 C    0.911
    19   1 H    0.982 --    10 C    0.965
    20   1 H    0.974 --    10 C    0.954
    21   1 H    0.975 --    10 C    0.956
    22   1 H    0.983 --    14 C    0.971
    23   1 H    0.966 --    14 C    0.946
    24   1 H    0.975 --    14 C    0.956
    25   1 H    0.945 --     4 N    0.920
 ---------------------------------------------------------------------------

Topologies differ in total number of bonds
Writing topology from bond orders to xtbtopo.mol

molecular dipole:
                 x           y           z       tot (Debye)
 q only:        0.924      -0.905       0.487
   full:        0.756      -0.881       0.573       3.291
molecular quadrupole (traceless):
                xx          xy          yy          xz          yz          zz
 q only:       10.906       0.885       0.203       3.257      -1.603     -11.110
  q+dip:        8.113       2.464      -0.103       5.793      -0.901      -8.010
   full:        6.394       1.897       0.308       6.141      -0.762      -6.702

           -------------------------------------------------
          |                Geometry Summary                 |
           -------------------------------------------------

      molecular mass/u    :      195.1988581
   center of mass at/Å    :        0.0729378      -0.0822895      -0.1231613
  moments of inertia/u·Å² :        0.4520029E+03   0.9631478E+03   0.1215843E+04
rotational constants/cm⁻¹ :        0.3729541E-01   0.1750264E-01   0.1386498E-01

 * 23 selected distances

     #   Z          #   Z                                           value/Å
     1   6 C        2   7 N                                       1.4463389
     2   7 N        3   6 C                                       1.3683519
     3   6 C        4   7 N                                       1.2537118
     2   7 N        6   6 C                                       1.4015435
     5   6 C        6   6 C                                       1.3373698
     7   6 C        8   8 O                                       1.2046593
     7   6 C        9   7 N                                       1.3713494
     9   7 N       10   6 C                                       1.4588633 (max)
     9   7 N       11   6 C                                       1.3805971
    11   6 C       12   8 O                                       1.1964002
     5   6 C       13   7 N                                       1.3154093
    11   6 C       13   7 N                                       1.4140532
    13   7 N       14   6 C                                       1.4480643
     1   6 C       15   1 H                                       1.0904776
     1   6 C       16   1 H                                       1.0875410
     1   6 C       17   1 H                                       1.0958171
     3   6 C       18   1 H                                       1.0873316
    10   6 C       19   1 H                                       1.0874659
    10   6 C       20   1 H                                       1.0907753
    10   6 C       21   1 H                                       1.0902179
    14   6 C       22   1 H                                       1.0871765 (min)
    14   6 C       23   1 H                                       1.0926125
    14   6 C       24   1 H                                       1.0903216

 * 4 distinct bonds (by element types)

   Z      Z             #   av. dist./Å        max./Å        min./Å
   1 H    6 C          10     1.0899737     1.0958171     1.0871765
   6 C    6 C           1     1.3373698     1.3373698     1.3373698
   6 C    7 N          10     1.3858283     1.4588633     1.2537118
   6 C    8 O           2     1.2005297     1.2046593     1.1964002


optimized geometry written to: xtbopt.xyz


           -------------------------------------------------
          | TOTAL ENERGY              -42.103522379121 Eh   |
          | GRADIENT NORM               0.001825911624 Eh/α |
          | HOMO-LUMO GAP               0.764895254536 eV   |
           -------------------------------------------------

------------------------------------------------------------------------
 * finished run on 2024/06/05 at 20:00:11.381     
------------------------------------------------------------------------
 total:
 * wall-time:     0 d,  0 h,  0 min,  2.664 sec
 *  cpu-time:     0 d,  0 h,  0 min,  2.643 sec
 * ratio c/w:     0.992 speedup
 SCF:
 * wall-time:     0 d,  0 h,  0 min,  0.037 sec
 *  cpu-time:     0 d,  0 h,  0 min,  0.037 sec
 * ratio c/w:     1.000 speedup
 ANC optimizer:
 * wall-time:     0 d,  0 h,  0 min,  2.596 sec
 *  cpu-time:     0 d,  0 h,  0 min,  2.592 sec
 * ratio c/w:     0.999 speedup

