25
 energy: -42.136734143752 gnorm: 0.003391532835 xtb: 6.6.1 (8d0f1dd)
C            3.31047835597695        2.39252925752897        0.02256679089710
N            2.81598638934869        1.03990535620649        0.01833369294046
C            3.54064977985420       -0.07142886967092        0.02292604298870
N            2.74093537997784       -1.15092270671392        0.01900342944712
C            1.43831595889400       -0.72081379025497        0.01165351585390
C            1.49737730418459        0.68037402281892        0.01115646769541
C            0.27305327591461        1.45190538373601       -0.00024165198028
O            0.20784434752859        2.66550611490881       -0.00478758191426
N           -0.84088837834440        0.63068709560239       -0.00644449066969
C           -2.14525687062840        1.26023931469492       -0.02018842311819
C           -0.84400658972345       -0.78883723638147       -0.00127300465530
O           -1.90642799334991       -1.36812019263975       -0.00443628577188
N            0.34689774539619       -1.44044979111225        0.00690587859245
C           -4.44913988967795       -4.25322943332358       -0.02341602914414
H            3.91188580900061        2.57311939466107        0.91385425469329
H            3.92562487079387        2.57412176122984       -0.85897907919725
H            2.45962388421996        3.07401643069711        0.01619325285342
H            4.61363693516244       -0.10252451404860        0.02845532570221
H           -2.00437828159442        2.33944511578593       -0.02653338874424
H           -2.69870172679946        0.94393249322260       -0.90528859844936
H           -2.71207260224549        0.95633907925950        0.86087615293685
H           -4.83359454464352       -4.64484950964182        0.89742457666920
H           -4.85505464930567       -4.59129993712316       -0.95599324006629
H           -3.66820048903427       -3.51418610109512       -0.01134064819633
H            3.03584349329596       -2.11722019669320        0.02074465866422
