72
 energy: 0.000000000000 xtb: 6.6.1 (8d0f1dd)
N           -1.47310934822924        2.74401318561852        2.22063942287560
C           -1.55658894218425        2.16490305624665        1.13274284460745
C           -2.74549225258129        2.05621251263064        0.23826250649470
C           -3.31377583855761        0.64333417511334        0.32332515650284
C           -4.30230195924506        0.24487112428158       -0.58026167086503
C           -4.85238808050968       -1.02286499940159       -0.53363593669082
O           -5.81420026757557       -1.48606047972767       -1.36157895357670
C           -6.39655692584623       -0.60827005826649       -2.29568495601309
C           -4.39972542350640       -1.94646120241305        0.44396933240983
O           -4.98748357557592       -3.16146026488900        0.41085995818162
C           -4.66362171172287       -4.10093865802695        1.40909140816864
C           -3.42072545213514       -1.54561399150247        1.33436558640148
C           -2.88302826362110       -0.26315802838497        1.27400162590187
C           -2.19303818453636        2.30467021687947       -1.18742988123374
C           -1.26651549989641        1.17243380322503       -1.65249445018642
C            0.01082525039567        1.09745464658138       -0.89354811789923
N            0.61779399208289       -0.02034948241203       -0.57705527866251
C            2.00145228921113       -0.02376006609561       -0.15611401051620
C            2.92554961797610       -0.53865287672537       -1.27700100652360
C            4.35756883501756       -0.43050761225877       -0.83075552032494
C            5.07346182539911        0.73206415878124       -1.03980975472950
C            6.38628045899965        0.84224449235903       -0.60344828301384
C            7.00047329721665       -0.20824758267940        0.05722314949100
O            8.26703733840855       -0.21011315050632        0.52410948507466
C            9.06912311989339        0.92943609656965        0.31863060963839
C            6.27040022445068       -1.40439766990411        0.28033468609137
O            6.94830004375713       -2.38012947787858        0.92752007684741
C            6.31537376337817       -3.61583233633369        1.15217722400438
C            4.96302840674480       -1.49347485723979       -0.16064431849589
C           -0.05511211878686       -1.29906259857679       -0.62085692079872
C           -3.86758072907722        3.07992629005348        0.58498065642721
C           -4.49286201346546        2.77383518785172        1.94313307512182
C           -3.39165211343248        4.52917708609625        0.54797528556046
H           -4.66030069703099        0.94509076131725       -1.31640581036773
H           -6.85037992114187        0.25803164586058       -1.80468862056629
H           -7.17287509152171       -1.18600121846629       -2.79318183475679
H           -5.66836870040540       -0.26952968819383       -3.04040283452035
H           -4.88416765986127       -3.71589494995018        2.40913564538747
H           -5.29223619720187       -4.96637504833431        1.20969248126828
H           -3.61139846644506       -4.39919876145526        1.35529370415983
H           -3.07077825100221       -2.21868786295666        2.10002682176568
H           -2.14562774333496        0.02067850888151        2.01001363031684
H           -3.02188903413801        2.38238034416975       -1.88813562572432
H           -1.65198546223364        3.25146730843841       -1.20556295755141
H           -1.81103391047759        0.23006526775522       -1.62116316669324
H           -0.99335697743926        1.37490224954061       -2.69443281971844
H           -0.67628070635666        1.65183902374723        0.61785732877701
H            0.63525847086258        1.98466388206871       -0.92314029755375
H            2.11132572081740       -0.65949698961381        0.72532619960637
H            2.30680494458141        0.98978260887088        0.11078973822125
H            2.76694224489122        0.06750735773687       -2.17075272340394
H            2.67954606229959       -1.57455642411728       -1.51167757545099
H            4.62170041431221        1.56295626549351       -1.56123593485311
H            6.92357738865082        1.75715832247601       -0.79119604059515
H            8.65159193263071        1.81001840117181        0.81701562739969
H            9.20136256512460        1.14042868409438       -0.74698998879646
H           10.03428931104811        0.69003246578081        0.76064945022918
H            7.05567240429544       -4.23621211097668        1.65347581279537
H            5.43848051513375       -3.50813590722545        1.79970582482858
H            6.02060097762632       -4.09420535105165        0.21253284608183
H            4.40102799328555       -2.40127288651695       -0.00490198294521
H           -0.22071301762289       -1.61775598610935       -1.65116024301020
H           -1.01972267469312       -1.24102728946113       -0.10935207845464
H            0.55899959333766       -2.04486104898380       -0.12333731565713
H           -4.63991918782192        2.95501120214274       -0.18098089750912
H           -3.76095251366987        2.90314731895452        2.73380846416528
H           -4.87457659255110        1.75695657819473        1.97884621460846
H           -5.31925601899505        3.45579242388173        2.12325583951056
H           -2.60025614255587        4.69225089676674        1.27368930043085
H           -3.03987434616939        4.81897697030947       -0.43870979129779
H           -4.22191779840287        5.18069696155015        0.80616701440619
H           -0.59832439338922        2.77744720721660        2.72959009765665
72
 energy: -5.467637293788 xtb: 6.6.1 (8d0f1dd)
N           -1.49097498380632        2.77928425149527        2.23893344245894
C           -1.56376612933141        2.15381180213659        1.15740618207526
C           -2.74748660446856        2.06012675650822        0.24618055553663
C           -3.31905906224711        0.64963848369896        0.32807244002588
C           -4.30512959417659        0.24667771978347       -0.57553220161776
C           -4.85159513539446       -1.02227871982555       -0.53169843648186
O           -5.81820142102394       -1.48916557833917       -1.36311307770082
C           -6.39642744545504       -0.60927525235548       -2.29563525395157
C           -4.40024256413836       -1.94417021903512        0.44356843969097
O           -4.99132824952302       -3.16564375433855        0.40996063885623
C           -4.66384447342386       -4.10103750946961        1.40842578324037
C           -3.42466840415764       -1.54187893633756        1.33560728757958
C           -2.89025221718973       -0.25811846459422        1.27769537309345
C           -2.19472009072487        2.29974573552706       -1.18357981761636
C           -1.26111560935146        1.18354359962628       -1.67671936710846
C            0.01052278166048        1.12113904133979       -0.89901834821353
N            0.63197050913053       -0.04075784702386       -0.56503277317482
C            2.00763226315066       -0.03812422994418       -0.15761384405006
C            2.93590210586247       -0.54265457642697       -1.28020648151062
C            4.36409663240756       -0.43514278936485       -0.84251258783009
C            5.07829134370573        0.73057716914909       -1.04401271748963
C            6.38814769839845        0.84225297225883       -0.60181897923858
C            7.00143178112017       -0.20874921485800        0.05868405224400
O            8.27587630769197       -0.21182466473872        0.52764402605216
C            9.07113382032523        0.92923372377223        0.31939731796298
C            6.27265575422876       -1.40281072539472        0.28072199198003
O            6.95346069904469       -2.38265022147765        0.93094173874217
C            6.31622731270585       -3.61547888336727        1.15231182100195
C            4.96870959569672       -1.49487285687935       -0.16537251593424
C           -0.04961313785133       -1.30766849375312       -0.61809063871025
C           -3.87407812034696        3.07894717007942        0.58164437093967
C           -4.49688305263216        2.77714592831562        1.94239458441933
C           -3.39564447860907        4.52823176397949        0.54792177804595
H           -4.65816090379449        0.94448703595875       -1.31663668922638
H           -6.84860351640217        0.25832819838284       -1.80434377205658
H           -7.17363676985765       -1.18538030863452       -2.79487581366636
H           -5.66693652263250       -0.26927954286164       -3.03862008847919
H           -4.88289134531837       -3.71478671869124        2.40898330112353
H           -5.29146314522488       -4.96831976683869        1.21116342463620
H           -3.61078271741674       -4.39722890703613        1.35516302110258
H           -3.06995179588710       -2.21808756026937        2.09745648361533
H           -2.14549654350269        0.02398585549274        2.00578237843919
H           -3.02597206520158        2.38613441166869       -1.88386117086129
H           -1.65003036475369        3.24481963069271       -1.19950852429273
H           -1.79921983785470        0.23760917361353       -1.62881528286810
H           -1.02110425474890        1.38347375244829       -2.73059535693988
H           -0.68704531498467        1.64777923047121        0.65436841143326
H            0.64894465692429        1.99292715976450       -0.96137830523385
H            2.12401913262782       -0.66892385268652        0.72807388810630
H            2.30098803989097        0.98017822089092        0.10765949274048
H            2.76571464635628        0.06725931922679       -2.16898422713189
H            2.68320506775410       -1.57702611317995       -1.51418463640250
H            4.62328208896437        1.56242452028440       -1.56093064068333
H            6.92560169635056        1.75818007664000       -0.78776935950888
H            8.65103156939494        1.80986934222143        0.81657314236484
H            9.20071915047854        1.14089516051029       -0.74704311382254
H           10.03778566420421        0.69300662223687        0.76053565859437
H            7.05467296465294       -4.23861218224397        1.65391919158509
H            5.43773656302805       -3.50691199410929        1.79771067713132
H            6.01989909990348       -4.09222695576312        0.21188180336533
H            4.40368026458084       -2.40046817856576       -0.00620921724905
H           -0.22030634562214       -1.62493489806171       -1.65154640393757
H           -1.01541694657931       -1.24218072664417       -0.10879917586685
H            0.55876989535182       -2.05727532919748       -0.11933104249612
H           -4.64925751540895        2.95925283892910       -0.18394866806936
H           -3.75607338155378        2.90360028935837        2.72570538725171
H           -4.87503865332990        1.75847926885180        1.97834579880361
H           -5.32387696429057        3.45927740176938        2.12708524868016
H           -2.60062150220827        4.68288267817289        1.27161378402150
H           -3.03984623012835        4.81428377652825       -0.43869512736632
H           -4.22394735147219        5.18453834601118        0.80633393083304
H           -0.60949954668528        2.77920931658521        2.74265334147390
72
 energy: -7.083967641083 xtb: 6.6.1 (8d0f1dd)
N           -1.52892880290757        2.83747485999567        2.25455376597822
C           -1.57792155907142        2.15427974036770        1.19190853109090
C           -2.75240383267085        2.06390492537183        0.25700419291119
C           -3.32801436373485        0.65569302175955        0.33413933157798
C           -4.31181142521233        0.24881430684941       -0.56951013900596
C           -4.85442607198988       -1.02132067611803       -0.52781215365267
O           -5.82414371135112       -1.49232015985836       -1.36441977724641
C           -6.39565614927875       -0.60997165003997       -2.29576488674485
C           -4.40471248466679       -1.94129454174573        0.44488268482414
O           -4.99713674238320       -3.17027010721750        0.40976255923192
C           -4.66327160723885       -4.10052235984681        1.40784491624985
C           -3.43246503233135       -1.53807892244107        1.33905739884720
C           -2.90272648998850       -0.25320805822555        1.28405041969455
C           -2.19363923336542        2.29941875617991       -1.17418946412186
C           -1.25536764461185        1.19350613499476       -1.69460982511385
C            0.01844483127347        1.14055212331705       -0.91327313792430
N            0.64371772058105       -0.05679119967061       -0.55791384896501
C            2.01467698742488       -0.05377929497888       -0.16385861615637
C            2.95046635824052       -0.54986299855309       -1.28759738913242
C            4.37634977856946       -0.44206942727633       -0.85681074264002
C            5.08968795767984        0.72573744012839       -1.05064678881549
C            6.39655056583676        0.84042315642457       -0.59969492339557
C            7.00800194920857       -0.21059911183625        0.06048211500156
O            8.28904594322508       -0.21332353087373        0.53266179580032
C            9.07549388184790        0.93021578492977        0.32099017612905
C            6.28143349333996       -1.40249636997702        0.27938943204429
O            6.96207243256476       -2.38613265067991        0.93572406132960
C            6.31743977685154       -3.61461198566787        1.15218128566678
C            4.98093577594934       -1.49811138708985       -0.17507004841142
C           -0.04576419231716       -1.31411959352899       -0.61771361838567
C           -3.88406650749973        3.07908798547660        0.57683168297100
C           -4.50518378563507        2.78204000237224        1.94015019467124
C           -3.40227652079035        4.52763874749908        0.54482433118122
H           -4.65724589645541        0.94376460146692       -1.31721386231555
H           -6.84596832057702        0.25915698168704       -1.80436984384757
H           -7.17388991040182       -1.18244299096757       -2.79878664701982
H           -5.66331254636676       -0.26914985573051       -3.03575078326116
H           -4.88035247003639       -3.71324700899705        2.40911126781164
H           -5.28803836288492       -4.97154305803156        1.21498599143046
H           -3.60888986379252       -4.39307628612954        1.35427351061096
H           -3.07016664410390       -2.21771582602954        2.09483026297301
H           -2.15032667872250        0.02852811749765        2.00384249351739
H           -3.03119412757198        2.39805589235606       -1.86882796099631
H           -1.64512936318799        3.24261193416756       -1.18388349231212
H           -1.78049160447976        0.24080087003646       -1.63936972948648
H           -1.06404906304014        1.40059689188969       -2.76326349604365
H           -0.70896182276653        1.62007626335557        0.73233056770103
H            0.68463087677893        1.98670508844677       -1.03144294495274
H            2.14824828263771       -0.68499763583588        0.72359538083560
H            2.29936598471947        0.96616449531196        0.10451589446739
H            2.76736078873036        0.06565687440026       -2.16979174383552
H            2.69361084924340       -1.58303424025374       -1.52508218168609
H            4.63058899671221        1.55870509290747       -1.56219737664844
H            6.93167186597435        1.75978201393912       -0.77818974765850
H            8.65150276238438        1.81041522993622        0.81656365046293
H            9.20122708640254        1.14228402748833       -0.74647250986985
H           10.04526090120447        0.70118460193947        0.76003316962432
H            7.05086551436865       -4.24361950588811        1.65473119188911
H            5.43648217358685       -3.50368034168819        1.79404411632015
H            6.02006499979424       -4.08816592224751        0.21001020054513
H            4.41177549381899       -2.40051990942430       -0.01239904700559
H           -0.21947567631207       -1.63906357167481       -1.65140099320849
H           -1.01254286699819       -1.24539748934822       -0.11107605628515
H            0.55437407615583       -2.07050079255839       -0.11486379799844
H           -4.66111205621428        2.96294168667614       -0.18909111723072
H           -3.75173663166905        2.90691284614146        2.71165827187201
H           -4.88136174729368        1.76240869240269        1.97952827193730
H           -5.33042586461718        3.46529917569857        2.13263919231332
H           -2.60373500384718        4.66733954984698        1.26739100416025
H           -3.04142254790060        4.80837005676438       -0.44153777633852
H           -4.22565343005977        5.19093364191531        0.80462242024490
H           -0.64405065187961        2.78684862056487        2.76123726625460
72
 energy: -5.479831586011 xtb: 6.6.1 (8d0f1dd)
N           -1.59636513234131        2.91039689246025        2.27750682466944
C           -1.60767087660435        2.16251729057582        1.24331068997944
C           -2.76378341335196        2.06805939124235        0.27359285009360
C           -3.34251042237822        0.66171748208353        0.34305858100862
C           -4.32321109419107        0.25172059148146       -0.56208533156067
C           -4.86324349319710       -1.01947227319646       -0.52114986350034
O           -5.83318453730355       -1.49439747431618       -1.36470802653753
C           -6.39421385278953       -0.60932769302989       -2.29669372798834
C           -4.41571579062279       -1.93782553373647        0.44948880263359
O           -5.00607995797706       -3.17472508617972        0.41186285456208
C           -4.66131208206616       -4.09920791518287        1.40857138617269
C           -3.44624800375784       -1.53432028140766        1.34613554708125
C           -2.92226517834518       -0.24820364644520        1.29459665600912
C           -2.18923060833719        2.30353550900977       -1.15340397329280
C           -1.25109852051464        1.20507779536978       -1.70649435315013
C            0.03659198588162        1.15461298206947       -0.94448215589797
N            0.65721802683221       -0.07470431207196       -0.56008497804714
C            2.02775171357506       -0.07637819597546       -0.17902970737449
C            2.97333742722192       -0.56150524540630       -1.30546651505658
C            4.39814053090594       -0.45237608855301       -0.87653683803014
C            5.11168602401248        0.71748039012836       -1.06072703754396
C            6.41445238866082        0.83639852817375       -0.59724161944079
C            7.02442424860814       -0.21488946247906        0.06245748441164
O            8.30994064759344       -0.21401582626816        0.54036637678544
C            9.08496170754870        0.93395536787014        0.32420197548831
C            6.30020423445986       -1.40564189991965        0.27515693452257
O            6.97604190863605       -2.39216815678740        0.94163187681656
C            6.31941375356523       -3.61409353524709        1.15154223322960
C            5.00375454043869       -1.50535451756221       -0.19158872327380
C           -0.04224176625134       -1.32327941738712       -0.61984756697254
C           -3.90231031332776        3.08104158073268        0.57012115481810
C           -4.52251451336828        2.79161103447362        1.93618967446318
C           -3.41393406570486        4.52742948300136        0.53633910759066
H           -4.65907368773000        0.94344839356428       -1.31742592517847
H           -6.84255213121373        0.26183546383627       -1.80617203083968
H           -7.17307359074731       -1.17588974139375       -2.80643205127634
H           -5.65600847794264       -0.26918011611818       -3.03148811514223
H           -4.87546920004963       -3.71135002784245        2.41084606113067
H           -5.28026350817078       -4.97654935693935        1.22267079405327
H           -3.60476398144323       -4.38491636549275        1.35228014553544
H           -3.07474399914731       -2.21723399433894        2.09455628324225
H           -2.16559070362004        0.03512715869592        2.00884530405451
H           -3.03287340943009        2.42184647697605       -1.84052157884799
H           -1.63312607111857        3.24244473083317       -1.15001154795358
H           -1.75835592719141        0.24320693418866       -1.65081107156988
H           -1.12067543520088        1.43015036486639       -2.78911983080707
H           -0.74593741944067        1.57059176830809        0.86496259061482
H            0.74370655354630        1.96186149363708       -1.14342368946798
H            2.18284552126731       -0.71345137901868        0.70584331934491
H            2.30713285550722        0.94243117914569        0.09790232004226
H            2.77919416855065        0.06122156345568       -2.18013500798587
H            2.71678495632084       -1.59383018886649       -1.55048879029727
H            4.64965574889490        1.55137161704012       -1.56793852584359
H            6.94446774857124        1.76190214419958       -0.76110948211996
H            8.65483590283201        1.81275760639173        0.81784298703032
H            9.20494457073674        1.14569449944356       -0.74462831350047
H           10.05971832329586        0.71737629045493        0.75971539844013
H            7.04293718395275       -4.25300762543022        1.65681392667521
H            5.43461004215764       -3.49702236886902        1.78744240496482
H            6.02196844132462       -4.08206720115839        0.20623163616758
H            4.43104725929718       -2.40509650741902       -0.02803121240442
H           -0.21585931299556       -1.66297580637099       -1.65131973165148
H           -1.01114036234422       -1.24909070731042       -0.11821300895038
H            0.54609316118827       -2.08640331103432       -0.10760268197637
H           -4.67818392976122        2.96448953682444       -0.19827826034403
H           -3.75444993858224        2.91624584671001        2.69300900773733
H           -4.89953435122834        1.77236408378238        1.98236759472284
H           -5.34293862633440        3.47816626491257        2.13795274768661
H           -2.61226228380058        4.64824288098864        1.25827716899516
H           -3.04772449923455        4.80087073693528       -0.44998601997818
H           -4.22894284120281        5.20075622243864        0.79765921932853
H           -0.71528546814302        2.81928545452668        2.79381390616010
72
 energy: 6.846981684758 xtb: 6.6.1 (8d0f1dd)
N           -1.71281968472169        3.03581381928428        2.31394338165996
C           -1.65674114475300        2.17883548243366        1.33116099826912
C           -2.78274404718336        2.07539278658305        0.30153040189582
C           -3.36572921054530        0.67156777312049        0.35657554676442
C           -4.34246565949266        0.25687397184942       -0.55003161361552
C           -4.87813213648369       -1.01617717327847       -0.50958178672866
O           -5.84857749757205       -1.49808147402721       -1.36527504309292
C           -6.39154895117227       -0.60850257463287       -2.29790451047896
C           -4.43446683959586       -1.93170233855064        0.45717298120129
O           -5.02138195778303       -3.18254265399805        0.41521362594172
C           -4.65799097656004       -4.09660590886106        1.40944863583011
C           -3.46901753754018       -1.52838523896011        1.35788011465402
C           -2.95456067103971       -0.24063097310199        1.31132506996931
C           -2.18201799905585        2.31230760418366       -1.11839019069270
C           -1.24491919291305        1.22421328936959       -1.72560957499558
C            0.06906543376093        1.17929017137440       -1.00426816934255
N            0.67797845536173       -0.10381940902849       -0.56218623509964
C            2.04865164742760       -0.11324269230668       -0.20292389371474
C            3.01091105429728       -0.58097369401223       -1.33523951766814
C            4.43424708775115       -0.46940390297756       -0.90851672872078
C            5.14902086974296        0.70323776503260       -1.07748441259525
C            6.44512889756265        0.82945867780218       -0.59308749377784
C            7.05223039468321       -0.22246765563186        0.06566317275563
O            8.34541106191919       -0.21523097469900        0.55361703784127
C            9.10051727826043        0.94006971422803        0.32946926000016
C            6.33229601439310       -1.41084842619218        0.26801633736142
O            6.99949557160681       -2.40233164058370        0.95247395551303
C            6.32245521912005       -3.61285518746720        1.15060892135808
C            5.04221423590615       -1.51740931953870       -0.21927545838364
C           -0.03699141482088       -1.33813378954519       -0.62368284599301
C           -3.93263704689487        3.08457324008730        0.55910301852890
C           -4.55147576627922        2.80702647409009        1.92966886898551
C           -3.43337912746855        4.52741196159872        0.52203016310749
H           -4.66181198430212        0.94314879948237       -1.31827742969653
H           -6.83655707438707        0.26608108118082       -1.80873292763436
H           -7.17173152578146       -1.16435008324850       -2.81943218911368
H           -5.64357206115832       -0.26941116857362       -3.02410920383699
H           -4.86722763657248       -3.70777050125193        2.41349127479231
H           -5.26678467811689       -4.98511934781027        1.23622828889922
H           -3.59778586887015       -4.37110789374751        1.34877481898991
H           -3.08135958109355       -2.21650580763058        2.09347482210173
H           -2.19126371854819        0.04643652817587        2.01655429998878
H           -3.03737852711140        2.46378213105400       -1.79078960517327
H           -1.61247957703851        3.24332701637941       -1.09282532961872
H           -1.71760273872222        0.24463018861390       -1.67252229588044
H           -1.22208436521411        1.48321754197039       -2.83167232635871
H           -0.80977759183888        1.48449911479113        1.10300315810862
H            0.84897481782989        1.91560188970281       -1.33995814495663
H            2.24433397986740       -0.76164842589756        0.67691313057030
H            2.31992722515928        0.90295423983050        0.08920942060753
H            2.79769921329475        0.05394917009722       -2.19695097981257
H            2.75557718186832       -1.61219174078384       -1.59340881863971
H            4.68155162233704        1.53841567583890       -1.57738922677055
H            6.96564626760558        1.76588182890496       -0.73115338595520
H            8.66015970357384        1.81656710246549        0.81989324603267
H            9.21049955520549        1.15116760143111       -0.74178810160798
H           10.08428927896734        0.74574942815796        0.75844634622432
H            7.02875812396339       -4.26930971139633        1.66011863245200
H            5.43121479255885       -3.48563241353251        1.77658170715238
H            6.02496282855073       -4.07085417151975        0.19967682175872
H            4.46282442591038       -2.41203624365528       -0.05397486960777
H           -0.20885718222590       -1.70456245518770       -1.65102353239459
H           -1.00984079900912       -1.25712517801756       -0.13110624868874
H            0.53078682856988       -2.11382385122330       -0.09497760485587
H           -4.70604579057876        2.96638854606110       -0.21378204509650
H           -3.75804303613154        2.93199110879545        2.66029989263454
H           -4.93007305692804        1.78860281212469        1.98767478965887
H           -5.36306154083471        3.49893914337032        2.14814700670976
H           -2.62681277582179        4.61425286065460        1.24321370290945
H           -3.05828907509699        4.78849232353126       -0.46409814207161
H           -4.23345143447089        5.21761951918681        0.78653183093192
H           -0.83544178844836        2.87231741010461        2.84078173297068
72
 energy: 28.738404384935 xtb: 6.6.1 (8d0f1dd)
N           -1.79054765729427        3.08080428062850        2.31091939519913
C           -1.65362826312013        2.22354680356201        1.38176888820836
C           -2.78518768301333        2.08420132100502        0.31295822941743
C           -3.35497146422598        0.67130165589740        0.33912940409871
C           -4.34939238565303        0.26305912403775       -0.55202554131089
C           -4.88202491862334       -1.01232767340372       -0.50026211333276
O           -5.85559710877971       -1.50283631942420       -1.36713810399937
C           -6.38710455263717       -0.61336137984088       -2.29232350032700
C           -4.44296883527928       -1.92505158635765        0.45837305836205
O           -5.02986608430945       -3.19071388854124        0.41329347907200
C           -4.65751733494207       -4.08954267044577        1.40453903492362
C           -3.46954498642027       -1.53222548628724        1.35975500283570
C           -2.95668752904666       -0.25110512974533        1.30222050492339
C           -2.18428057942249        2.34210948939117       -1.10948538106914
C           -1.25610479045175        1.22727624472399       -1.72519325866905
C            0.10820550269458        1.20835271780690       -1.13989440221284
N            0.65734404922727       -0.09702311290873       -0.53986283894165
C            2.03882972563790       -0.10581305760254       -0.18423261808407
C            3.00916303421676       -0.58639781588315       -1.33895882875388
C            4.43670320231491       -0.47069264455985       -0.90036491805621