72
 energy: 0.000000000000 xtb: 6.6.1 (8d0f1dd)
N           -1.47310921155849        2.74401293103706        2.22063921685122
C           -1.55658879776851        2.16490285539332        1.13274273951491
C           -2.74549199786261        2.05621232186130        0.23826248438941
C           -3.31377553111525        0.64333411542669        0.32332512650568
C           -4.30230156009016        0.24487110156316       -0.58026161703006
C           -4.85238763031941       -1.02286490450319       -0.53363588718165
O           -5.81419972815119       -1.48606034185536       -1.36157882725342
C           -6.39655633239252       -0.60827000183299       -2.29568474302620
C           -4.39972501531283       -1.94646102182611        0.44396929121966
O           -4.98748311285188       -3.16145997157803        0.41085992006324
C           -4.66362127904578       -4.10093827755394        1.40909127743729
C           -3.42072513477031       -1.54561384810496        1.33436546260297
C           -2.88302799614223       -0.26315800396994        1.27400150770375
C           -2.19303798107274        2.30467000305896       -1.18742977106749
C           -1.26651538239283        1.17243369445008       -1.65249429687285
C            0.01082524939134        1.09745454476277       -0.89354803499847
N            0.61779393476578       -0.02034948052406       -0.57705522512502
C            2.00145210352228       -0.02376006389122       -0.15611399603240
C            2.92554934655222       -0.53865282675074       -1.27700088804721
C            4.35756843073516       -0.43050757231754       -0.83075544324989
C            5.07346135469827        0.73206409086248       -1.03980965825901
C            6.38627986649936        0.84224441421807       -0.60344822702769
C            7.00047264773336       -0.20824756335880        0.05722314418200
O            8.26703657141718       -0.21011313101264        0.52410943644933
C            9.06912227848686        0.92943601033931        0.31863058007678
C            6.27039964270142       -1.40439753960823        0.28033466008274
O            6.94829939911432       -2.38012925705718        0.92751999079483
C            6.31537317745639       -3.61583200086742        1.15217711710877
C            4.96302794628964       -1.49347471867959       -0.16064430359178
C           -0.05511211367372       -1.29906247805359       -0.62085686319744
C           -3.86758037025447        3.07992600430699        0.58498060215443
C           -4.49286159663096        2.77383493050346        1.94313289484366
C           -3.39165179876499        4.52917666589254        0.54797523472093
H           -4.66030026466202        0.94509067363451       -1.31640568823548
H           -6.85037928558380        0.25803162192116       -1.80468845313260
H           -7.17287442604349       -1.18600110843259       -2.79318157561361
H           -5.66836817451085       -0.26952966318766       -3.04040255244073
H           -4.88416720672258       -3.71589460520039        2.40913542187496
H           -5.29223570620378       -4.96637458756866        1.20969236903657
H           -3.61139813139015       -4.39919835331056        1.35529357841967
H           -3.07077796610445       -2.21868765711333        2.10002662693138
H           -2.14562754426994        0.02067850696302        2.01001344383370
H           -3.02188875377605        2.38238012313952       -1.88813545054866
H           -1.65198530896729        3.25146700677685       -1.20556284570283
H           -1.81103374245520        0.23006524641044       -1.62116301628650
H           -0.99335688527853        1.37490212198123       -2.69443256973690
H           -0.67628064361333        1.65183887049447        0.61785727145403
H            0.63525841192517        1.98466369793744       -0.92314021190751
H            2.11132552493482       -0.65949692842762        0.72532613231274
H            2.30680473056284        0.98978251704176        0.11078972794250
H            2.76694198818247        0.06750735147374       -2.17075252200790
H            2.67954581369920       -1.57455627803457       -1.51167743520200
H            4.62169998552446        1.56295612048703       -1.56123579000624
H            6.92357674630170        1.75715815945204       -0.79119596719031
H            8.65159112996149        1.81001823324363        0.81701555159939
H            9.20136171144928        1.14042857828877       -0.74698991949293
H           10.03428838009630        0.69003240176163        0.76064937965836
H            7.05567174969094       -4.23621171795340        1.65347565939075
H            5.43848001056755       -3.50813558175093        1.79970565785717
H            6.02060041905269       -4.09420497120334        0.21253282636366
H            4.40102758497114       -2.40127266373392       -0.00490198249042
H           -0.22071299714579       -1.61775583601871       -1.65116008982042
H           -1.01972258008625       -1.24102717432227       -0.10935206830928
H            0.55899954147532       -2.04486085926761       -0.12333730421426
H           -4.63991875734388        2.95501092798550       -0.18098088071825
H           -3.76095216473977        2.90314704960906        2.73380821053058
H           -4.87457614030224        1.75695641518947        1.97884603101694
H           -5.31925552549014        3.45579210326349        2.12325564252114
H           -2.60025590131176        4.69225046143352        1.27368918226171
H           -3.03987406413880        4.81897652321898       -0.43870975059559
H           -4.22191740670577        5.18069648090034        0.80616693961239
H           -0.59832433787845        2.77744694953323        2.72958984441332
72
 energy: -5.273056097164 xtb: 6.6.1 (8d0f1dd)
N           -1.50671354830750        2.71231651754512        2.28680190851383
C           -1.54811644423535        2.15069330243931        1.16351454324523
C           -2.74577628516405        2.06489676100459        0.26157655694441
C           -3.33567872029784        0.65880239337258        0.35012885133924
C           -4.30036422801949        0.23970956746030       -0.56897111950016
C           -4.82941215997092       -1.03588752538724       -0.53671626765746
O           -5.77768410862388       -1.51395855816131       -1.39056870868838
C           -6.34582260008408       -0.63690505587024       -2.32852351153544
C           -4.38729541804643       -1.95251277718931        0.44235945979599
O           -4.96376357515674       -3.18597917214263        0.39571368176025
C           -4.64582792623609       -4.11237534224466        1.40163478604597
C           -3.43857446928060       -1.53846132379930        1.35610330637159
C           -2.91482846888990       -0.25092698129569        1.30333972831818
C           -2.20696219101862        2.29939767506793       -1.17719390546923
C           -1.27777703514604        1.18081653660211       -1.67865250068522
C           -0.00162057173738        1.13327659243309       -0.92140737162471
N            0.61685512321869       -0.04394169602490       -0.55084910463867
C            1.98830832666312       -0.02663846409168       -0.16362018874984
C            2.92042058177135       -0.54494159494406       -1.28129771415700
C            4.34647955289064       -0.43675428192080       -0.84329794303271
C            5.06216292744241        0.72782962882597       -1.04821095350803
C            6.37232503961536        0.84016679450631       -0.60862512738105
C            6.98442964806485       -0.21020174156860        0.05171578973380
O            8.26402948028657       -0.21265307594824        0.52030800823415
C            9.05545590682144        0.92852070778915        0.31314035400763
C            6.25824479183021       -1.40192585641607        0.27579834777947
O            6.94188381171516       -2.38464329472747        0.92672761334960
C            6.30499952125526       -3.61546237541240        1.14915161189366
C            4.95309342985105       -1.49569383028449       -0.16722750816780
C           -0.07201311698140       -1.29730633379740       -0.59536071353056
C           -3.84421112254834        3.10980905425469        0.60767823981718
C           -4.46583333089107        2.80122192685973        1.97068963095180
C           -3.36344396511685        4.57153215491609        0.54559721338002
H           -4.64721554041368        0.92820598658479       -1.32209601832460
H           -6.81591081866754        0.22506847830812       -1.84585285463646
H           -7.10891871318241       -1.21923315104233       -2.84213582524162
H           -5.60578838516333       -0.28684840887530       -3.05734718606414
H           -4.89414029918357       -3.73176954661532        2.39696917241758
H           -5.25818583396435       -4.98804705767717        1.19328781615474
H           -3.58742231347010       -4.39494083816175        1.37490002632302
H           -3.09530483014129       -2.21069541741260        2.12668353382768
H           -2.18994855434751        0.03884803472173        2.04719142617345
H           -3.04330014617754        2.39040833318529       -1.87143450453145
H           -1.66005622093789        3.24271000221389       -1.19445447460591
H           -1.81747140386072        0.23454629228937       -1.63449749033315
H           -1.03944748357157        1.38319040800316       -2.73084817825011
H           -0.66129040093519        1.72411244792031        0.64917198358611
H            0.64675506194456        1.99037648293570       -0.98045803323851
H            2.11444496213424       -0.64364507378999        0.73277500209964
H            2.28488199134207        0.99448662167536        0.09061976064458
H            2.74980853735254        0.05802764905620       -2.17480330532045
H            2.66297101821365       -1.58024700921934       -1.50665272496623
H            4.60753321705950        1.55902794683968       -1.56612648454910
H            6.90735813628877        1.75656438079522       -0.79756126195794
H            8.63628611421048        1.81008751119438        0.81025646797457
H            9.18742583126596        1.14178323883788       -0.75319029094418
H           10.02187644597396        0.69430790678340        0.75478805674380
H            7.04496699326703       -4.23805168297657        1.65045336508761
H            5.42675412398735       -3.50764180891226        1.79551854704911
H            6.00678981514129       -4.09393154346424        0.20960978990256
H            4.38408627851789       -2.39982709466520       -0.00829886081888
H           -0.25649943199693       -1.63104970887484       -1.62188573061340
H           -1.03416053836938       -1.22259787593714       -0.08248219205825
H            0.53554794183864       -2.04322841928405       -0.08870916890392
H           -4.63856462730621        2.96460780384050       -0.13916578235918
H           -3.71985257963133        2.88322157169966        2.75019543813548
H           -4.89174154873841        1.79931352960095        2.00949588233266
H           -5.26554658439870        3.50980959991885        2.16090449076952
H           -2.56620162050678        4.72747225084859        1.26409537893585
H           -3.00782132624721        4.86812176094479       -0.43911056994681
H           -4.18749099883463        5.23460235566306        0.80358283065815
H           -0.59723598964171        2.70988867930473        2.74605168160556
72
 energy: -3.735219849427 xtb: 6.6.1 (8d0f1dd)
N           -1.51783348338294        2.64784154183937        2.33587894064803
C           -1.54513332983575        2.14854129673573        1.18158699233914
C           -2.74564530335160        2.06938064437160        0.28051234024049
C           -3.35795932387705        0.66958905859700        0.37599419147230
C           -4.29630006759951        0.23268139395069       -0.56276056468510
C           -4.80972300739600       -1.04957378179526       -0.54317066327657
O           -5.73548911614693       -1.53855595392468       -1.41675294321426
C           -6.29591402947646       -0.66505568133473       -2.36230659742192
C           -4.37655148605247       -1.96249681368774        0.44211179247330
O           -4.93554038940412       -3.20410640673483        0.38158862250451
C           -4.62832729600096       -4.12467416976223        1.39560701757842
C           -3.45588535523962       -1.53359695877999        1.37692727564046
C           -2.94403306193145       -0.24088500545567        1.33145056937024
C           -2.21913331531594        2.29693112517739       -1.16734499251748
C           -1.29340584631929        1.18379358441987       -1.69081441837387
C           -0.00932197756477        1.14049160623955       -0.94792592605418
N            0.59785873084010       -0.04028225599785       -0.54843943309629
C            1.97318625360263       -0.02070995590026       -0.16964127477907
C            2.90573461869494       -0.54872122445064       -1.28364343125740
C            4.33406923915808       -0.44004154522727       -0.84989196044224
C            5.04923699483817        0.72448508550127       -1.05600207206395
C            6.35871315112049        0.83773451610886       -0.61568898722129
C            6.97219622103747       -0.21156024694675        0.04565740198687
O            8.25260081823118       -0.21407145174372        0.51336508682986
C            9.04227441193453        0.92853552890790        0.30709969715963
C            6.24671438673425       -1.40318208465058        0.27110704348798
O            6.93111917949967       -2.38567336750361        0.92269375256983
C            6.29438627363401       -3.61605309328023        1.14596218030852
C            4.94124156558379       -1.49777927864387       -0.17235938168226
C           -0.09210297632723       -1.29160088331612       -0.57145906706600
C           -3.81962909156270        3.14258381164523        0.63165284660998
C           -4.43757991634468        2.82754333154934        1.99685951960408
C           -3.33269395895648        4.61440256285965        0.54292483293418
H           -4.63535834613392        0.91127330886273       -1.32844026562030
H           -6.78307844682691        0.19067968958380       -1.88798443459710
H           -7.04418536492764       -1.25389658811744       -2.88983232134082
H           -5.54448844520405       -0.30519884180532       -3.07543207508304
H           -4.90587176811304       -3.74891291130182        2.38416988528767
H           -5.22492247945052       -5.00823839918341        1.17587224658594
H           -3.56507889877245       -4.39171598493874        1.39476718434389
H           -3.12121602950054       -2.20238513144697        2.15426873282926
H           -2.23552159069329        0.05508072447296        2.08723589606284
H           -3.06163976460878        2.39517577411083       -1.85355396517702
H           -1.67059176674953        3.23806763812716       -1.18447504822580
H           -1.83379146542655        0.23673213801840       -1.64523322524879
H           -1.06889124673441        1.38920077101898       -2.74625694675574
H           -0.63893906727824        1.80123453018767        0.65172424938997
H            0.64770340562675        1.99024373886791       -1.02233147201764
H            2.10678460881484       -0.62370104424596        0.73581230025508
H            2.26901873546713        1.00327688131259        0.07311536987642
H            2.73276895482386        0.04916406816692       -2.17976029826234
H            2.64555886190464       -1.58482876023383       -1.50032628559465
H            4.59457599401119        1.55640647987054       -1.57211907240699
H            6.89100579847515        1.75513095264598       -0.80613806407906
H            8.62176192123647        1.80958402144581        0.80400603801647
H            9.17421020400960        1.14220197618101       -0.75921872347878
H           10.00819962789427        0.69634468477128        0.74895416315714
H            7.03515165903517       -4.23861396090023        1.64685321669797
H            5.41589576219319       -3.50764258440319        1.79222664150087
H            5.99402970511379       -4.09415070829855        0.20665320437987
H            4.36710052892341       -2.39913256271412       -0.01122838553169
H           -0.29133855559514       -1.64058557848927       -1.58964596097784
H           -1.04905903601386       -1.20369041267044       -0.05397483530674
H            0.51500567718652       -2.03257121055340       -0.05640532019191
H           -4.63112963223469        2.97612100304920       -0.09701085653842
H           -3.68251222163880        2.86329246230232        2.76748998803432
H           -4.90956763150498        1.84389154605126        2.03884237024671
H           -5.20823853763907        3.56239980608637        2.19670809527145
H           -2.53246222406816        4.76529754137159        1.25641932744217
H           -2.97530970483365        4.92015860181694       -0.43966293772010
H           -4.15132189696110        5.28651457034073        0.80086084746176
H           -0.59605904974526        2.65025129143546        2.77062669393792
72
 energy: -1.191917711686 xtb: 6.6.1 (8d0f1dd)
N           -1.52651217104507        2.57724655402723        2.37977557036084
C           -1.54165354324718        2.14456926890243        1.19755103985116
C           -2.74620924276143        2.07025559871416        0.29946195720843
C           -3.38087701807115        0.67779320123264        0.40072797481765
C           -4.29046952312498        0.22368111851533       -0.55894128875455
C           -4.78918714951898       -1.06454525730669       -0.55062912744563
O           -5.69321869820451       -1.56330245173056       -1.44279419660855
C           -6.24551079284029       -0.69264964675598       -2.39564802333876
C           -4.36514649852853       -1.97346418689771        0.44138680977875
O           -4.90667114037419       -3.22278800594627        0.36832782959881
C           -4.61013268358879       -4.13730541019190        1.39054286177126
C           -3.47267145247362       -1.53010414759349        1.39641430136932
C           -2.97300454898857       -0.23240965590144        1.35821064328043
C           -2.23334533359708        2.29440224687834       -1.15791176963481
C           -1.31098371634330        1.18744757069067       -1.70393004515643
C           -0.01949150806443        1.15005126510396       -0.97585108891328
N            0.58299529604744       -0.03347276082290       -0.56456862831602
C            1.95807860260806       -0.01184556489058       -0.17878680734716
C            2.89218820665583       -0.55193183969230       -1.28664867291677
C            4.32227881054443       -0.44344554801153       -0.85637587077227
C            5.03654016571486        0.72130623266444       -1.06292413953649
C            6.34514359664525        0.83546527903893       -0.62164834027211
C            6.95991455273864       -0.21298078099342        0.04049707290983
O            8.24116798207515       -0.21554202489701        0.50717949162045
C            9.02913124383078        0.92831043709724        0.30125336304333
C            6.23522510302914       -1.40464479294590        0.26710753984732
O            6.92046610563365       -2.38695525221684        0.91908812132335
C            6.28395378772462       -3.61704212230197        1.14298275830088
C            4.92950519107166       -1.50004444944009       -0.17703760549092
C           -0.11117427982490       -1.28310369108373       -0.54973576242913
C           -3.79495751613183        3.16578041966538        0.66269068418576
C           -4.40988792461944        2.85175908865682        2.02656129910269
C           -3.30212903753991        4.65457395027081        0.54288956056116
H           -4.62343183968236        0.89323390765452       -1.33526563521302
H           -6.74915527934574        0.15707834638256       -1.93004691589857
H           -6.97960840628568       -1.28694853163097       -2.93679998000858
H           -5.48272451488025       -0.32347946322979       -3.09286618550789
H           -4.91665969166317       -3.76644639050060        2.37176859923519
H           -5.19111469118311       -5.02845187421314        1.16020709932785
H           -3.54270528369221       -4.38885206133544        1.41533776416927
H           -3.14662560844578       -2.19464726631308        2.18096032472258
H           -2.28195021713972        0.07089468388084        2.12596594169063
H           -3.08145963000537        2.39907950247149       -1.83631695510081
H           -1.68464602883178        3.23428856794682       -1.17572653481778
H           -1.85169538049211        0.23941191974863       -1.65440815179035
H           -1.09884815879859        1.39408063075777       -2.76244682064906
H           -0.61993788902892        1.88284095544186        0.64967661517926
H            0.64639159259719        1.99189676937088       -1.06545907444832
H            2.09709270598965       -0.60132012674476        0.73592748035372
H            2.25373361962213        1.01417831937265        0.05302320633864
H            2.71718660259723        0.03956889959079       -2.18630348405830
H            2.62879995894252       -1.58897669150795       -1.49393384990006
H            4.58186928168918        1.55382304770583       -1.57743907861451
H            6.87462460638227        1.75382526953776       -0.81368821291660
H            8.60756562038659        1.80901068000469        0.79792188275266
H            9.16088708121890        1.14201018155775       -0.76515665169856
H            9.99457853771807        0.69774230409201        0.74302185278985
H            7.02552898165906       -4.23967107840351        1.64341348785945
H            5.40515288045939       -3.50801122051969        1.78909339906840
H            5.98135475691930       -4.09460941880384        0.20385331268208
H            4.35044162414669       -2.39891661678601       -0.01466313731475
H           -0.32807876487018       -1.65021734148042       -1.55698959586611
H           -1.06209350153690       -1.18176617483405       -0.02577360929892
H            0.49501278298888       -2.01938725181090       -0.02546415489692
H           -4.62076718769516        2.99533247602951       -0.05356088972977
H           -3.64546442941635        2.84224506706066        2.78552959464469
H           -4.92770082945443        1.88916161523368        2.07135101659337
H           -5.14923516922979        3.61383337306629        2.23397445860084
H           -2.49823108360935        4.80316691584765        1.24979724494495
H           -2.94410408579545        4.96844068917053       -0.43911055672796
H           -4.11532162200744        5.33709712662051        0.79933885102943
H           -0.59518337091206        2.59082220769308        2.79359094545231
72
 energy: 2.114755539259 xtb: 6.6.1 (8d0f1dd)
N           -1.53029262928088        2.49909111340927        2.41914785195316
C           -1.53645668214874        2.14028021514454        1.21053180971689
C           -2.74502931978573        2.06878374172007        0.31666379989163
C           -3.40274073812467        0.68485914404331        0.42449501738675
C           -4.28189369005928        0.21479350868123       -0.55727400617904
C           -4.76835750417853       -1.07840248797604       -0.55772604191922
O           -5.65040439525131       -1.58720567578292       -1.46790539264763
C           -6.19519123163023       -0.72063861905242       -2.42878753723409
C           -4.35394691815020       -1.98322654313913        0.44146463012163
O           -4.87751210422366       -3.24014567675216        0.35524030620346
C           -4.59275135065838       -4.14954647105685        1.38491716683464
C           -3.49085211479755       -1.52626382764013        1.41710586560641
C           -3.00258607437957       -0.22403882865571        1.38599368343081
C           -2.24670235656898        2.29169849955528       -1.14957335799367
C           -1.32919542341626        1.19026735678951       -1.71702891438000
C           -0.03103957469963        1.16057817921151       -1.00270986161953
N            0.56960864433475       -0.02411037845805       -0.58469370410171
C            1.94312498013635       -0.00182992267473       -0.18734548786066
C            2.87818622578219       -0.55423504164101       -1.28902371547252
C            4.31000963099309       -0.44630132345184       -0.86218522025055
C            5.02344493027928        0.71840677790090       -1.06997666396579
C            6.33161346468518        0.83316952480404       -0.62871268299837
C            6.94764645924611       -0.21435735495121        0.03437801770414
O            8.22951263916176       -0.21682751413170        0.50040999716688
C            9.01616575720896        0.92789525813906        0.29478417172172
C            6.22357259718192       -1.40588745452806        0.26270733196772
O            6.90957893918837       -2.38784775640040        0.91509563475992
C            6.27299161361305       -3.61751112442616        1.14002225804947
C            4.91725882886626       -1.50190772295495       -0.18127648633689
C           -0.12989857084167       -1.27210843369675       -0.52841481109098
C           -3.76807853454595        3.18624050489105        0.69005735749438
C           -4.38219482042396        2.87640416296648        2.05442919171395
C           -3.26926107946323        4.69482324889785        0.54391918426204
H           -4.60928737152284        0.87663858630132       -1.34221036140932
H           -6.71655516561850        0.12229524564957       -1.97251864666482
H           -6.91393902995775       -1.32128012952519       -2.98366791872207
H           -5.42163738510806       -0.34185953919527       -3.11009140079839
H           -4.92864276584530       -3.78416587110997        2.35808501184870
H           -5.15736174229017       -5.04819092550736        1.14297240896921
H           -3.52190485698291       -4.38543628543823        1.43605295455040
H           -3.17358244235468       -2.18674623738943        2.20870168314106
H           -2.32893716036320        0.08626658169783        2.16565474092927
H           -3.10016808837175        2.40351995626967       -1.82003114864308
H           -1.69731344329118        3.23029837306158       -1.16729145575709
H           -1.86852095093853        0.23976801769059       -1.66038785371906
H           -1.12995089095461        1.39826987403458       -2.77857658235377
H           -0.60594433914793        1.96906848828497        0.64532833507146
H            0.64456819346550        1.99370877040009       -1.10752645732798
H            2.08590396531509       -0.57959753133261        0.73564018923208
H            2.23887703504180        1.02601938528827        0.03479157295278
H            2.70149059796839        0.03073491632443       -2.19249804938796
H            2.61131681709871       -1.59194689598510       -1.48723588517568
H            4.56875783775486        1.55131787644143       -1.58327685896952
H            6.85847086626479        1.75226126505564       -0.82280821639921
H            8.59338869458773        1.80816963143921        0.79106833655139
H            9.14787731857831        1.14162089728942       -0.77169614048321
H            9.98096123480888        0.69907172759691        0.73687975869650
H            7.01522485729773       -4.24028619957035        1.64004948956598
H            5.39396936572291       -3.50752887439570        1.78609878015722
H            5.96808593096283       -4.09478355299912        0.20120299024087
H            4.33347646093020       -2.39856383338049       -0.01731548952432
H           -0.36351036658731       -1.65873354593163       -1.52364487972884
H           -1.07530404770404       -1.15845135216313        0.00140140270253
H            0.47441561029108       -2.00386098287709        0.00585547188190
H           -4.60720395645406        3.00989561977695       -0.01367742304200
H           -3.61115730007343        2.82015564469720        2.80271079329900
H           -4.94459376008701        1.93662711427886        2.10004169668242
H           -5.09004859330997        3.66395722201564        2.27094651918955
H           -2.46286888409991        4.84251207650334        1.24518489117433
H           -2.91130757401962        5.01759839404972       -0.43727933331667
H           -4.07789327026815        5.38638403758087        0.79817003611226
H           -0.59155516463361        2.53104646617224        2.81341846057482
72
 energy: 5.850631675604 xtb: 6.6.1 (8d0f1dd)
N           -1.52990614296263        2.41951130871243        2.45214840683306
C           -1.53136079029743        2.13128942580963        1.22204534923995
C           -2.74314015296235        2.05695116719448        0.33002156496667
C           -3.42388402822899        0.68365199417362        0.44477467475276
C           -4.27316208460913        0.20368388155214       -0.55794634621598
C           -4.74805585662084       -1.09342584149142       -0.56559522611293
O           -5.60821276333074       -1.61140277260400       -1.49280714869289
C           -6.14499459061799       -0.74870271075662       -2.46189531540242
C           -4.34274439259081       -1.99308747136625        0.44152137428596
O           -4.84822715279560       -3.25719500770899        0.34318719120398
C           -4.57499864716931       -4.16152063774403        1.37995403154842
C           -3.50941790481587       -1.52400128892638        1.43748546694467
C           -3.03205328976032       -0.21835720431813        1.41355328563935
C           -2.26024131018066        2.28851935940623       -1.14262870709991
C           -1.34812206429569        1.19279233382087       -1.72974410420309
C           -0.04427294373856        1.17218593313977       -1.02736430084556
N            0.55564700438068       -0.01313561957812       -0.60452855581879
C            1.92816858357297        0.00832789400228       -0.19545868595158
C            2.86384598450562       -0.55691331780633       -1.29108262651518
C            4.29744762317058       -0.44929285293152       -0.86749227393488