72
 energy: 0.000000000000 xtb: 6.6.1 (8d0f1dd)
N           -1.47310921155849        2.74401293103706        2.22063921685122
C           -1.55658879776851        2.16490285539332        1.13274273951491
C           -2.74549199786261        2.05621232186130        0.23826248438941
C           -3.31377553111525        0.64333411542669        0.32332512650568
C           -4.30230156009016        0.24487110156316       -0.58026161703006
C           -4.85238763031941       -1.02286490450319       -0.53363588718165
O           -5.81419972815119       -1.48606034185536       -1.36157882725342
C           -6.39655633239252       -0.60827000183299       -2.29568474302620
C           -4.39972501531283       -1.94646102182611        0.44396929121966
O           -4.98748311285188       -3.16145997157803        0.41085992006324
C           -4.66362127904578       -4.10093827755394        1.40909127743729
C           -3.42072513477031       -1.54561384810496        1.33436546260297
C           -2.88302799614223       -0.26315800396994        1.27400150770375
C           -2.19303798107274        2.30467000305896       -1.18742977106749
C           -1.26651538239283        1.17243369445008       -1.65249429687285
C            0.01082524939134        1.09745454476277       -0.89354803499847
N            0.61779393476578       -0.02034948052406       -0.57705522512502
C            2.00145210352228       -0.02376006389122       -0.15611399603240
C            2.92554934655222       -0.53865282675074       -1.27700088804721
C            4.35756843073516       -0.43050757231754       -0.83075544324989
C            5.07346135469827        0.73206409086248       -1.03980965825901
C            6.38627986649936        0.84224441421807       -0.60344822702769
C            7.00047264773336       -0.20824756335880        0.05722314418200
O            8.26703657141718       -0.21011313101264        0.52410943644933
C            9.06912227848686        0.92943601033931        0.31863058007678
C            6.27039964270142       -1.40439753960823        0.28033466008274
O            6.94829939911432       -2.38012925705718        0.92751999079483
C            6.31537317745639       -3.61583200086742        1.15217711710877
C            4.96302794628964       -1.49347471867959       -0.16064430359178
C           -0.05511211367372       -1.29906247805359       -0.62085686319744
C           -3.86758037025447        3.07992600430699        0.58498060215443
C           -4.49286159663096        2.77383493050346        1.94313289484366
C           -3.39165179876499        4.52917666589254        0.54797523472093
H           -4.66030026466202        0.94509067363451       -1.31640568823548
H           -6.85037928558380        0.25803162192116       -1.80468845313260
H           -7.17287442604349       -1.18600110843259       -2.79318157561361
H           -5.66836817451085       -0.26952966318766       -3.04040255244073
H           -4.88416720672258       -3.71589460520039        2.40913542187496
H           -5.29223570620378       -4.96637458756866        1.20969236903657
H           -3.61139813139015       -4.39919835331056        1.35529357841967
H           -3.07077796610445       -2.21868765711333        2.10002662693138
H           -2.14562754426994        0.02067850696302        2.01001344383370
H           -3.02188875377605        2.38238012313952       -1.88813545054866
H           -1.65198530896729        3.25146700677685       -1.20556284570283
H           -1.81103374245520        0.23006524641044       -1.62116301628650
H           -0.99335688527853        1.37490212198123       -2.69443256973690
H           -0.67628064361333        1.65183887049447        0.61785727145403
H            0.63525841192517        1.98466369793744       -0.92314021190751
H            2.11132552493482       -0.65949692842762        0.72532613231274
H            2.30680473056284        0.98978251704176        0.11078972794250
H            2.76694198818247        0.06750735147374       -2.17075252200790
H            2.67954581369920       -1.57455627803457       -1.51167743520200
H            4.62169998552446        1.56295612048703       -1.56123579000624
H            6.92357674630170        1.75715815945204       -0.79119596719031
H            8.65159112996149        1.81001823324363        0.81701555159939
H            9.20136171144928        1.14042857828877       -0.74698991949293
H           10.03428838009630        0.69003240176163        0.76064937965836
H            7.05567174969094       -4.23621171795340        1.65347565939075
H            5.43848001056755       -3.50813558175093        1.79970565785717
H            6.02060041905269       -4.09420497120334        0.21253282636366
H            4.40102758497114       -2.40127266373392       -0.00490198249042
H           -0.22071299714579       -1.61775583601871       -1.65116008982042
H           -1.01972258008625       -1.24102717432227       -0.10935206830928
H            0.55899954147532       -2.04486085926761       -0.12333730421426
H           -4.63991875734388        2.95501092798550       -0.18098088071825
H           -3.76095216473977        2.90314704960906        2.73380821053058
H           -4.87457614030224        1.75695641518947        1.97884603101694
H           -5.31925552549014        3.45579210326349        2.12325564252114
H           -2.60025590131176        4.69225046143352        1.27368918226171
H           -3.03987406413880        4.81897652321898       -0.43870975059559
H           -4.22191740670577        5.18069648090034        0.80616693961239
H           -0.59832433787845        2.77744694953323        2.72958984441332
72
 energy: -5.679297970160 xtb: 6.6.1 (8d0f1dd)
N           -1.55776239224055        2.85522771598381        2.26308006144878
C           -1.59016657037350        2.14989584519551        1.22708059939393
C           -2.76705471289218        2.05493651868946        0.30267219140188
C           -3.34167163231516        0.65115286467504        0.36111906893547
C           -4.31236529065918        0.24997282984388       -0.55416380886380
C           -4.86918153199822       -1.01490120065453       -0.51609009137059
O           -5.84528121796042       -1.45229265735796       -1.36322688675721
C           -6.32531754957135       -0.54734418665788       -2.32297018381707
C           -4.44498278748035       -1.93427500539033        0.46809523640768
O           -5.02967902090162       -3.16980658220567        0.44254913270870
C           -4.62216035794363       -4.08775950598367        1.42634489840411
C           -3.49905167662664       -1.52911536284183        1.39221491254710
C           -2.95721648342737       -0.24999430286464        1.33650619773007
C           -2.14042111809380        2.33558675105000       -1.07181244059119
C           -1.25472632089190        1.21554790216852       -1.65450206806360
C            0.04768391901597        1.12495972513458       -0.95306281167259
N            0.64541507870649       -0.07471983334896       -0.57790316126822
C            2.01956626478536       -0.06897064477926       -0.18041128823228
C            2.96288627735783       -0.55689071369672       -1.29995490902286
C            4.38827165943023       -0.44429867235092       -0.85319643562157
C            5.11001366602203        0.71965070899628       -1.05033708096117
C            6.42309561617344        0.82836793799340       -0.59964160855551
C            7.04711191958088       -0.21954059787427        0.06182246052525
O            8.32926337047260       -0.19791557005960        0.54681510394326
C            9.11207301199612        0.95965756370712        0.34236176893441
C            6.31506293954694       -1.41289928625955        0.27394139691374
O            6.98790063601171       -2.40246496593502        0.94219855602878
C            6.31429648232020       -3.61384974091164        1.16854206871375
C            5.00441690378335       -1.50076115839123       -0.17878799175184
C           -0.04758077496777       -1.33769772102876       -0.65297128939336
C           -3.91500581806197        3.07275652664242        0.58071980238024
C           -4.58218397216644        2.79683173784638        1.92881603834688
C           -3.44104655350126        4.52616933566387        0.53581129625907
H           -4.61781238626584        0.95759604286987       -1.29967141374909
H           -6.76885764356186        0.33817604564509       -1.85437704568054
H           -7.10105233737031       -1.08048043745607       -2.87414509131312
H           -5.54030150846114       -0.22837580743976       -3.01324670950066
H           -4.82988585620572       -3.71927758363246        2.43704361502389
H           -5.19581900425731       -4.99745084124724        1.25509991894064
H           -3.55137806215516       -4.30657729565435        1.33595721929781
H           -3.18174054011478       -2.20003492351821        2.17782125023929
H           -2.24278726514687        0.04569802679102        2.08792179873679
H           -2.95804163224150        2.56545522402076       -1.73403021137216
H           -1.52568595262955        3.23328670933472       -0.95771196732000
H           -1.76657870921913        0.26052011165745       -1.57606089212665
H           -1.11660325984082        1.42989758513479       -2.73433982133244
H           -0.72301116183908        1.60835407352224        0.78463517539945
H            0.70419275196547        1.97450729350010       -1.04230635778386
H            2.15861104178540       -0.70110470630337        0.70673107707283
H            2.30495584238324        0.94820324283319        0.09369138798274
H            2.79371240260121        0.05202941957778       -2.19242625888692
H            2.70970757310774       -1.59068044577122       -1.54162640557490
H            4.64995071946213        1.55012657764423       -1.56790196938649
H            6.95696489096863        1.75350394898533       -0.75737649450120
H            8.68410129326069        1.83889556247040        0.83543478145539
H            9.24500976396371        1.17343595353796       -0.72272595002809
H           10.08751295699913        0.75487426645536        0.77478550835357
H            7.00561013376853       -4.26599096581841        1.69861718757150
H            5.41658316829957       -3.46055494519376        1.77900846458965
H            6.03441325073975       -4.09640019968353        0.22652005017060
H            4.43124431558187       -2.40309526010069       -0.02602661839025
H           -0.19232493187593       -1.69755006666367       -1.67500002003176
H           -1.04089687518446       -1.23670903910928       -0.21225161529212
H            0.50910664884652       -2.09097767466319       -0.09306888169013
H           -4.67491640076433        2.92831429001561       -0.20718796156809
H           -3.83958912687891        2.92014500819134        2.70940976771631
H           -4.97257042000755        1.78190568418218        1.97139470519049
H           -5.41011852598555        3.49212551473926        2.09801597227411
H           -2.62929110905953        4.67090999459273        1.25442395036366
H           -3.10245191334298        4.79131965908431       -0.46333662286906
H           -4.27844982964902        5.18832923763672        0.77477657916536
H           -0.69107372615753        2.84501752241982        2.78301034995352
72
 energy: -0.194391893264 xtb: 6.6.1 (8d0f1dd)
N           -1.63178134568694        2.94352637124651        2.28864932113702
C           -1.63953836467353        2.15614068956794        1.31683310150041
C           -2.79081590760662        2.04269102450526        0.37133746635633
C           -3.36869961748778        0.64667281868671        0.40950371362050
C           -4.31612181737407        0.24953836666104       -0.52945344860150
C           -4.88221228286291       -1.01181735029037       -0.49995534975689
O           -5.82936369160173       -1.45558339919177       -1.37027734444236
C           -6.23406221087235       -0.55297008126070       -2.36000931960220
C           -4.49086119982054       -1.92854818466941        0.49658594027445
O           -5.07180808411734       -3.16641982321706        0.45342274922054
C           -4.65167840272081       -4.08282732982727        1.43185271672184
C           -3.57821404053041       -1.52082869282487        1.44922719225967
C           -3.02488366281111       -0.24714264230011        1.40819302466135
C           -2.07076823492559        2.33733528355995       -0.93826010249814
C           -1.24636466709283        1.21745984652477       -1.59220261547336
C            0.10608635747763        1.10058466728227       -1.03508425548019
N            0.67762544072528       -0.10507468889866       -0.63370978623423
C            2.04469839436800       -0.09956482507723       -0.21825705137635
C            2.99584961413586       -0.57159035903374       -1.33088113480033
C            4.41943078016116       -0.45653299685096       -0.87155313907361
C            5.14492904317883        0.70802451667007       -1.06088237902766
C            6.46115449537604        0.81382949959278       -0.60289914272920
C            7.09350516760473       -0.23247861920817        0.05968929074332
O            8.37591188743294       -0.19435332948073        0.56195707664356
C            9.14941225148706        0.96611202115866        0.34127021878718
C            6.35668348188110       -1.42729927207445        0.25934511850309
O            7.02444107524865       -2.42062174422170        0.93140015001326
C            6.32537465616840       -3.61558798989841        1.16193804121730
C            5.04067959954789       -1.51188214054740       -0.19720883455658
C           -0.02932829704967       -1.35923442115247       -0.66398402094968
C           -3.95523076030102        3.06451767465735        0.58051476693289
C           -4.67104059548731        2.81895186355101        1.91158051603272
C           -3.48889897622696        4.52156682128969        0.51474276878300
H           -4.56052854279126        0.95321673720284       -1.29796252901068
H           -6.68068823073168        0.33975792412248       -1.91714780089971
H           -6.99093638104411       -1.07905420920593       -2.93923900645400
H           -5.40991316796583       -0.24025723066983       -3.00480662679010
H           -4.87472070048681       -3.71652563385559        2.43819617170608
H           -5.20226808899595       -5.00310889643291        1.25463348849547
H           -3.57566340667693       -4.27821100150113        1.34847636050647
H           -3.30328632823765       -2.19130560172600        2.24445949656081
H           -2.33815375878861        0.04718075603663        2.18627771365227
H           -2.84261145601182        2.63430334415956       -1.58302375742033
H           -1.42997035215288        3.18912910342757       -0.72837848598238
H           -1.75556257948583        0.26303007916685       -1.47019802230000
H           -1.23974965141615        1.48313526521159       -2.68898008197021
H           -0.77067604788737        1.56336037937997        0.94170615508825
H            0.76973263255004        1.93723751128664       -1.15087165698325
H            2.18579870895619       -0.74259437435675        0.66102897054337
H            2.33048052969689        0.91288828266293        0.07003452415266
H            2.83147025017872        0.04125100373000       -2.22362916236473
H            2.73918378083184       -1.60342496225693       -1.57624006989254
H            4.67973036965197        1.53845360945963       -1.57778627930728
H            6.99821277185287        1.74164541733547       -0.74338667136234
H            8.71732899920286        1.84474983853540        0.82696883019170
H            9.26794669135520        1.17649323016862       -0.72772632426639
H           10.12921080768462        0.79102244590134        0.78318576422361
H            6.98405033126276       -4.27410558211836        1.72489299055707
H            5.41503039606632       -3.43746411762374        1.75088117076636
H            6.05367495869846       -4.09980548786612        0.21850715127281
H            4.46161276750143       -2.41279503198107       -0.04893979791055
H           -0.16731175835228       -1.76557327204864       -1.67662199683236
H           -1.01806297551497       -1.23088009838388       -0.21940725115978
H            0.49207635641505       -2.10389378276886       -0.05638656081886
H           -4.68332869834639        2.88302328425893       -0.23516596077987
H           -3.95163706079092        2.94806258719069        2.71321636933796
H           -5.07027886439621        1.80749185676322        1.95972567236318
H           -5.50246362479216        3.52428781813378        2.03783198381501
H           -2.67248252552923        4.66806667077653        1.23548415986294
H           -3.15945555016053        4.76996069345555       -0.49323631380419
H           -4.33932502465811        5.18099937791737        0.73080643917984
H           -0.78207989687016        2.96898833652942        2.82802125478840
72
 energy: 9.388694523960 xtb: 6.6.1 (8d0f1dd)
N           -1.70899056600549        3.02261972353225        2.32212586533528
C           -1.69315464207861        2.16044981749545        1.41816592362568
C           -2.81270987213930        2.02381650675041        0.44445270271102
C           -3.39555295409883        0.64095898651240        0.45569700976792
C           -4.31181264512075        0.24626279248475       -0.51179309008776
C           -4.89143691435870       -1.00878157863337       -0.48818077751799
O           -5.80360407713359       -1.46478895962392       -1.38401522925413
C           -6.13898907646553       -0.56877629217070       -2.40022635199067
C           -4.53897099585522       -1.92515279700320        0.51640173406075
O           -5.11977432219076       -3.16193880862347        0.45247749211064
C           -4.70872470336499       -4.07464120827761        1.43687364846188
C           -3.66406753413907       -1.51402628963130        1.49801297014969
C           -3.09934360330816       -0.24718251307017        1.46902475312425
C           -1.99691402036486        2.30479667575413       -0.79303756737089
C           -1.22766817064790        1.20347253141000       -1.50704818357448
C            0.16554967637571        1.06921822997484       -1.10645442523450
N            0.71210465034045       -0.12694078556164       -0.65946822954910
C            2.07494172733913       -0.12676949670433       -0.25306301320839
C            3.02613388190267       -0.58496896371944       -1.36464789248876
C            4.44686128423189       -0.46771316949818       -0.89249273698014
C            5.17367420805197        0.69787718963483       -1.07530531792375
C            6.49276690867422        0.80341309556344       -0.61787805781730
C            7.12640021812659       -0.24003933752484        0.04443733107217
O            8.40788856149121       -0.19456895917265        0.54997565002344
C            9.18110406391741        0.96511158870932        0.32032658951230
C            6.38993758422802       -1.43676782481363        0.23761384860584
O            7.05538013495470       -2.42776464226928        0.90969439190180
C            6.34429651604889       -3.61620406921457        1.14012841308780
C            5.07072925143203       -1.52271518031204       -0.21819520128476
C           -0.00587096099059       -1.37107255467709       -0.63976910503376
C           -3.98131507440838        3.05531804194966        0.57657797608665
C           -4.73825582534112        2.83716409624165        1.88441690858598
C           -3.51047847017784        4.51061969028355        0.49494604118073
H           -4.50141877699939        0.94342659845534       -1.29895640654650
H           -6.59019436799422        0.33074882652214       -1.98517213743635
H           -6.87445269554195       -1.09173802431680       -3.00540692277833
H           -5.27837502018507       -0.26374257288845       -2.99792733062636
H           -4.95761177114307       -3.70576286848507        2.43438474936452
H           -5.24439994884238       -4.99997780178611        1.25007088354163
H           -3.62942093312906       -4.25488884862523        1.37710180251361
H           -3.43343204568614       -2.17881277783948        2.30705575738193
H           -2.44197123335706        0.05047624792992        2.26621567651969
H           -2.71060260141189        2.69078467830909       -1.40702625932230
H           -1.34023306138945        3.08590982775082       -0.48571908146391
H           -1.73386315374035        0.25130661360475       -1.35806656359020
H           -1.27803136565800        1.51653779557616       -2.58716884955703
H           -0.82183909590352        1.52590851373734        1.10332559262462
H            0.83522222406845        1.88895341765712       -1.26311380172534
H            2.21599767782364       -0.78438457104313        0.61308687135130
H            2.36146384476661        0.88079481716872        0.04676056206832
H            2.86651504085589        0.03152705335633       -2.25652968487319
H            2.76706724516043       -1.61505847462595       -1.61224842714321
H            4.70639831691468        1.52864388020693       -1.59160357020532
H            7.02824006075716        1.73377189981218       -0.75308138348543
H            8.75520113223383        1.84569668177555        0.80598020343629
H            9.28750863375377        1.17878177743370       -0.75002907249422
H           10.16262702934572        0.78934745394207        0.76067155146925
H            6.99336261732220       -4.27641631937726        1.70999519900436
H            5.42798831514005       -3.43467028638083        1.72008802879155
H            6.07256109061170       -4.09891189241119        0.19645038847596
H            4.48953725532198       -2.42443518256638       -0.07332159876605
H           -0.15653273332971       -1.78733144245184       -1.65391248707794
H           -0.98142307501091       -1.23115347683852       -0.16585397756580
H            0.51434400255295       -2.10577290279670       -0.01254364742445
H           -4.66615860384991        2.85424274705706       -0.27291110624337
H           -4.05019984876792        2.97636167616198        2.71235871390975
H           -5.15417152551202        1.83330856854703        1.93742242767415
H           -5.55192125659368        3.55761626151017        1.95217658046715
H           -2.70876567741445        4.66515327925424        1.22970485112463
H           -3.13908382400662        4.73736053531124       -0.50073771677390
H           -4.34906302232124        5.18193167367626        0.66878484097711
H           -0.87692952564600        3.08185667399916        2.88422842203164
72
 energy: 25.188312857584 xtb: 6.6.1 (8d0f1dd)
N           -1.79211049094492        3.08887874268065        2.37010269935787
C           -1.75126744276468        2.16823433320681        1.52649314031642
C           -2.83490066433679        2.00074178116968        0.51829202435541
C           -3.42567341074507        0.63218014902656        0.50176012163649
C           -4.30272154315274        0.23876606727310       -0.49919724498285
C           -4.88910590910076       -1.01253330564744       -0.48740964299999
O           -5.76710109475979       -1.48117989068539       -1.40540172818757
C           -6.03999159846094       -0.59371888601701       -2.44386422420944
C           -4.58665198644380       -1.92275059604846        0.53302806787747
O           -5.17165695321946       -3.15578150054966        0.44833910792977
C           -4.78791472393055       -4.06327364808088        1.44544596519669
C           -3.75361074114862       -1.50790414054469        1.54504780846325
C           -3.17838117100871       -0.24790635010181        1.52930429673568
C           -1.92142205523338        2.24665795800614       -0.63647066717337
C           -1.20711600308144        1.17766753071897       -1.41068955756858
C            0.21614715614740        1.02888427070522       -1.16950002959998
N            0.73895648424743       -0.13471312921316       -0.62838265630434
C            2.10869342292949       -0.15182870833762       -0.28193389888873
C            3.05281969803759       -0.59855180456098       -1.39903915636321
C            4.47014766164681       -0.47736098602481       -0.91336718917618
C            5.19531803705932        0.69049882879573       -1.09071135212176
C            6.51503426653096        0.80266906684917       -0.63915186119754
C            7.15309083378863       -0.24026800609769        0.01904676492509
O            8.43766161950472       -0.19448354659940        0.52136290557312
C            9.21236661982151        0.96346410499371        0.28444753806375
C            6.41782477212764       -1.43849056856266        0.20863248837819
O            7.08601933134535       -2.43115596150248        0.87556628345853
C            6.36597939778281       -3.61509566434752        1.10677303552833
C            5.09670364021292       -1.53127483819191       -0.24042685226031
C            0.02011866960925       -1.37691283351449       -0.58731994182532
C           -3.98375711829452        3.04828277477768        0.56121928313794
C           -4.79209698745295        2.85691036158338        1.83467269045750
C           -3.50770798427261        4.50083424494365        0.47004765418012
H           -4.44210963734030        0.93123710299127       -1.29890572461578
H           -6.49830884873925        0.31161338173847       -2.05869545046384
H           -6.75297392633757       -1.11599985444709       -3.07239478354534
H           -5.14697512903507       -0.29615598752161       -2.99410006102869
H           -5.07253613525726       -3.68701142824601        2.42864485165575
H           -5.31131647736398       -4.99159321465170        1.24675365834857
H           -3.70778034079281       -4.23522747180484        1.42307525872063
H           -3.56852559577908       -2.16581192745511        2.36692629300810
H           -2.55458964149350        0.05757594731935        2.34662228712106
H           -2.53341587599298        2.78193382748425       -1.19556681043959
H           -1.23488823549310        2.91211261208699       -0.21027938591120
H           -1.71174105290803        0.22956334393233       -1.24076881472913
H           -1.29690044205055        1.54746534683970       -2.45301463813094
H           -0.87435639779469        1.50606195206652        1.26378436229320
H            0.88922321416523        1.83507241044746       -1.36862073896509
H            2.25209345405347       -0.82587236597258        0.56816423884187
H            2.39841409782379        0.85106884310146        0.02319141419361
H            2.90137482416598        0.02033697494568       -2.29085945302687
H            2.79586228651432       -1.62809927606200       -1.64804787597359
H            4.72613686861059        1.52225921116872       -1.60308550871210
H            7.04596127965084        1.73654454438004       -0.77229427551716
H            8.79453812802340        1.84480771066220        0.77369833797341
H            9.30417434567828        1.18183909375182       -0.78684497533914
H           10.19707068558668        0.78475896663853        0.71864302114706
H            7.00965575716318       -4.27908193290579        1.67667728244788
H            5.44865893029366       -3.43238247775099        1.68547081229986
H            6.08854867184546       -4.09401874830627        0.16313720685168
H            4.51610624040187       -2.43443291552738       -0.09544431959995
H           -0.14256179853559       -1.78468797278212       -1.60775114248031
H           -0.94056267830394       -1.23186594810310       -0.08073327676107
H            0.54603053996151       -2.10443043683768        0.04996936996243
H           -4.62150818575368        2.82706611012902       -0.32164785683342
H           -4.14307284174119        3.00537901492372        2.69102281199242
H           -5.21972429290597        1.85908533321750        1.88315818711015
H           -5.59142384654536        3.58784317628999        1.84222357738699
H           -2.73443399057432        4.67122105905575        1.22772738013517
H           -3.08772004055281        4.70298685005138       -0.50707370431271
H           -4.34217255119107        5.17814609335727        0.58875968049163
H           -0.97901229198413        3.18150004247120        2.95542396654837
72
 energy: 48.806754237956 xtb: 6.6.1 (8d0f1dd)
N           -1.88876869666259        3.13619985574420        2.41658301620435
C           -1.82559211914293        2.16741863596815        1.62440991113425
C           -2.86040626623957        1.97292839889037        0.56966020278868
C           -3.45980414100802        0.62003650322890        0.54816192202025
C           -4.28949667299049        0.22605618358580       -0.48926195934698
C           -4.88084784197340       -1.02108353997901       -0.48939230071593
O           -5.72009014185270       -1.50259413280073       -1.43123524954668
C           -5.93619752597703       -0.62421073320372       -2.48846641368829
C           -4.63564858686490       -1.92021948124865        0.55104137344418
O           -5.22613723519432       -3.14762143238150        0.44198346446424
C           -4.88752136207113       -4.05034093590044        1.45462324428139
C           -3.84842617635994       -1.50031326314814        1.59412533770776
C           -3.26220894179085       -0.24696853818746        1.59084799536125
C           -1.85019929841517        2.15130480719178       -0.50340711000241
C           -1.18185639821080        1.14164008249735       -1.32802731319525
C            0.25636416057048        1.00929503883532       -1.14585666032373
N            0.76753272529028       -0.14127836092983       -0.58180839221018
C            2.14460753963249       -0.17503436906608       -0.30502977634167
C            3.07633806700065       -0.61045356483076       -1.43275946928609
C            4.49136492558147       -0.48508904842818       -0.93550912380916