25
 energy: -42.184118275230 gnorm: 0.063325614248 xtb: 6.6.1 (8d0f1dd)
C            3.92762011186990        0.54737972440146        0.02473987810635
N            2.71080065604135       -0.21891095177022        0.00178204860395
C            2.59810998399935       -1.53985687700917        0.00194384128002
N            1.28929428803482       -1.88512733147164       -0.00111005411902
C            0.54573527099346       -0.73866767583083       -0.00210410703136
C            1.44525534074986        0.31780372401148       -0.00033433368370
C            0.98737834266101        1.69385239002250       -0.02331435395049
O            1.63527998362261        2.69679737047950       -0.04963493918757
N           -0.47512574327129        1.70543503249901       -0.01318661723155
C           -3.97288694017498        1.29371740674680        0.00802942725791
C           -1.30855245866162        0.72582299524066       -0.00239856189314
O           -2.63266377835335        0.60527181138521        0.01652334872341
N           -0.79554643756399       -0.62186872669136       -0.00554583922344
C           -1.60684875585041       -1.82539575551134       -0.01058442725607
H            4.39848314344702        0.47973994341483        1.00680842702807
H            4.62364373151542        0.17477438099478       -0.72555267120591
H            3.68851351101118        1.59083712689678       -0.17757548819916
H            3.41154494972710       -2.23776067569324        0.00214737602575
H           -3.85475914483883        2.37531498755602        0.00749870952547
H           -4.46353506756755        0.94461422310922       -0.89504415399329
H           -4.46650657712146        0.94411341440625        0.90888837651857
H           -1.40091238181856       -2.42125327428943        0.88023178086134
H           -1.40371494689203       -2.41173569749659       -0.90838984115906
H           -2.65543036954409       -1.54647793673183       -0.00699049925198
H            0.93525480208435       -2.83018108706912       -0.00565570864172
25
 energy: -42.195900051703 gnorm: 0.045484245263 xtb: 6.6.1 (8d0f1dd)
C            3.91103693420409        0.56027028436568        0.02443469712000
N            2.69273709752972       -0.20581000220889        0.00190854378127
C            2.59589861670115       -1.52929627847205        0.00166989882097
N            1.29256101078570       -1.89028704444875       -0.00113687889040
C            0.53864179432223       -0.75305257252386       -0.00182407447766
C            1.41594868597063        0.31828268122584        0.00043773606293
C            0.90932100807468        1.68518569656903       -0.02202122570031
O            1.54915599678462        2.69532674774477       -0.04878490687825
N           -0.52521096513188        1.68888842226425       -0.01274607041572
C           -3.88018231868513        1.32814701960055        0.00753381763329
C           -1.31696132210944        0.69004040400601       -0.00232542841117
O           -2.61984301842728        0.56103207387967        0.01734378102688
N           -0.79859815690599       -0.64881126758730       -0.00540850276696
C           -1.60959103592254       -1.84872170314105       -0.01058385350324
H            4.38516946651481        0.48911655472859        1.00512354999745
H            4.60822125838259        0.18505425916221       -0.72463923599564
H            3.67602544448479        1.60399397723496       -0.17786410830250
H            3.41627247386589       -2.21978306016948        0.00173860071507
H           -3.75353718728906        2.40599664974261        0.00739686091496
H           -4.40140099256375        0.98814854238610       -0.88564848337602
H           -4.40704031916367        0.98857917630466        0.89749566077957
H           -1.40379664873358       -2.44088415221427        0.88199721954380
H           -1.40598905488026       -2.43142599270807       -0.90995393643947
H           -2.65656539292874       -1.56287919583320       -0.00731988799253
H            0.94815813921969       -2.83887267830829       -0.00565215534294
25
 energy: -42.205234375185 gnorm: 0.024740184336 xtb: 6.6.1 (8d0f1dd)
C            3.88681516215351        0.58185528959511        0.02427209763035
N            2.66902344730122       -0.18573045918800        0.00227479082624
C            2.59686071754157       -1.51208170051099        0.00128707479228
N            1.30208495747191       -1.89943197028925       -0.00141131644307
C            0.53245167247293       -0.77515642767546       -0.00144822896564
C            1.38001029227055        0.31781680750259        0.00115944742571
C            0.80824199136594        1.67573658336609       -0.02138450990818
O            1.45086805049469        2.69117620995937       -0.04794279785738
N           -0.58594593169130        1.66655264332564       -0.01147928266447
C           -3.76653249803147        1.36875866130251        0.00696761285946
C           -1.33295724409577        0.63659655999757       -0.00097587015478
O           -2.61908683333702        0.50393161302892        0.01905205704138
N           -0.80377924441223       -0.68967559072518       -0.00492525440762
C           -1.61326806691585       -1.88844857455813       -0.01068215219381
H            4.36347392774849        0.50659835530445        1.00388407548676
H            4.58337503841365        0.20386071999721       -0.72509976483681
H            3.65312615436511        1.62527024205201       -0.17762548864799
H            3.42845659135387       -2.18941029253278        0.00124997956146
H           -3.57608595880495        2.43658052188876        0.00696182840633
H           -4.34149348962774        1.07247835423311       -0.87932934924788
H           -4.35137664731930        1.07438922462811        0.88812006425237
H           -1.40728016642550       -2.47797041244912        0.88253579301165
H           -1.40840501339902       -2.46847379260319       -0.91047420836505
H           -2.66031866497666       -1.60355893681819       -0.00800375677645
H            0.97217327018265       -2.85342508723145       -0.00581122292146
25
 energy: -42.210744420358 gnorm: 0.027306996016 xtb: 6.6.1 (8d0f1dd)
C            3.86033986598553        0.60997658560287        0.02395698231905
N            2.64937320679430       -0.16817644531670        0.00250739429785
C            2.60307351585748       -1.49622094023654        0.00094107389442
N            1.31661500091857       -1.91080714930781       -0.00156404361533
C            0.52860728664226       -0.79989404101082       -0.00090673315517
C            1.35253860210954        0.31166719723961        0.00207980049538
C            0.73778638837685        1.66361897083362       -0.01989918345919
O            1.38085036532983        2.68309345886029       -0.04737076714116
N           -0.63594423070979        1.62949839680687       -0.01064160706220
C           -3.69384432073982        1.41885723477919        0.00664788296047
C           -1.35538111710872        0.57491661050638        0.00026118784761
O           -2.64072094468773        0.45208246678215        0.01939547254660
N           -0.81159009538626       -0.73619768149923       -0.00417043686696
C           -1.61398694932881       -1.93972926338299       -0.01069146751022
H            4.33826169934826        0.53518488550663        1.00291656695878
H            4.55720086981575        0.23552906370889       -0.72690911717862
H            3.61987550041849        1.65197092686443       -0.17657941978339
H            3.44781559349040       -2.15719167447101        0.00063738749677
H           -3.38837667628500        2.47079701846469        0.00712920344402
H           -4.30410851162708        1.18305631372888       -0.88146907377247
H           -4.31662135836117        1.18539328178480        0.88750629739497
H           -1.40575895031844       -2.52791651972383        0.88268397815335
H           -1.40534589608017       -2.51825882461504       -0.91038885707589
H           -2.66314326705998       -1.66246900769310       -0.00894666382442
H            1.00291593670500       -2.87054232261250       -0.00595423946089
25
 energy: -42.215311905912 gnorm: 0.027284985714 xtb: 6.6.1 (8d0f1dd)
C            3.82938694023138        0.64194663876041        0.02377253903951
N            2.62919431673045       -0.15300857959971        0.00285726529951
C            2.60906499159052       -1.48167293249636        0.00083925707612
N            1.33093588271628       -1.92226662800659       -0.00163604672715
C            0.52342256593830       -0.82490729375522       -0.00040367341277
C            1.32760738900217        0.30137245736098        0.00255756995414
C            0.68538810791101        1.64900716647504       -0.01964412450490
O            1.32517229614697        2.67169257089519       -0.04718898196025
N           -0.68117028917616        1.58433205684587       -0.00950273693969
C           -3.63483302264418        1.47247443994843        0.00661658177910
C           -1.38016170767478        0.51003294735712        0.00156918593689
O           -2.67305414483110        0.40901818887133        0.01895957417502
N           -0.82294983769269       -0.78324939029701       -0.00323029985580
C           -1.61528157983198       -1.99479247731193       -0.01081106129984
H            4.30827871935141        0.57146490415812        1.00228566469453
H            4.52817023065836        0.27633052028889       -0.72920696871219
H            3.57612098550168        1.68155841617139       -0.17487509298127
H            3.46789551196707       -2.12416364760046        0.00034134560609
H           -3.20467776149974        2.49279032913819        0.00804720692860
H           -4.25788170094821        1.30439889420311       -0.88671566366324
H           -4.27181577777095        1.30671371883092        0.89058691626794
H           -1.40404225436640       -2.58350247626032        0.88190990893088
H           -1.40179955943717       -2.57323433561335       -0.90983440675600
H           -2.66710060642847       -1.72646438232076       -0.01017721358265
H            1.03456181865553       -2.88763256444360       -0.00594512738921
25
 energy: -42.218886143773 gnorm: 0.019826282728 xtb: 6.6.1 (8d0f1dd)
C            3.79302640797011        0.67567485312933        0.02336472247385
N            2.60819471595760       -0.14298186705719        0.00314344452427
C            2.61231770987069       -1.47143306923866        0.00060827410675
N            1.34186741270319       -1.93439061663001       -0.00157267429837
C            0.51546051856852       -0.84995037181008        0.00025037461049
C            1.30407056904378        0.28623001976356        0.00346175852145
C            0.65078923238622        1.63071515992454       -0.01823093543792
O            1.28360356061233        2.65587656266701       -0.04616933676741
N           -0.71466489809920        1.53980210432834       -0.00856461840515
C           -3.57677239405782        1.52255262108822        0.00643830589837
C           -1.39960412477945        0.45267301798226        0.00176474624477
O           -2.70257455040664        0.38540363813325        0.01719032650716
N           -0.83667947742662       -0.82573590032850       -0.00216959285762
C           -1.61806801211306       -2.04674299609769       -0.01064263001160
H            4.27339060867827        0.61370536789954        1.00140041236030
H            4.49606751626256        0.32584612322249       -0.73265804111509
H            3.51860939505375        1.71130252363098       -0.17239867337092
H            3.48474024745388       -2.09498239462529       -0.00045065587930
H           -3.05209524620956        2.49378020016295        0.00860895261459
H           -4.19762104191948        1.42223473991345       -0.89079751064351
H           -4.21189646908583        1.42502407187558        0.89315670951591
H           -1.40333008615982       -2.63714071861759        0.88090622014454
H           -1.39879614386559       -2.62679166426788       -0.90801081348128
H           -2.67257039397060       -1.78751104893175       -0.01148497550491
H            1.06296645763207       -2.90492181451715       -0.00597217184598
25
 energy: -42.220989873216 gnorm: 0.016358048896 xtb: 6.6.1 (8d0f1dd)
C            3.75576166778679        0.70794038613475        0.02286231731395
N            2.59039892884025       -0.13960940713541        0.00345260931068
C            2.61336491583827       -1.46771697563197        0.00033859598128
N            1.34864470968841       -1.94678380063621       -0.00155969837532
C            0.50582085287712       -0.87395872282453        0.00092862364247
C            1.28315748638749        0.26849975478247        0.00433076403798
C            0.63135908753209        1.60940773338283       -0.01728540374982
O            1.25297239194978        2.63907459921100       -0.04446396790037
N           -0.73514496821204        1.50390539730254       -0.00725576955043
C           -3.52083425889559        1.55951451496305        0.00576845982530
C           -1.41187462050295        0.41081868771447        0.00219690133150
O           -2.72066741332688        0.37192241972974        0.01492433415764
N           -0.84912908685342       -0.86035083333017       -0.00107053102255
C           -1.62245900999596       -2.08722325351961       -0.01020469833190
H            4.23867756133932        0.65807324870407        1.00015685206412
H            4.46589063230779        0.38001711230565       -0.73630781226781
H            3.45226736887761        1.73734251152209       -0.16953659140193
H            3.49634452667035       -2.07559310646883       -0.00153113697714
H           -2.91842772524851        2.47746426531974        0.00870375389049
H           -4.14313351998765        1.52118496004267       -0.89203198114524
H           -4.15747973095011        1.52416878652145        0.89280693145053
H           -1.40437089525333       -2.67804322836615        0.88078409097174
H           -1.39799642047058       -2.66798009850610       -0.90635227712452
H           -2.67826969496383       -1.83221751054756       -0.01226825658333
H            1.08555872866489       -2.92161889907027       -0.00621449164396
25
 energy: -42.221978169082 gnorm: 0.012491114196 xtb: 6.6.1 (8d0f1dd)
C            3.72219629582831        0.73522668121533        0.02231268874208
N            2.57789879366197       -0.14077611355188        0.00364422097029
C            2.61319961722803       -1.46842676220783        0.00010433345295
N            1.35212079286723       -1.95787357486785       -0.00136433966079
C            0.49685386137988       -0.89435406561195        0.00170635331544
C            1.26693031597544        0.25267874982456        0.00546893249027
C            0.62193676640905        1.58917278448818       -0.01545806023465
O            1.23184261220892        2.62533145383447       -0.04258525639863
N           -0.74598669219600        1.47925286946113       -0.00696464290559
C           -3.47290522484271        1.58723857024221        0.00493191239046
C           -1.42059012776568        0.38562697679790        0.00146585417033
O           -2.73096415090230        0.36494415879986        0.01135306017439
N           -0.85873968627623       -0.88592999504262       -0.00026278328194
C           -1.62811939630119       -2.11500854297792       -0.00950568942932
H            4.20788795818645        0.69789962595418        0.99866402213138
H            4.43951842115850        0.43062250836625       -0.73980902892511
H            3.38743219438874        1.75669161069488       -0.16651922034857
H            3.50266493957406       -2.06603174546503       -0.00264231866090
H           -2.81189085815489        2.45768978470036        0.00928836722354
H           -4.09337637536880        1.59118468816324       -0.89080254893891
H           -4.10614246510726        1.59244518475525        0.89032030747138
H           -1.40829445232794       -2.70515697025728        0.88156006406957
H           -1.40041989551039       -2.69597434974568       -0.90472044963348
H           -2.68453561752677       -1.86213504897685       -0.01266092802009
H            1.10191388751289       -2.93609993699320       -0.00635323226074
25
 energy: -42.222229988146 gnorm: 0.006633301501 xtb: 6.6.1 (8d0f1dd)
C            3.70202317262706        0.75150519832568        0.02203934466335
N            2.57328756689869       -0.14325787068248        0.00374343223083
C            2.61388307158962       -1.47046353366528       -0.00027843089386
N            1.35425881379416       -1.96484573190143       -0.00160012472417
C            0.49262133299737       -0.90661365940429        0.00212130247385
C            1.25937817700603        0.24355064505733        0.00599974395434
C            0.61845527285532        1.57577210139844       -0.01484572258411
O            1.22025179251985        2.61760579191237       -0.04080186245542
N           -0.74976201811243        1.46582333462525       -0.00631782871775
C           -3.44461631617529        1.60263317111556        0.00418949524936
C           -1.42547237567288        0.37399065437387        0.00149422082928
O           -2.73447420317060        0.35903086434407        0.01009276651196
N           -0.86244509385510       -0.90040142439108        0.00021564679575
C           -1.63194392541485       -2.12871748101223       -0.00890961149334
H            4.18977820477727        0.72280368297119        0.99749739710569
H            4.42375222257512        0.46369659803348       -0.74202183147691
H            3.34569172033439        1.76619959620760       -0.16393114948534
H            3.50555806303498       -2.06456008281592       -0.00374097096859
H           -2.75087895147047        2.44478191931360        0.00771353762641
H           -4.06610491976576        1.62810468144910       -0.89044319832119
H           -4.07959494455234        1.63027130314845        0.88972325998441
H           -1.41225157636100       -2.71820335052542        0.88247717348877
H           -1.40397605090613       -2.70964016812756       -0.90389676096557
H           -2.68840699542584       -1.87585700414442       -0.01242750784808
H            1.11141947397215       -2.94497069400616       -0.00692070307632
