      -----------------------------------------------------------      
     |                   =====================                   |     
     |                           x T B                           |     
     |                   =====================                   |     
     |                         S. Grimme                         |     
     |          Mulliken Center for Theoretical Chemistry        |     
     |                    University of Bonn                     |     
      -----------------------------------------------------------      

   * xtb version 6.6.1 (8d0f1dd) compiled by 'conda@1efc2f54142f' on 2023-08-01

   xtb is free software: you can redistribute it and/or modify it under
   the terms of the GNU Lesser General Public License as published by
   the Free Software Foundation, either version 3 of the License, or
   (at your option) any later version.
   
   xtb is distributed in the hope that it will be useful,
   but WITHOUT ANY WARRANTY; without even the implied warranty of
   MERCHANTABILITY or FITNESS FOR A PARTICULAR PURPOSE.  See the
   GNU Lesser General Public License for more details.
   
   Cite this work as:
   * C. Bannwarth, E. Caldeweyher, S. Ehlert, A. Hansen, P. Pracht,
     J. Seibert, S. Spicher, S. Grimme, WIREs Comput. Mol. Sci., 2020, 11,
     e01493. DOI: 10.1002/wcms.1493
   
   for GFN2-xTB:
   * C. Bannwarth, S. Ehlert and S. Grimme., J. Chem. Theory Comput., 2019,
     15, 1652-1671. DOI: 10.1021/acs.jctc.8b01176
   for GFN1-xTB:
   * S. Grimme, C. Bannwarth, P. Shushkov, J. Chem. Theory Comput., 2017,
     13, 1989-2009. DOI: 10.1021/acs.jctc.7b00118
   for GFN0-xTB:
   * P. Pracht, E. Caldeweyher, S. Ehlert, S. Grimme, ChemRxiv, 2019, preprint.
     DOI: 10.26434/chemrxiv.8326202.v1
   for GFN-FF:
   * S. Spicher and S. Grimme, Angew. Chem. Int. Ed., 2020, 59, 15665-15673.
     DOI: 10.1002/anie.202004239
   
   for ALPB and GBSA implicit solvation:
   * S. Ehlert, M. Stahn, S. Spicher, S. Grimme, J. Chem. Theory Comput.,
     2021, 17, 4250-4261. DOI: 10.1021/acs.jctc.1c00471
   
   for DFT-D4:
   * E. Caldeweyher, C. Bannwarth and S. Grimme, J. Chem. Phys., 2017,
     147, 034112. DOI: 10.1063/1.4993215
   * E. Caldeweyher, S. Ehlert, A. Hansen, H. Neugebauer, S. Spicher,
     C. Bannwarth and S. Grimme, J. Chem. Phys., 2019, 150, 154122.
     DOI: 10.1063/1.5090222
   * E. Caldeweyher, J.-M. Mewes, S. Ehlert and S. Grimme, Phys. Chem. Chem. Phys.
     2020, 22, 8499-8512. DOI: 10.1039/D0CP00502A
   
   for sTDA-xTB:
   * S. Grimme and C. Bannwarth, J. Chem. Phys., 2016, 145, 054103.
     DOI: 10.1063/1.4959605
   
   in the mass-spec context:
   * V. Asgeirsson, C. Bauer and S. Grimme, Chem. Sci., 2017, 8, 4879.
     DOI: 10.1039/c7sc00601b
   * J. Koopman and S. Grimme, ACS Omega 2019, 4, 12, 15120-15133.
     DOI: 10.1021/acsomega.9b02011
   
   for metadynamics refer to:
   * S. Grimme, J. Chem. Theory Comput., 2019, 155, 2847-2862
     DOI: 10.1021/acs.jctc.9b00143
   
   for SPH calculations refer to:
   * S. Spicher and S. Grimme, J. Chem. Theory Comput., 2021, 17, 1701-1714
     DOI: 10.1021/acs.jctc.0c01306
   
   with help from (in alphabetical order)
   P. Atkinson, C. Bannwarth, F. Bohle, G. Brandenburg, E. Caldeweyher
   M. Checinski, S. Dohm, S. Ehlert, S. Ehrlich, I. Gerasimov, C. Hölzer
   A. Katbashev, J. Koopman, C. Lavigne, S. Lehtola, F. März, M. Müller,
   F. Musil, H. Neugebauer, J. Pisarek, C. Plett, P. Pracht, F. Pultar,
   J. Seibert, P. Shushkov, S. Spicher, M. Stahn, M. Steiner, T. Strunk,
   J. Stückrath, T. Rose, and J. Unsleber
   
 * started run on 2024/06/05 at 19:57:51.514     

           -------------------------------------------------
          |                Calculation Setup                |
           -------------------------------------------------

          program call               : xtb struc.xyz --opt loose --input .xc1 --gfn2
          hostname                   : n-62-31-11
          coordinate file            : struc.xyz
          omp threads                :                     1

   ID    Z sym.   atoms
    1    6 C      1, 3, 5-7, 10, 11, 14
    2    7 N      2, 4, 9, 13
    3    8 O      8, 12
    4    1 H      15-25
constraining bond 4 6 to    4.9200000 Å, actual value:    2.2058558 Å

           -------------------------------------------------
          |                 G F N 2 - x T B                 |
           -------------------------------------------------

        Reference                      10.1021/acs.jctc.8b01176
      * Hamiltonian:
        H0-scaling (s, p, d)           1.850000    2.230000    2.230000
        zeta-weighting                 0.500000
      * Dispersion:
        s8                             2.700000
        a1                             0.520000
        a2                             5.000000
        s9                             5.000000
      * Repulsion:
        kExp                           1.500000    1.000000
        rExp                           1.000000
      * Coulomb:
        alpha                          2.000000
        third order                    shell-resolved
        anisotropic                    true
        a3                             3.000000
        a5                             4.000000
        cn-shift                       1.200000
        cn-exp                         4.000000
        max-rad                        5.000000


          ...................................................
          :                      SETUP                      :
          :.................................................:
          :  # basis functions                  67          :
          :  # atomic orbitals                  67          :
          :  # shells                           39          :
          :  # electrons                        74          :
          :  max. iterations                   250          :
          :  Hamiltonian                  GFN2-xTB          :
          :  restarted?                      false          :
          :  GBSA solvation                  false          :
          :  PC potential                    false          :
          :  electronic temp.         5000.0000000     K    :
          :  accuracy                    1.0000000          :
          :  -> integral cutoff          0.2500000E+02      :
          :  -> integral neglect         0.1000000E-07      :
          :  -> SCF convergence          0.1000000E-05 Eh   :
          :  -> wf. convergence          0.1000000E-03 e    :
          :  Broyden damping             0.4000000          :
          ...................................................

 iter      E             dE          RMSdq      gap      omega  full diag
   1    -42.5894031 -0.425894E+02  0.445E+00    3.52       0.0  T
   2    -42.7683054 -0.178902E+00  0.251E+00    3.36       1.0  T
   3    -42.7759211 -0.761567E-02  0.147E+00    3.35       1.0  T
   4    -42.7728404  0.308066E-02  0.553E-01    3.33       1.0  T
   5    -42.7789548 -0.611444E-02  0.112E-01    3.35       1.0  T
   6    -42.7790473 -0.924914E-04  0.614E-02    3.33       1.0  T
   7    -42.7790721 -0.247928E-04  0.258E-02    3.34       1.0  T
   8    -42.7790772 -0.508996E-05  0.938E-03    3.34       2.1  T
   9    -42.7790779 -0.669422E-06  0.448E-03    3.34       4.5  T
  10    -42.7790780 -0.821510E-07  0.115E-03    3.34      17.4  T
  11    -42.7790780 -0.322663E-08  0.553E-04    3.34      36.2  T
  12    -42.7790780 -0.287051E-08  0.180E-04    3.34     111.1  T

   *** convergence criteria satisfied after 12 iterations ***

         #    Occupation            Energy/Eh            Energy/eV
      -------------------------------------------------------------
         1        2.0000           -0.9185990             -24.9964
       ...           ...                  ...                  ...
        31        1.9996           -0.6230278             -16.9534
        32        1.9995           -0.6194601             -16.8564
        33        1.9979           -0.5974976             -16.2587
        34        1.9932           -0.5789629             -15.7544
        35        1.9817           -0.5631863             -15.3251
        36        1.9779           -0.5602245             -15.2445
        37        1.9748           -0.5581234             -15.1873 (HOMO)
        38        0.0652           -0.4353579             -11.8467 (LUMO)
        39        0.0099           -0.4050467             -11.0219
        40        0.0013           -0.3732218             -10.1559
        41        0.0000           -0.2886859              -7.8555
        42                         -0.2065804              -5.6213
       ...                                ...                  ...
        67                          0.5625656              15.3082
      -------------------------------------------------------------
                  HL-Gap            0.1227656 Eh            3.3406 eV
             Fermi-level           -0.4890455 Eh          -13.3076 eV

 SCC (total)                   0 d,  0 h,  0 min,  0.037 sec
 SCC setup                      ...        0 min,  0.000 sec (  0.795%)
 Dispersion                     ...        0 min,  0.000 sec (  0.878%)
 classical contributions        ...        0 min,  0.000 sec (  0.241%)
 integral evaluation            ...        0 min,  0.005 sec ( 13.543%)
 iterations                     ...        0 min,  0.017 sec ( 47.481%)
 molecular gradient             ...        0 min,  0.013 sec ( 36.588%)
 printout                       ...        0 min,  0.000 sec (  0.441%)

         :::::::::::::::::::::::::::::::::::::::::::::::::::::
         ::                     SUMMARY                     ::
         :::::::::::::::::::::::::::::::::::::::::::::::::::::
         :: total energy             -29.094596037909 Eh    ::
         :: gradient norm              7.256056046777 Eh/a0 ::
         :: HOMO-LUMO gap              3.340621582928 eV    ::
         ::.................................................::
         :: SCC energy               -42.779077977399 Eh    ::
         :: -> isotropic ES            0.141123876439 Eh    ::
         :: -> anisotropic ES         -0.005230418907 Eh    ::
         :: -> anisotropic XC          0.011966818540 Eh    ::
         :: -> dispersion             -0.022657731803 Eh    ::
         :: repulsion energy           0.531105277918 Eh    ::
         :: add. restraining          13.153262502563 Eh    ::
         :: total charge               1.000000000002 e     ::
         :::::::::::::::::::::::::::::::::::::::::::::::::::::

      ----------------------------------------------------------- 
     |                   =====================                   |
     |                        A N C O P T                        |
     |                   =====================                   |
     |               Approximate Normal Coordinate               |
     |                Rational Function Optimizer                |
      ----------------------------------------------------------- 

          ...................................................
          :                      SETUP                      :
          :.................................................:
          :   optimization level             loose          :
          :   max. optcycles                   200          :
          :   ANC micro-cycles                  20          :
          :   degrees of freedom                69          :
          :.................................................:
          :   RF solver                   davidson          :
          :   write xtbopt.log                true          :
          :   linear?                        false          :
          :   energy convergence         0.5000000E-04 Eh   :
          :   grad. convergence          0.4000000E-02 Eh/α :
          :   maxmium RF displ.          1.0000000          :
          :   Hlow (freq-cutoff)         0.1000000E-01      :
          :   Hmax (freq-cutoff)         5.0000000          :
          :   S6 in model hess.         20.0000000          :
          ...................................................

generating ANC from model Hessian ...
Using Lindh-Hessian (1995)
 Shifting diagonal of input Hessian by    2.2126591712215489     
 Lowest  eigenvalues of input Hessian
    0.010000    0.799181    0.000000    0.000000    0.000000    0.000000
    0.000000    0.000000    2.216115    2.218240    2.219652    2.222102
    2.222458    2.224931    2.225237    2.227150    2.234424    2.239526
 Highest eigenvalues
    4.265258    4.340267    4.487157    4.603656    4.747731    5.758402


........................................................................
.............................. CYCLE    1 ..............................
........................................................................

 iter      E             dE          RMSdq      gap      omega  full diag
   1    -42.7790780 -0.427791E+02  0.626E-05    3.34       0.0  T
   2    -42.7790780 -0.124416E-10  0.329E-05    3.34     607.4  T
   3    -42.7790780  0.127898E-12  0.193E-05    3.34    1034.2  T
     SCC iter.                  ...        0 min,  0.005 sec
     gradient                   ...        0 min,  0.014 sec
 * total energy  :   -29.0945960 Eh     change       -0.6650680E-10 Eh
   gradient norm :     7.2560558 Eh/α   predicted     0.0000000E+00 (-100.00%)
   displ. norm   :     0.7207499 α      lambda       -0.5219273E+01
   maximum displ.:     0.6768001 α      in ANC's #69, #61, #60, ...

........................................................................
.............................. CYCLE    2 ..............................
........................................................................

 iter      E             dE          RMSdq      gap      omega  full diag
   1    -42.6564329 -0.426564E+02  0.133E+00    2.54       0.0  T
   2    -42.6663656 -0.993270E-02  0.863E-01    2.76       1.0  T
   3    -42.6680043 -0.163868E-02  0.451E-01    2.58       1.0  T
   4    -42.6670166  0.987750E-03  0.438E-01    2.77       1.0  T
   5    -42.6711035 -0.408699E-02  0.587E-02    2.69       1.0  T
   6    -42.6711182 -0.146376E-04  0.373E-02    2.69       1.0  T
   7    -42.6711307 -0.125329E-04  0.121E-02    2.69       1.6  T
   8    -42.6711333 -0.254632E-05  0.457E-03    2.69       4.4  T
   9    -42.6711336 -0.373379E-06  0.158E-03    2.69      12.7  T
  10    -42.6711336  0.548930E-09  0.945E-04    2.69      21.2  T
  11    -42.6711336 -0.114569E-07  0.183E-04    2.69     109.4  T
     SCC iter.                  ...        0 min,  0.015 sec
     gradient                   ...        0 min,  0.014 sec
 * total energy  :   -33.5674744 Eh     change       -0.4472878E+01 Eh
   gradient norm :     5.1150868 Eh/α   predicted    -0.3967986E+01 ( -11.29%)
   displ. norm   :     0.7744505 α      lambda       -0.3930341E+01
   maximum displ.:     0.6823605 α      in ANC's #69, #60, #48, ...

........................................................................
.............................. CYCLE    3 ..............................
........................................................................

 iter      E             dE          RMSdq      gap      omega  full diag
   1    -42.4024995 -0.424025E+02  0.160E+00    1.63       0.0  T
   2    -42.3183363  0.841632E-01  0.224E+00    2.98       1.0  T
   3    -42.4729027 -0.154566E+00  0.782E-01    2.23       1.0  T
   4    -42.4675393  0.536340E-02  0.655E-01    2.31       1.0  T
   5    -42.4747256 -0.718634E-02  0.178E-01    2.12       1.0  T
   6    -42.4755051 -0.779468E-03  0.723E-02    2.18       1.0  T
   7    -42.4755862 -0.810808E-04  0.370E-02    2.17       1.0  T
   8    -42.4755901 -0.389797E-05  0.268E-02    2.16       1.0  T
   9    -42.4756012 -0.110889E-04  0.811E-03    2.17       2.5  T
  10    -42.4756029 -0.169255E-05  0.317E-03    2.17       6.3  T
  11    -42.4756030 -0.132639E-06  0.108E-03    2.17      18.6  T
  12    -42.4756030 -0.146283E-07  0.402E-04    2.17      49.7  T
  13    -42.4756030 -0.307850E-08  0.154E-04    2.17     130.1  T
     SCC iter.                  ...        0 min,  0.017 sec
     gradient                   ...        0 min,  0.014 sec
 * total energy  :   -36.6731741 Eh     change       -0.3105700E+01 Eh
   gradient norm :     3.2869673 Eh/α   predicted    -0.3143830E+01 (   1.23%)
   displ. norm   :     0.8225881 α      lambda       -0.2696527E+01
   maximum displ.:     0.4974222 α      in ANC's #69, #46, #49, ...

........................................................................
.............................. CYCLE    4 ..............................
........................................................................

 iter      E             dE          RMSdq      gap      omega  full diag
   1    -42.2013457 -0.422013E+02  0.173E+00    1.42       0.0  T
   2    -42.0928995  0.108446E+00  0.256E+00    1.91       1.0  T
   3    -42.3009948 -0.208095E+00  0.110E+00    2.42       1.0  T
   4    -42.2966118  0.438296E-02  0.873E-01    2.21       1.0  T
   5    -42.2923196  0.429219E-02  0.886E-01    2.46       1.0  T
   6    -42.3108206 -0.185010E-01  0.157E-01    2.32       1.0  T
   7    -42.3111770 -0.356390E-03  0.115E-01    2.33       1.0  T
   8    -42.3114601 -0.283050E-03  0.475E-02    2.33       1.0  T
   9    -42.3114671 -0.703625E-05  0.168E-02    2.34       1.2  T
  10    -42.3114703 -0.317432E-05  0.599E-03    2.33       3.3  T
  11    -42.3114709 -0.576638E-06  0.265E-03    2.33       7.6  T
  12    -42.3114709 -0.633300E-07  0.105E-03    2.33      19.1  T
  13    -42.3114709 -0.172903E-07  0.404E-04    2.33      49.5  T
  14    -42.3114710 -0.985935E-09  0.169E-04    2.33     118.3  T
     SCC iter.                  ...        0 min,  0.019 sec
     gradient                   ...        0 min,  0.013 sec
 * total energy  :   -38.9729554 Eh     change       -0.2299781E+01 Eh
   gradient norm :     2.6318035 Eh/α   predicted    -0.2260715E+01 (  -1.70%)
   displ. norm   :     0.8738407 α      lambda       -0.2271163E+01
   maximum displ.:     0.5521622 α      in ANC's #69, #61, #60, ...

........................................................................
.............................. CYCLE    5 ..............................
........................................................................

 iter      E             dE          RMSdq      gap      omega  full diag
   1    -42.0708102 -0.420708E+02  0.176E+00    1.02       0.0  T
   2    -41.5155177  0.555292E+00  0.386E+00    0.37       1.0  T
   3    -42.0820335 -0.566516E+00  0.153E+00    1.76       1.0  T
   4    -42.1294288 -0.473953E-01  0.867E-01    1.26       1.0  T
   5    -42.1390568 -0.962796E-02  0.756E-01    1.46       1.0  T
   6    -42.1523026 -0.132459E-01  0.309E-01    1.49       1.0  T
   7    -42.1546796 -0.237701E-02  0.175E-01    1.49       1.0  T
   8    -42.1554404 -0.760774E-03  0.626E-02    1.48       1.0  T
   9    -42.1555647 -0.124238E-03  0.244E-02    1.49       1.0  T
  10    -42.1555691 -0.448182E-05  0.156E-02    1.49       1.3  T
  11    -42.1555736 -0.450159E-05  0.558E-03    1.49       3.6  T
  12    -42.1555744 -0.747877E-06  0.206E-03    1.49       9.7  T
  13    -42.1555744 -0.317726E-07  0.824E-04    1.49      24.3  T
  14    -42.1555744 -0.144264E-07  0.319E-04    1.49      62.6  T
     SCC iter.                  ...        0 min,  0.019 sec
     gradient                   ...        0 min,  0.013 sec
 * total energy  :   -40.7252065 Eh     change       -0.1752251E+01 Eh
   gradient norm :     1.5349066 Eh/α   predicted    -0.2002710E+01 (  14.29%)
   displ. norm   :     0.6673100 α      lambda       -0.1001914E+01
   maximum displ.:     0.4966029 α      in ANC's #69, #60, #66, ...

........................................................................
.............................. CYCLE    6 ..............................
........................................................................

 iter      E             dE          RMSdq      gap      omega  full diag
   1    -41.9688889 -0.419689E+02  0.203E+00    0.14       0.0  T
   2    -41.5009775  0.467911E+00  0.349E+00    0.09       1.0  T
   3    -41.9048818 -0.403904E+00  0.191E+00    0.37       1.0  T
   4    -42.0145027 -0.109621E+00  0.128E+00    0.33       1.0  T
   5    -42.0376105 -0.231078E-01  0.832E-01    0.36       1.0  T
   6    -42.0551503 -0.175398E-01  0.445E-01    0.39       1.0  T
   7    -42.0602989 -0.514860E-02  0.181E-01    0.42       1.0  T
   8    -42.0614052 -0.110632E-02  0.398E-02    0.41       1.0  T
   9    -42.0614276 -0.223587E-04  0.174E-02    0.42       1.1  T
  10    -42.0614311 -0.353101E-05  0.811E-03    0.41       2.5  T
  11    -42.0614320 -0.865096E-06  0.532E-03    0.41       3.8  T
  12    -42.0614327 -0.696121E-06  0.198E-03    0.41      10.1  T
  13    -42.0614327 -0.617905E-07  0.128E-03    0.41      15.7  T
  14    -42.0614328 -0.343905E-07  0.560E-04    0.41      35.7  T
  15    -42.0614328 -0.117925E-07  0.124E-04    0.41     161.0  T
     SCC iter.                  ...        0 min,  0.020 sec
     gradient                   ...        0 min,  0.013 sec
 * total energy  :   -41.3834563 Eh     change       -0.6582497E+00 Eh
   gradient norm :     0.5629846 Eh/α   predicted    -0.7240353E+00 (   9.99%)
   displ. norm   :     0.3455853 α      lambda       -0.1721167E+00
   maximum displ.:     0.2181491 α      in ANC's #69, #1, #66, ...

........................................................................
.............................. CYCLE    7 ..............................
........................................................................

 iter      E             dE          RMSdq      gap      omega  full diag
   1    -42.0186821 -0.420187E+02  0.796E-01    0.23       0.0  T
   2    -41.8463068  0.172375E+00  0.195E+00    0.25       1.0  T
   3    -42.0127513 -0.166444E+00  0.654E-01    0.21       1.0  T
   4    -42.0262840 -0.135327E-01  0.353E-01    0.29       1.0  T
   5    -42.0281842 -0.190019E-02  0.225E-01    0.28       1.0  T
   6    -42.0286118 -0.427659E-03  0.183E-01    0.30       1.0  T
   7    -42.0297161 -0.110432E-02  0.691E-02    0.29       1.0  T
   8    -42.0298648 -0.148648E-03  0.323E-02    0.29       1.0  T
   9    -42.0298914 -0.266362E-04  0.868E-03    0.29       2.3  T
  10    -42.0298926 -0.118523E-05  0.293E-03    0.29       6.8  T
  11    -42.0298926 -0.145941E-07  0.162E-03    0.29      12.3  T
  12    -42.0298927 -0.310145E-07  0.982E-04    0.29      20.4  T
  13    -42.0298927 -0.219013E-07  0.369E-04    0.29      54.2  T
     SCC iter.                  ...        0 min,  0.017 sec
     gradient                   ...        0 min,  0.013 sec
 * total energy  :   -41.4947134 Eh     change       -0.1112571E+00 Eh
   gradient norm :     0.2866508 Eh/α   predicted    -0.9633648E-01 ( -13.41%)
   displ. norm   :     0.5701120 α      lambda       -0.6438325E-01
   maximum displ.:     0.5384451 α      in ANC's #1, #69, #44, ...

........................................................................
.............................. CYCLE    8 ..............................
........................................................................

 iter      E             dE          RMSdq      gap      omega  full diag
   1    -41.9498765 -0.419499E+02  0.138E+00    0.21       0.0  T
   2    -41.0561605  0.893716E+00  0.419E+00    0.59       1.0  T
   3    -42.0043947 -0.948234E+00  0.784E-01    0.56       1.0  T
   4    -41.9895236  0.148711E-01  0.975E-01    0.29       1.0  T
   5    -42.0178473 -0.283237E-01  0.303E-01    0.51       1.0  T
   6    -42.0179581 -0.110786E-03  0.253E-01    0.48       1.0  T
   7    -42.0192717 -0.131359E-02  0.861E-02    0.47       1.0  T
   8    -42.0195523 -0.280641E-03  0.425E-02    0.50       1.0  T
   9    -42.0195807 -0.284303E-04  0.210E-02    0.50       1.0  T
  10    -42.0195876 -0.683133E-05  0.806E-03    0.49       2.5  T
  11    -42.0195885 -0.915705E-06  0.420E-03    0.49       4.8  T
  12    -42.0195889 -0.453903E-06  0.236E-03    0.49       8.5  T
  13    -42.0195891 -0.145261E-06  0.627E-04    0.49      31.9  T
  14    -42.0195891 -0.417582E-08  0.194E-04    0.49     102.9  T
     SCC iter.                  ...        0 min,  0.019 sec
     gradient                   ...        0 min,  0.013 sec
 * total energy  :   -41.5418636 Eh     change       -0.4715021E-01 Eh
   gradient norm :     0.2308129 Eh/α   predicted    -0.4265488E-01 (  -9.53%)
   displ. norm   :     0.4564395 α      lambda       -0.3112965E-01
   maximum displ.:     0.4431849 α      in ANC's #1, #61, #52, ...

........................................................................
.............................. CYCLE    9 ..............................
........................................................................

 iter      E             dE          RMSdq      gap      omega  full diag
   1    -41.9805497 -0.419805E+02  0.924E-01    0.32       0.0  T
   2    -41.5777112  0.402838E+00  0.281E+00    0.66       1.0  T
   3    -42.0109098 -0.433199E+00  0.416E-01    0.55       1.0  T
   4    -42.0107404  0.169444E-03  0.273E-01    0.58       1.0  T
   5    -42.0031817  0.755863E-02  0.519E-01    0.51       1.0  T
   6    -42.0109981 -0.781639E-02  0.201E-01    0.60       1.0  T
   7    -42.0120435 -0.104534E-02  0.891E-02    0.55       1.0  T
   8    -42.0122814 -0.237936E-03  0.352E-02    0.57       1.0  T
   9    -42.0122990 -0.175754E-04  0.190E-02    0.57       1.1  T
  10    -42.0123067 -0.775086E-05  0.681E-03    0.56       2.9  T
  11    -42.0123077 -0.981797E-06  0.265E-03    0.56       7.6  T
  12    -42.0123079 -0.139366E-06  0.130E-03    0.56      15.4  T
  13    -42.0123079 -0.198174E-07  0.762E-04    0.56      26.2  T
  14    -42.0123079 -0.613640E-08  0.389E-04    0.56      51.4  T
     SCC iter.                  ...        0 min,  0.019 sec
     gradient                   ...        0 min,  0.013 sec
 * total energy  :   -41.5599438 Eh     change       -0.1808024E-01 Eh
   gradient norm :     0.2418890 Eh/α   predicted    -0.1880774E-01 (   4.02%)
   displ. norm   :     0.4380931 α      lambda       -0.6780553E-01
   maximum displ.:     0.2160376 α      in ANC's #1, #61, #52, ...

........................................................................
.............................. CYCLE   10 ..............................
........................................................................

 iter      E             dE          RMSdq      gap      omega  full diag
   1    -42.0030116 -0.420030E+02  0.115E+00    0.29       0.0  T
   2    -41.6522469  0.350765E+00  0.273E+00    0.62       1.0  T
   3    -42.0215590 -0.369312E+00  0.822E-01    0.32       1.0  T
   4    -42.0247467 -0.318768E-02  0.820E-01    0.71       1.0  T
   5    -42.0326018 -0.785512E-02  0.650E-01    0.48       1.0  T
   6    -42.0449470 -0.123452E-01  0.275E-01    0.59       1.0  T
   7    -42.0479336 -0.298660E-02  0.761E-02    0.50       1.0  T
   8    -42.0480418 -0.108192E-03  0.325E-02    0.50       1.0  T
   9    -42.0480714 -0.295753E-04  0.166E-02    0.50       1.2  T
  10    -42.0480749 -0.347105E-05  0.949E-03    0.50       2.1  T
  11    -42.0480767 -0.179288E-05  0.391E-03    0.50       5.1  T
  12    -42.0480772 -0.522936E-06  0.139E-03    0.50      14.4  T
  13    -42.0480772 -0.455182E-07  0.693E-04    0.50      28.8  T
  14    -42.0480772 -0.919866E-08  0.307E-04    0.50      65.1  T
     SCC iter.                  ...        0 min,  0.019 sec
     gradient                   ...        0 min,  0.013 sec
 * total energy  :   -41.5698197 Eh     change       -0.9875907E-02 Eh
   gradient norm :     0.2326280 Eh/α   predicted    -0.4040961E-01 ( 309.17%)
   displ. norm   :     0.2573930 α      lambda       -0.2505253E-01
   maximum displ.:     0.2265871 α      in ANC's #1, #61, #2, ...

........................................................................
.............................. CYCLE   11 ..............................
........................................................................

 iter      E             dE          RMSdq      gap      omega  full diag
   1    -42.0354091 -0.420354E+02  0.471E-01    0.62       0.0  T
   2    -42.0181256  0.172835E-01  0.694E-01    0.34       1.0  T
   3    -42.0298317 -0.117061E-01  0.458E-01    0.69       1.0  T
   4    -42.0332810 -0.344930E-02  0.434E-01    0.42       1.0  T
   5    -42.0372013 -0.392031E-02  0.277E-01    0.54       1.0  T
   6    -42.0398733 -0.267204E-02  0.681E-02    0.52       1.0  T
   7    -42.0400027 -0.129434E-03  0.272E-02    0.54       1.0  T
   8    -42.0400197 -0.169210E-04  0.123E-02    0.54       1.6  T
   9    -42.0400215 -0.181971E-05  0.774E-03    0.53       2.6  T
  10    -42.0400226 -0.113810E-05  0.407E-03    0.53       4.9  T
  11    -42.0400227 -0.667901E-07  0.306E-03    0.53       6.5  T
  12    -42.0400230 -0.282567E-06  0.894E-04    0.53      22.4  T
  13    -42.0400230 -0.269491E-07  0.274E-04    0.53      72.9  T
     SCC iter.                  ...        0 min,  0.018 sec
     gradient                   ...        0 min,  0.013 sec
 * total energy  :   -41.5865646 Eh     change       -0.1674486E-01 Eh
   gradient norm :     0.1322555 Eh/α   predicted    -0.1335644E-01 ( -20.24%)
   displ. norm   :     0.2402191 α      lambda       -0.1116597E-01
   maximum displ.:     0.2236308 α      in ANC's #1, #41, #59, ...

........................................................................
.............................. CYCLE   12 ..............................
........................................................................

 iter      E             dE          RMSdq      gap      omega  full diag
   1    -42.0397261 -0.420397E+02  0.318E-01    0.59       0.0  T
   2    -42.0382300  0.149613E-02  0.287E-01    0.50       1.0  T
   3    -42.0380716  0.158378E-03  0.256E-01    0.63       1.0  T
   4    -42.0379754  0.961914E-04  0.252E-01    0.49       1.0  T
   5    -42.0391577 -0.118228E-02  0.201E-01    0.61       1.0  T
   6    -42.0406549 -0.149722E-02  0.512E-02    0.55       1.0  T
   7    -42.0407196 -0.646475E-04  0.256E-02    0.57       1.0  T
   8    -42.0407386 -0.190341E-04  0.973E-03    0.56       2.1  T
   9    -42.0407392 -0.599369E-06  0.764E-03    0.56       2.6  T
  10    -42.0407408 -0.158058E-05  0.261E-03    0.56       7.7  T
  11    -42.0407409 -0.118539E-06  0.131E-03    0.56      15.3  T
  12    -42.0407409 -0.296470E-07  0.484E-04    0.56      41.4  T
  13    -42.0407409 -0.686163E-08  0.163E-04    0.56     122.7  T
     SCC iter.                  ...        0 min,  0.017 sec
     gradient                   ...        0 min,  0.013 sec
 * total energy  :   -41.5947757 Eh     change       -0.8211141E-02 Eh
   gradient norm :     0.1298202 Eh/α   predicted    -0.5907017E-02 ( -28.06%)
   displ. norm   :     0.2349775 α      lambda       -0.1558650E-01
   maximum displ.:     0.1716613 α      in ANC's #1, #41, #59, ...

........................................................................
.............................. CYCLE   13 ..............................
........................................................................

 iter      E             dE          RMSdq      gap      omega  full diag
   1    -42.0537484 -0.420537E+02  0.345E-01    0.65       0.0  T
   2    -42.0391467  0.146017E-01  0.626E-01    0.37       1.0  T
   3    -42.0512067 -0.120599E-01  0.364E-01    0.68       1.0  T
   4    -42.0549650 -0.375835E-02  0.209E-01    0.55       1.0  T
   5    -42.0541754  0.789663E-03  0.235E-01    0.56       1.0  T
   6    -42.0562611 -0.208570E-02  0.348E-02    0.57       1.0  T
   7    -42.0562902 -0.291397E-04  0.201E-02    0.58       1.0  T
   8    -42.0562984 -0.820826E-05  0.761E-03    0.58       2.6  T
   9    -42.0562996 -0.118629E-05  0.439E-03    0.58       4.6  T
  10    -42.0563000 -0.390412E-06  0.208E-03    0.58       9.6  T
  11    -42.0563000 -0.207137E-07  0.139E-03    0.58      14.4  T
  12    -42.0563001 -0.323184E-07  0.596E-04    0.58      33.6  T
  13    -42.0563001 -0.102520E-07  0.201E-04    0.58      99.6  T
     SCC iter.                  ...        0 min,  0.017 sec
     gradient                   ...        0 min,  0.013 sec
 * total energy  :   -41.6074414 Eh     change       -0.1266563E-01 Eh
   gradient norm :     0.1329546 Eh/α   predicted    -0.8223597E-02 ( -35.07%)
   displ. norm   :     0.3585778 α      lambda       -0.3035415E-01
   maximum displ.:     0.1252934 α      in ANC's #1, #41, #59, ...

........................................................................
.............................. CYCLE   14 ..............................
........................................................................

 iter      E             dE          RMSdq      gap      omega  full diag
   1    -42.0909742 -0.420910E+02  0.581E-01    0.68       0.0  T
   2    -42.0387098  0.522644E-01  0.114E+00    0.31       1.0  T
   3    -42.0832996 -0.445898E-01  0.628E-01    0.70       1.0  T
   4    -42.0958784 -0.125788E-01  0.241E-01    0.57       1.0  T
   5    -42.0919882  0.389016E-02  0.392E-01    0.54       1.0  T
   6    -42.0974436 -0.545544E-02  0.566E-02    0.55       1.0  T
   7    -42.0975199 -0.762697E-04  0.299E-02    0.56       1.0  T
   8    -42.0975362 -0.163097E-04  0.154E-02    0.56       1.3  T
   9    -42.0975411 -0.492116E-05  0.535E-03    0.56       3.7  T
  10    -42.0975418 -0.674603E-06  0.190E-03    0.56      10.5  T
  11    -42.0975419 -0.350552E-07  0.900E-04    0.56      22.2  T
  12    -42.0975419  0.937504E-09  0.589E-04    0.56      33.9  T
     SCC iter.                  ...        0 min,  0.016 sec
     gradient                   ...        0 min,  0.013 sec
 * total energy  :   -41.6292284 Eh     change       -0.2178704E-01 Eh
   gradient norm :     0.1402380 Eh/α   predicted    -0.1712876E-01 ( -21.38%)
   displ. norm   :     0.3835810 α      lambda       -0.2234328E-01
   maximum displ.:     0.1546122 α      in ANC's #1, #6, #41, ...

........................................................................
.............................. CYCLE   15 ..............................
........................................................................

 iter      E             dE          RMSdq      gap      omega  full diag
   1    -42.1222880 -0.421223E+02  0.496E-01    0.40       0.0  T
   2    -42.1191371  0.315092E-02  0.387E-01    0.51       1.0  T
   3    -42.0980596  0.210775E-01  0.707E-01    0.31       1.0  T
   4    -42.1195803 -0.215208E-01  0.351E-01    0.49       1.0  T
   5    -42.1220499 -0.246954E-02  0.196E-01    0.44       1.0  T
   6    -42.1231050 -0.105517E-02  0.992E-02    0.46       1.0  T
   7    -42.1234242 -0.319158E-03  0.347E-02    0.44       1.0  T
   8    -42.1234575 -0.333064E-04  0.159E-02    0.44       1.3  T
   9    -42.1234625 -0.496213E-05  0.614E-03    0.44       3.3  T
  10    -42.1234631 -0.618638E-06  0.346E-03    0.44       5.8  T
  11    -42.1234634 -0.319578E-06  0.126E-03    0.44      15.9  T
  12    -42.1234634 -0.425283E-07  0.634E-04    0.44      31.5  T
  13    -42.1234635 -0.489222E-08  0.290E-04    0.44      68.9  T
     SCC iter.                  ...        0 min,  0.017 sec
     gradient                   ...        0 min,  0.013 sec
 * total energy  :   -41.6471448 Eh     change       -0.1791639E-01 Eh
   gradient norm :     0.1740866 Eh/α   predicted    -0.1281727E-01 ( -28.46%)
   displ. norm   :     0.4962689 α      lambda       -0.2974631E-01
   maximum displ.:     0.1441226 α      in ANC's #6, #41, #1, ...

........................................................................
.............................. CYCLE   16 ..............................
........................................................................

 iter      E             dE          RMSdq      gap      omega  full diag
   1    -42.1473177 -0.421473E+02  0.642E-01    0.21       0.0  T
   2    -42.1034410  0.438768E-01  0.109E+00    0.51       1.0  T
   3    -42.1510065 -0.475656E-01  0.350E-01    0.19       1.0  T
   4    -42.1492122  0.179433E-02  0.383E-01    0.24       1.0  T
   5    -42.1526511 -0.343890E-02  0.151E-01    0.23       1.0  T
   6    -42.1531789 -0.527826E-03  0.920E-02    0.22       1.0  T
   7    -42.1533635 -0.184562E-03  0.516E-02    0.22       1.0  T
   8    -42.1534401 -0.765443E-04  0.209E-02    0.22       1.0  T
   9    -42.1534496 -0.956785E-05  0.957E-03    0.22       2.1  T
  10    -42.1534513 -0.169619E-05  0.525E-03    0.22       3.8  T
  11    -42.1534522 -0.883802E-06  0.156E-03    0.22      12.8  T
  12    -42.1534522 -0.370283E-07  0.808E-04    0.22      24.8  T
  13    -42.1534522 -0.118175E-07  0.244E-04    0.22      82.1  T
     SCC iter.                  ...        0 min,  0.017 sec
     gradient                   ...        0 min,  0.013 sec
 * total energy  :   -41.6723846 Eh     change       -0.2523976E-01 Eh
   gradient norm :     0.2131011 Eh/α   predicted    -0.1853616E-01 ( -26.56%)
   displ. norm   :     0.6349927 α      lambda       -0.4378238E-01
   maximum displ.:     0.1917148 α      in ANC's #41, #6, #34, ...

........................................................................
.............................. CYCLE   17 ..............................
........................................................................

 iter      E             dE          RMSdq      gap      omega  full diag
   1    -42.1637062 -0.421637E+02  0.876E-01    0.44       0.0  T
   2    -42.0609996  0.102707E+00  0.180E+00    0.41       1.0  T
   3    -42.1818610 -0.120861E+00  0.626E-01    0.14       1.0  T
   4    -42.1626849  0.191761E-01  0.823E-01    0.04       1.0  T
   5    -42.1853693 -0.226844E-01  0.311E-01    0.21       1.0  T
   6    -42.1877556 -0.238630E-02  0.175E-01    0.22       1.0  T
   7    -42.1888253 -0.106974E-02  0.644E-02    0.15       1.0  T
   8    -42.1889051 -0.797972E-04  0.397E-02    0.17       1.0  T
   9    -42.1889383 -0.331771E-04  0.244E-02    0.18       1.0  T
  10    -42.1889560 -0.176571E-04  0.436E-03    0.18       4.6  T
  11    -42.1889562 -0.239688E-06  0.216E-03    0.18       9.3  T
  12    -42.1889563 -0.755893E-07  0.107E-03    0.18      18.8  T
  13    -42.1889563 -0.296141E-07  0.371E-04    0.18      54.0  T
  14    -42.1889563 -0.306480E-08  0.899E-05    0.18     222.5  T
     SCC iter.                  ...        0 min,  0.018 sec
     gradient                   ...        0 min,  0.013 sec
 * total energy  :   -41.7066868 Eh     change       -0.3430219E-01 Eh
   gradient norm :     0.2146923 Eh/α   predicted    -0.3071803E-01 ( -10.45%)
   displ. norm   :     0.3495193 α      lambda       -0.3711528E-01
   maximum displ.:     0.1115786 α      in ANC's #41, #63, #67, ...

........................................................................
.............................. CYCLE   18 ..............................
........................................................................

 iter      E             dE          RMSdq      gap      omega  full diag
   1    -42.2081550 -0.422082E+02  0.821E-01    0.49       0.0  T
   2    -42.1635651  0.445900E-01  0.137E+00    0.04       1.0  T
   3    -42.2274157 -0.638506E-01  0.327E-01    0.38       1.0  T
   4    -42.2193330  0.808267E-02  0.496E-01    0.17       1.0  T
   5    -42.2271804 -0.784735E-02  0.203E-01    0.39       1.0  T
   6    -42.2286235 -0.144314E-02  0.118E-01    0.36       1.0  T
   7    -42.2290713 -0.447759E-03  0.255E-02    0.34       1.0  T
   8    -42.2290784 -0.713245E-05  0.199E-02    0.34       1.0  T
   9    -42.2290843 -0.591333E-05  0.108E-02    0.34       1.8  T
  10    -42.2290874 -0.311231E-05  0.251E-03    0.34       8.0  T
  11    -42.2290875 -0.110663E-06  0.138E-03    0.34      14.5  T
  12    -42.2290876 -0.424067E-07  0.451E-04    0.34      44.3  T
  13    -42.2290876 -0.121734E-08  0.216E-04    0.34      92.6  T
     SCC iter.                  ...        0 min,  0.017 sec
     gradient                   ...        0 min,  0.013 sec
 * total energy  :   -41.7281410 Eh     change       -0.2145426E-01 Eh
   gradient norm :     0.2073214 Eh/α   predicted    -0.2082586E-01 (  -2.93%)
   displ. norm   :     0.3643337 α      lambda       -0.4336576E-01
   maximum displ.:     0.1408944 α      in ANC's #1, #48, #46, ...

........................................................................
.............................. CYCLE   19 ..............................
........................................................................

 iter      E             dE          RMSdq      gap      omega  full diag
   1    -42.2315294 -0.422315E+02  0.641E-01    0.24       0.0  T
   2    -42.2094935  0.220359E-01  0.829E-01    0.61       1.0  T
   3    -42.2307079 -0.212144E-01  0.408E-01    0.21       1.0  T
   4    -42.2353357 -0.462780E-02  0.300E-01    0.40       1.0  T
   5    -42.2367113 -0.137569E-02  0.194E-01    0.37       1.0  T
   6    -42.2374104 -0.699064E-03  0.110E-01    0.32       1.0  T
   7    -42.2378271 -0.416674E-03  0.200E-02    0.34       1.0  T
   8    -42.2378319 -0.485959E-05  0.114E-02    0.34       1.8  T
   9    -42.2378334 -0.144022E-05  0.538E-03    0.34       3.7  T
  10    -42.2378337 -0.344501E-06  0.364E-03    0.34       5.5  T
  11    -42.2378340 -0.312530E-06  0.133E-03    0.34      15.0  T
  12    -42.2378341 -0.337274E-07  0.427E-04    0.34      46.8  T
  13    -42.2378341 -0.216710E-08  0.153E-04    0.34     131.0  T
     SCC iter.                  ...        0 min,  0.017 sec
     gradient                   ...        0 min,  0.013 sec
 * total energy  :   -41.7551264 Eh     change       -0.2698542E-01 Eh
   gradient norm :     0.1120944 Eh/α   predicted    -0.2456116E-01 (  -8.98%)
   displ. norm   :     0.1624597 α      lambda       -0.9166877E-02
   maximum displ.:     0.0821479 α      in ANC's #1, #48, #35, ...

........................................................................
.............................. CYCLE   20 ..............................
........................................................................

 iter      E             dE          RMSdq      gap      omega  full diag
   1    -42.2464409 -0.422464E+02  0.449E-01    0.23       0.0  T
   2    -42.2237211  0.227198E-01  0.787E-01    0.63       1.0  T
   3    -42.2502967 -0.265756E-01  0.208E-01    0.30       1.0  T
   4    -42.2509501 -0.653424E-03  0.175E-01    0.34       1.0  T
   5    -42.2514413 -0.491139E-03  0.103E-01    0.38       1.0  T
   6    -42.2515924 -0.151117E-03  0.633E-02    0.32       1.0  T
   7    -42.2517362 -0.143842E-03  0.144E-02    0.34       1.4  T
   8    -42.2517382 -0.201834E-05  0.111E-02    0.34       1.8  T
   9    -42.2517404 -0.216323E-05  0.569E-03    0.34       3.5  T
  10    -42.2517411 -0.677044E-06  0.122E-03    0.34      16.4  T
  11    -42.2517411 -0.187146E-07  0.493E-04    0.34      40.6  T
  12    -42.2517411 -0.204107E-08  0.178E-04    0.34     112.1  T
     SCC iter.                  ...        0 min,  0.016 sec
     gradient                   ...        0 min,  0.013 sec
 * total energy  :   -41.7611406 Eh     change       -0.6014139E-02 Eh
   gradient norm :     0.1079114 Eh/α   predicted    -0.4704550E-02 ( -21.78%)
   displ. norm   :     0.1064595 α      lambda       -0.6704406E-02
   maximum displ.:     0.0458998 α      in ANC's #35, #1, #41, ...
 * RMSD in coord.:     0.9193818 α      energy gain  -0.1266654E+02 Eh

generating ANC from model Hessian ...
Using Lindh-Hessian (1995)
 Shifting diagonal of input Hessian by    1.1141033570009441E-002
 Lowest  eigenvalues of input Hessian
    0.010000    0.000000    0.000000    0.000000    0.000000    0.000000
    0.000000    0.011842    0.012176    0.012555    0.013278    0.014750
    0.015887    0.016418    0.017473    0.020559    0.022499    0.023404
 Highest eigenvalues
    1.954764    1.993786    2.058484    2.208080    2.604923    3.006175


........................................................................
.............................. CYCLE   21 ..............................
........................................................................

 iter      E             dE          RMSdq      gap      omega  full diag
   1    -42.2537159 -0.422537E+02  0.282E-01    0.27       0.0  T
   2    -42.2438467  0.986924E-02  0.470E-01    0.49       1.0  T
   3    -42.2544372 -0.105905E-01  0.177E-01    0.30       1.0  T
   4    -42.2553518 -0.914564E-03  0.895E-02    0.32       1.0  T
   5    -42.2554581 -0.106333E-03  0.519E-02    0.35       1.0  T
   6    -42.2554968 -0.386706E-04  0.315E-02    0.32       1.0  T
   7    -42.2555357 -0.389658E-04  0.613E-03    0.33       3.3  T
   8    -42.2555359 -0.121570E-06  0.517E-03    0.34       3.9  T
   9    -42.2555366 -0.701324E-06  0.128E-03    0.34      15.7  T
  10    -42.2555366 -0.164738E-07  0.513E-04    0.34      39.0  T
  11    -42.2555366 -0.172678E-08  0.216E-04    0.34      92.7  T
     SCC iter.                  ...        0 min,  0.015 sec
     gradient                   ...        0 min,  0.013 sec
 * total energy  :   -41.7660412 Eh     change       -0.4900598E-02 Eh
   gradient norm :     0.1006370 Eh/α   predicted     0.0000000E+00 (-100.00%)
   displ. norm   :     0.5198863 α      lambda       -0.2648492E-01
   maximum displ.:     0.1853223 α      in ANC's #19, #18, #15, ...

........................................................................
.............................. CYCLE   22 ..............................
........................................................................

 iter      E             dE          RMSdq      gap      omega  full diag
   1    -42.2781955 -0.422782E+02  0.508E-01    0.46       0.0  T
   2    -42.2706768  0.751870E-02  0.557E-01    0.44       1.0  T
   3    -42.2776886 -0.701183E-02  0.331E-01    0.41       1.0  T
   4    -42.2764325  0.125618E-02  0.286E-01    0.55       1.0  T
   5    -42.2802950 -0.386250E-02  0.496E-02    0.43       1.0  T
   6    -42.2803906 -0.956102E-04  0.187E-02    0.44       1.1  T
   7    -42.2803961 -0.552846E-05  0.119E-02    0.44       1.7  T
   8    -42.2803979 -0.179991E-05  0.933E-03    0.44       2.1  T
   9    -42.2804005 -0.261708E-05  0.201E-03    0.44       9.9  T
  10    -42.2804006 -0.500640E-07  0.922E-04    0.44      21.7  T
  11    -42.2804006 -0.127242E-07  0.267E-04    0.44      75.0  T
     SCC iter.                  ...        0 min,  0.015 sec
     gradient                   ...        0 min,  0.013 sec
 * total energy  :   -41.7884729 Eh     change       -0.2243168E-01 Eh
   gradient norm :     0.0622274 Eh/α   predicted    -0.1685703E-01 ( -24.85%)
   displ. norm   :     0.8210333 α      lambda       -0.3381056E-01
   maximum displ.:     0.3434791 α      in ANC's #12, #14, #19, ...

........................................................................
.............................. CYCLE   23 ..............................
........................................................................

 iter      E             dE          RMSdq      gap      omega  full diag
   1    -42.3026376 -0.423026E+02  0.101E+00    0.77       0.0  T
   2    -42.2833593  0.192782E-01  0.930E-01    0.66       1.0  T
   3    -42.2960409 -0.126815E-01  0.712E-01    0.65       1.0  T
   4    -42.2997742 -0.373338E-02  0.453E-01    0.82       1.0  T
   5    -42.3085396 -0.876531E-02  0.189E-01    0.64       1.0  T
   6    -42.3102031 -0.166357E-02  0.606E-02    0.70       1.0  T
   7    -42.3103038 -0.100639E-03  0.257E-02    0.71       1.0  T
   8    -42.3103061 -0.230059E-05  0.225E-02    0.71       1.0  T
   9    -42.3103171 -0.110338E-04  0.546E-03    0.71       3.7  T
  10    -42.3103176 -0.467117E-06  0.280E-03    0.71       7.1  T
  11    -42.3103177 -0.168745E-06  0.102E-03    0.71      19.6  T
  12    -42.3103177 -0.109134E-07  0.299E-04    0.71      66.8  T
  13    -42.3103177  0.163269E-09  0.164E-04    0.71     122.1  T
     SCC iter.                  ...        0 min,  0.017 sec
     gradient                   ...        0 min,  0.013 sec
 * total energy  :   -41.8232552 Eh     change       -0.3478238E-01 Eh
   gradient norm :     0.1170938 Eh/α   predicted    -0.2830108E-01 ( -18.63%)
   displ. norm   :     0.9579612 α      lambda       -0.4362069E-01
   maximum displ.:     0.3543612 α      in ANC's #14, #19, #12, ...

........................................................................
.............................. CYCLE   24 ..............................
........................................................................

 iter      E             dE          RMSdq      gap      omega  full diag
   1    -42.3176719 -0.423177E+02  0.122E+00    0.66       0.0  T
   2    -42.2930737  0.245983E-01  0.108E+00    0.67       1.0  T
   3    -42.2972134 -0.413969E-02  0.999E-01    0.73       1.0  T
   4    -42.3138767 -0.166634E-01  0.546E-01    0.65       1.0  T
   5    -42.3158648 -0.198804E-02  0.488E-01    0.75       1.0  T
   6    -42.3272448 -0.113800E-01  0.161E-01    0.70       1.0  T
   7    -42.3279975 -0.752740E-03  0.716E-02    0.71       1.0  T
   8    -42.3280275 -0.299421E-04  0.493E-02    0.71       1.0  T
   9    -42.3280887 -0.612414E-04  0.101E-02    0.71       2.0  T
  10    -42.3280896 -0.903805E-06  0.549E-03    0.71       3.6  T
  11    -42.3280904 -0.794781E-06  0.254E-03    0.71       7.9  T
  12    -42.3280905 -0.997090E-07  0.595E-04    0.71      33.6  T
  13    -42.3280905 -0.435143E-08  0.254E-04    0.71      78.7  T
     SCC iter.                  ...        0 min,  0.017 sec
     gradient                   ...        0 min,  0.013 sec
 * total energy  :   -41.8528575 Eh     change       -0.2960222E-01 Eh
   gradient norm :     0.2176809 Eh/α   predicted    -0.4182549E-01 (  41.29%)
   displ. norm   :     0.5123421 α      lambda       -0.1349516E-01
   maximum displ.:     0.2781052 α      in ANC's #10, #12, #18, ...

........................................................................
.............................. CYCLE   25 ..............................
........................................................................

 iter      E             dE          RMSdq      gap      omega  full diag
   1    -42.3279544 -0.423280E+02  0.495E-01    0.46       0.0  T
   2    -42.3162752  0.116792E-01  0.626E-01    0.50       1.0  T
   3    -42.3287362 -0.124610E-01  0.285E-01    0.54       1.0  T
   4    -42.3261305  0.260571E-02  0.381E-01    0.47       1.0  T
   5    -42.3311902 -0.505971E-02  0.110E-01    0.54       1.0  T
   6    -42.3315453 -0.355081E-03  0.448E-02    0.52       1.0  T
   7    -42.3316048 -0.594609E-04  0.261E-02    0.52       1.0  T
   8    -42.3316200 -0.152242E-04  0.133E-02    0.52       1.5  T
   9    -42.3316257 -0.568708E-05  0.461E-03    0.52       4.3  T
  10    -42.3316261 -0.443228E-06  0.189E-03    0.52      10.6  T
  11    -42.3316262 -0.773624E-07  0.647E-04    0.52      30.9  T
  12    -42.3316262 -0.785534E-08  0.262E-04    0.52      76.3  T
     SCC iter.                  ...        0 min,  0.016 sec
     gradient                   ...        0 min,  0.013 sec
 * total energy  :   -41.8616701 Eh     change       -0.8812665E-02 Eh
   gradient norm :     0.1882524 Eh/α   predicted    -0.8518795E-02 (  -3.33%)
   displ. norm   :     0.5077262 α      lambda       -0.1572016E-01
   maximum displ.:     0.2808955 α      in ANC's #7, #9, #38, ...

........................................................................
.............................. CYCLE   26 ..............................
........................................................................

 iter      E             dE          RMSdq      gap      omega  full diag
   1    -42.3389868 -0.423390E+02  0.674E-01    0.43       0.0  T
   2    -42.3239974  0.149895E-01  0.753E-01    0.40       1.0  T
   3    -42.3413770 -0.173796E-01  0.402E-01    0.45       1.0  T
   4    -42.3397831  0.159394E-02  0.416E-01    0.37       1.0  T
   5    -42.3459427 -0.615958E-02  0.170E-01    0.44       1.0  T
   6    -42.3468376 -0.894946E-03  0.305E-02    0.42       1.0  T
   7    -42.3468538 -0.161694E-04  0.141E-02    0.42       1.4  T
   8    -42.3468559 -0.210671E-05  0.104E-02    0.42       1.9  T
   9    -42.3468590 -0.313736E-05  0.452E-03    0.42       4.4  T
  10    -42.3468596 -0.591510E-06  0.204E-03    0.42       9.8  T
  11    -42.3468597 -0.653362E-07  0.773E-04    0.42      25.9  T
  12    -42.3468597 -0.101997E-07  0.254E-04    0.42      78.6  T
     SCC iter.                  ...        0 min,  0.016 sec
     gradient                   ...        0 min,  0.013 sec
 * total energy  :   -41.8659677 Eh     change       -0.4297614E-02 Eh
   gradient norm :     0.1609047 Eh/α   predicted    -0.9886307E-02 ( 130.04%)
   displ. norm   :     0.7737391 α      lambda       -0.2306117E-01
   maximum displ.:     0.4369591 α      in ANC's #12, #14, #18, ...

........................................................................
.............................. CYCLE   27 ..............................
........................................................................

 iter      E             dE          RMSdq      gap      omega  full diag
   1    -42.3202822 -0.423203E+02  0.944E-01    0.20       0.0  T
   2    -42.2660801  0.542021E-01  0.119E+00    0.30       1.0  T
   3    -42.3186445 -0.525645E-01  0.651E-01    0.21       1.0  T
   4    -42.3315652 -0.129207E-01  0.288E-01    0.27       1.0  T
   5    -42.3310690  0.496200E-03  0.275E-01    0.23       1.0  T
   6    -42.3340827 -0.301365E-02  0.439E-02    0.25       1.0  T
   7    -42.3340844 -0.169777E-05  0.279E-02    0.25       1.0  T
   8    -42.3341077 -0.233731E-04  0.176E-02    0.25       1.1  T
   9    -42.3341143 -0.656047E-05  0.894E-03    0.25       2.2  T
  10    -42.3341158 -0.153030E-05  0.345E-03    0.25       5.8  T
  11    -42.3341160 -0.175958E-06  0.110E-03    0.25      18.1  T
  12    -42.3341160 -0.862665E-08  0.418E-04    0.25      47.8  T
  13    -42.3341160 -0.588237E-09  0.205E-04    0.25      97.6  T
     SCC iter.                  ...        0 min,  0.017 sec
     gradient                   ...        0 min,  0.013 sec
 * total energy  :   -41.8680392 Eh     change       -0.2071449E-02 Eh
   gradient norm :     0.1513386 Eh/α   predicted    -0.1843362E-01 ( 789.89%)
   displ. norm   :     0.3781697 α      lambda       -0.2442392E-01
   maximum displ.:     0.1341615 α      in ANC's #34, #10, #24, ...

........................................................................
.............................. CYCLE   28 ..............................
........................................................................

 iter      E             dE          RMSdq      gap      omega  full diag
   1    -42.3457776 -0.423458E+02  0.570E-01    0.22       0.0  T
   2    -42.3246682  0.211094E-01  0.799E-01    0.15       1.0  T
   3    -42.3459643 -0.212961E-01  0.370E-01    0.27       1.0  T
   4    -42.3455967  0.367599E-03  0.348E-01    0.19       1.0  T
   5    -42.3497333 -0.413661E-02  0.123E-01    0.24       1.0  T
   6    -42.3503504 -0.617103E-03  0.419E-02    0.22       1.0  T
   7    -42.3503780 -0.275449E-04  0.229E-02    0.22       1.0  T
   8    -42.3503916 -0.136543E-04  0.147E-02    0.22       1.4  T
   9    -42.3503963 -0.465645E-05  0.581E-03    0.22       3.4  T
  10    -42.3503970 -0.675452E-06  0.212E-03    0.22       9.4  T
  11    -42.3503970 -0.544867E-07  0.694E-04    0.22      28.8  T
  12    -42.3503970 -0.855671E-08  0.224E-04    0.22      89.3  T
     SCC iter.                  ...        0 min,  0.016 sec
     gradient                   ...        0 min,  0.013 sec
 * total energy  :   -41.8787026 Eh     change       -0.1066338E-01 Eh
   gradient norm :     0.1525728 Eh/α   predicted    -0.1395843E-01 (  30.90%)
   displ. norm   :     0.5945755 α      lambda       -0.1567266E-01
   maximum displ.:     0.3130970 α      in ANC's #7, #9, #12, ...

........................................................................
.............................. CYCLE   29 ..............................
........................................................................

 iter      E             dE          RMSdq      gap      omega  full diag
   1    -42.3669085 -0.423669E+02  0.508E-01    0.24       0.0  T
   2    -42.3603255  0.658303E-02  0.513E-01    0.23       1.0  T
   3    -42.3658916 -0.556614E-02  0.373E-01    0.25       1.0  T
   4    -42.3680517 -0.216005E-02  0.266E-01    0.20       1.0  T
   5    -42.3702763 -0.222463E-02  0.152E-01    0.23       1.0  T
   6    -42.3710558 -0.779492E-03  0.284E-02    0.22       1.0  T
   7    -42.3710598 -0.404075E-05  0.193E-02    0.22       1.0  T
   8    -42.3710733 -0.135194E-04  0.655E-03    0.22       3.1  T
   9    -42.3710745 -0.119811E-05  0.252E-03    0.22       7.9  T
  10    -42.3710746 -0.998998E-07  0.112E-03    0.22      17.8  T
  11    -42.3710746 -0.126232E-07  0.540E-04    0.22      37.0  T
  12    -42.3710747 -0.652640E-08  0.172E-04    0.22     116.0  T
     SCC iter.                  ...        0 min,  0.016 sec
     gradient                   ...        0 min,  0.013 sec
 * total energy  :   -41.8830894 Eh     change       -0.4386890E-02 Eh
   gradient norm :     0.1547796 Eh/α   predicted    -0.1060663E-01 ( 141.78%)
   displ. norm   :     0.3923125 α      lambda       -0.1297643E-01
   maximum displ.:     0.2031851 α      in ANC's #3, #9, #16, ...

........................................................................
.............................. CYCLE   30 ..............................
........................................................................

 iter      E             dE          RMSdq      gap      omega  full diag
   1    -42.3723173 -0.423723E+02  0.378E-01    0.19       0.0  T
   2    -42.3722312  0.860667E-04  0.247E-01    0.19       1.0  T
   3    -42.3678157  0.441556E-02  0.314E-01    0.22       1.0  T
   4    -42.3716784 -0.386276E-02  0.170E-01    0.19       1.0  T
   5    -42.3727022 -0.102377E-02  0.767E-02    0.20       1.0  T
   6    -42.3729255 -0.223286E-03  0.326E-02    0.19       1.0  T
   7    -42.3729484 -0.229190E-04  0.110E-02    0.19       1.8  T
   8    -42.3729485 -0.604289E-07  0.688E-03    0.19       2.9  T
   9    -42.3729495 -0.102301E-05  0.471E-03    0.19       4.2  T
  10    -42.3729501 -0.613796E-06  0.138E-03    0.19      14.5  T
  11    -42.3729501 -0.107574E-07  0.409E-04    0.19      48.9  T
  12    -42.3729501 -0.664308E-09  0.241E-04    0.19      82.9  T
     SCC iter.                  ...        0 min,  0.016 sec
     gradient                   ...        0 min,  0.013 sec
 * total energy  :   -41.8898381 Eh     change       -0.6748669E-02 Eh
   gradient norm :     0.1130968 Eh/α   predicted    -0.7486818E-02 (  10.94%)
   displ. norm   :     0.6119286 α      lambda       -0.1230113E-01
   maximum displ.:     0.3687851 α      in ANC's #12, #7, #15, ...

........................................................................
.............................. CYCLE   31 ..............................
........................................................................

 iter      E             dE          RMSdq      gap      omega  full diag
   1    -42.3607384 -0.423607E+02  0.475E-01    0.24       0.0  T
   2    -42.3524979  0.824041E-02  0.472E-01    0.16       1.0  T
   3    -42.3526142 -0.116212E-03  0.480E-01    0.24       1.0  T
   4    -42.3618429 -0.922880E-02  0.134E-01    0.20       1.0  T
   5    -42.3619452 -0.102210E-03  0.125E-01    0.18       1.0  T
   6    -42.3624591 -0.513931E-03  0.265E-02    0.19       1.0  T
   7    -42.3624695 -0.104021E-04  0.145E-02    0.19       1.4  T
   8    -42.3624760 -0.654016E-05  0.848E-03    0.19       2.4  T
   9    -42.3624776 -0.159280E-05  0.369E-03    0.19       5.4  T
  10    -42.3624779 -0.270687E-06  0.232E-03    0.19       8.6  T
  11    -42.3624780 -0.124503E-06  0.499E-04    0.19      40.1  T
  12    -42.3624780 -0.328201E-08  0.244E-04    0.19      82.1  T
     SCC iter.                  ...        0 min,  0.016 sec
     gradient                   ...        0 min,  0.013 sec
 * total energy  :   -41.8934876 Eh     change       -0.3649456E-02 Eh
   gradient norm :     0.1014727 Eh/α   predicted    -0.8453688E-02 ( 131.64%)
   displ. norm   :     0.4041106 α      lambda       -0.1158803E-01
   maximum displ.:     0.2020432 α      in ANC's #18, #3, #9, ...

........................................................................
.............................. CYCLE   32 ..............................
........................................................................

 iter      E             dE          RMSdq      gap      omega  full diag
   1    -42.3810602 -0.423811E+02  0.483E-01    0.24       0.0  T
   2    -42.3767066  0.435361E-02  0.461E-01    0.17       1.0  T
   3    -42.3814597 -0.475308E-02  0.282E-01    0.21       1.0  T
   4    -42.3815822 -0.122522E-03  0.218E-01    0.21       1.0  T
   5    -42.3828124 -0.123022E-02  0.118E-01    0.19       1.0  T
   6    -42.3835839 -0.771492E-03  0.246E-02    0.20       1.0  T
   7    -42.3835866 -0.272991E-05  0.192E-02    0.20       1.0  T
   8    -42.3835966 -0.100125E-04  0.963E-03    0.20       2.1  T
   9    -42.3835998 -0.321272E-05  0.450E-03    0.20       4.4  T
  10    -42.3836002 -0.313147E-06  0.232E-03    0.20       8.6  T
  11    -42.3836003 -0.164396E-06  0.486E-04    0.20      41.1  T
  12    -42.3836003 -0.477942E-08  0.197E-04    0.20     101.7  T
     SCC iter.                  ...        0 min,  0.016 sec
     gradient                   ...        0 min,  0.013 sec
 * total energy  :   -41.8969852 Eh     change       -0.3497645E-02 Eh
   gradient norm :     0.1227867 Eh/α   predicted    -0.6740215E-02 (  92.71%)
   displ. norm   :     0.4876077 α      lambda       -0.1279690E-01
   maximum displ.:     0.2584880 α      in ANC's #7, #12, #10, ...

........................................................................
.............................. CYCLE   33 ..............................
........................................................................

 iter      E             dE          RMSdq      gap      omega  full diag
   1    -42.3795643 -0.423796E+02  0.513E-01    0.18       0.0  T
   2    -42.3692350  0.103293E-01  0.631E-01    0.25       1.0  T
   3    -42.3809412 -0.117062E-01  0.320E-01    0.18       1.0  T
   4    -42.3815896 -0.648371E-03  0.297E-01    0.22       1.0  T
   5    -42.3847431 -0.315357E-02  0.123E-01    0.21       1.0  T
   6    -42.3850506 -0.307497E-03  0.370E-02    0.20       1.0  T
   7    -42.3850811 -0.304309E-04  0.235E-02    0.20       1.0  T
   8    -42.3850972 -0.160982E-04  0.698E-03    0.20       2.9  T
   9    -42.3850976 -0.406413E-06  0.364E-03    0.20       5.5  T
  10    -42.3850980 -0.423051E-06  0.187E-03    0.20      10.7  T
  11    -42.3850981 -0.623465E-07  0.620E-04    0.20      32.3  T
  12    -42.3850981 -0.467799E-08  0.223E-04    0.20      89.8  T
     SCC iter.                  ...        0 min,  0.016 sec
     gradient                   ...        0 min,  0.013 sec
 * total energy  :   -41.9020290 Eh     change       -0.5043802E-02 Eh
   gradient norm :     0.0843223 Eh/α   predicted    -0.7919776E-02 (  57.02%)
   displ. norm   :     0.3784539 α      lambda       -0.5820665E-02
   maximum displ.:     0.2025791 α      in ANC's #3, #7, #12, ...

........................................................................
.............................. CYCLE   34 ..............................
........................................................................

 iter      E             dE          RMSdq      gap      omega  full diag
   1    -42.3886801 -0.423887E+02  0.221E-01    0.19       0.0  T
   2    -42.3870665  0.161353E-02  0.218E-01    0.16       1.0  T
   3    -42.3869653  0.101250E-03  0.221E-01    0.20       1.0  T
   4    -42.3888540 -0.188877E-02  0.654E-02    0.19       1.0  T
   5    -42.3889280 -0.739543E-04  0.533E-02    0.19       1.0  T
   6    -42.3890193 -0.912879E-04  0.110E-02    0.19       1.8  T
   7    -42.3890202 -0.873023E-06  0.661E-03    0.19       3.0  T
   8    -42.3890214 -0.125943E-05  0.387E-03    0.19       5.2  T
   9    -42.3890218 -0.393476E-06  0.131E-03    0.19      15.2  T
  10    -42.3890218 -0.320538E-07  0.730E-04    0.19      27.4  T
  11    -42.3890219 -0.869328E-08  0.182E-04    0.19     109.8  T
     SCC iter.                  ...        0 min,  0.015 sec
     gradient                   ...        0 min,  0.012 sec
 * total energy  :   -41.9056931 Eh     change       -0.3664107E-02 Eh
   gradient norm :     0.0499334 Eh/α   predicted    -0.3327170E-02 (  -9.20%)
   displ. norm   :     0.4772315 α      lambda       -0.4258187E-02
   maximum displ.:     0.2605549 α      in ANC's #7, #12, #3, ...

........................................................................
.............................. CYCLE   35 ..............................
........................................................................

 iter      E             dE          RMSdq      gap      omega  full diag
   1    -42.3891805 -0.423892E+02  0.286E-01    0.17       0.0  T
   2    -42.3870480  0.213248E-02  0.295E-01    0.13       1.0  T
   3    -42.3884342 -0.138621E-02  0.207E-01    0.18       1.0  T
   4    -42.3876722  0.761998E-03  0.210E-01    0.16       1.0  T
   5    -42.3898225 -0.215031E-02  0.359E-02    0.17       1.0  T
   6    -42.3898594 -0.368529E-04  0.163E-02    0.17       1.2  T
   7    -42.3898656 -0.626341E-05  0.787E-03    0.17       2.5  T
   8    -42.3898673 -0.163053E-05  0.366E-03    0.17       5.5  T
   9    -42.3898677 -0.474781E-06  0.118E-03    0.17      16.9  T
  10    -42.3898678 -0.189366E-07  0.678E-04    0.17      29.5  T
  11    -42.3898678 -0.625765E-08  0.163E-04    0.17     122.5  T
     SCC iter.                  ...        0 min,  0.015 sec
     gradient                   ...        0 min,  0.012 sec
 * total energy  :   -41.9082872 Eh     change       -0.2594047E-02 Eh
   gradient norm :     0.0503484 Eh/α   predicted    -0.2613990E-02 (   0.77%)
   displ. norm   :     0.5178646 α      lambda       -0.3916341E-02
   maximum displ.:     0.2761019 α      in ANC's #3, #7, #2, ...

........................................................................
.............................. CYCLE   36 ..............................
........................................................................

 iter      E             dE          RMSdq      gap      omega  full diag
   1    -42.3985385 -0.423985E+02  0.259E-01    0.11       0.0  T
   2    -42.3972025  0.133603E-02  0.217E-01    0.10       1.0  T
   3    -42.3952286  0.197387E-02  0.281E-01    0.12       1.0  T
   4    -42.3984859 -0.325730E-02  0.104E-01    0.12       1.0  T
   5    -42.3987382 -0.252267E-03  0.472E-02    0.11       1.0  T
   6    -42.3988485 -0.110300E-03  0.832E-03    0.12       2.4  T
   7    -42.3988484  0.217562E-07  0.567E-03    0.12       3.5  T
   8    -42.3988495 -0.102118E-05  0.282E-03    0.12       7.1  T
   9    -42.3988497 -0.224373E-06  0.115E-03    0.12      17.4  T
  10    -42.3988497 -0.205551E-07  0.583E-04    0.12      34.3  T
  11    -42.3988497 -0.677608E-08  0.132E-04    0.12     151.0  T
     SCC iter.                  ...        0 min,  0.015 sec
     gradient                   ...        0 min,  0.013 sec
 * total energy  :   -41.9110915 Eh     change       -0.2804364E-02 Eh
   gradient norm :     0.0372713 Eh/α   predicted    -0.2483321E-02 ( -11.45%)
   displ. norm   :     0.5422855 α      lambda       -0.3269801E-02
   maximum displ.:     0.2873654 α      in ANC's #3, #7, #9, ...

........................................................................
.............................. CYCLE   37 ..............................
........................................................................

 iter      E             dE          RMSdq      gap      omega  full diag
   1    -42.4002583 -0.424003E+02  0.262E-01    0.07       0.0  T
   2    -42.4001186  0.139701E-03  0.166E-01    0.06       1.0  T
   3    -42.3986892  0.142936E-02  0.214E-01    0.10       1.0  T
   4    -42.4001170 -0.142781E-02  0.822E-02    0.07       1.0  T
   5    -42.4002048 -0.878072E-04  0.715E-02    0.07       1.0  T
   6    -42.4004539 -0.249022E-03  0.841E-03    0.07       2.4  T
   7    -42.4004526  0.122862E-05  0.832E-03    0.07       2.4  T
   8    -42.4004546 -0.200476E-05  0.243E-03    0.07       8.2  T
   9    -42.4004549 -0.234649E-06  0.832E-04    0.07      24.0  T
  10    -42.4004549 -0.652437E-08  0.390E-04    0.07      51.2  T
     SCC iter.                  ...        0 min,  0.013 sec
     gradient                   ...        0 min,  0.013 sec
 * total energy  :   -41.9132616 Eh     change       -0.2170108E-02 Eh
   gradient norm :     0.0240996 Eh/α   predicted    -0.2115686E-02 (  -2.51%)
   displ. norm   :     0.4294347 α      lambda       -0.1878240E-02
   maximum displ.:     0.1840700 α      in ANC's #7, #2, #3, ...

........................................................................
.............................. CYCLE   38 ..............................
........................................................................

 iter      E             dE          RMSdq      gap      omega  full diag
   1    -42.4064503 -0.424065E+02  0.190E-01    0.10       0.0  T
   2    -42.4061968  0.253470E-03  0.133E-01    0.08       1.0  T
   3    -42.4050493  0.114753E-02  0.191E-01    0.09       1.0  T
   4    -42.4063046 -0.125526E-02  0.817E-02    0.09       1.0  T
   5    -42.4064993 -0.194766E-03  0.370E-02    0.08       1.0  T
   6    -42.4065702 -0.708452E-04  0.104E-02    0.08       1.9  T
   7    -42.4065745 -0.433752E-05  0.348E-03    0.08       5.7  T
   8    -42.4065747 -0.161115E-06  0.135E-03    0.08      14.9  T
   9    -42.4065747 -0.426998E-07  0.611E-04    0.08      32.7  T
  10    -42.4065747  0.780815E-08  0.615E-04    0.08      32.5  T
     SCC iter.                  ...        0 min,  0.013 sec
     gradient                   ...        0 min,  0.013 sec
 * total energy  :   -41.9145238 Eh     change       -0.1262136E-02 Eh
   gradient norm :     0.0223034 Eh/α   predicted    -0.1112314E-02 ( -11.87%)
   displ. norm   :     0.5143864 α      lambda       -0.1615397E-02
   maximum displ.:     0.2321841 α      in ANC's #3, #2, #7, ...

........................................................................
.............................. CYCLE   39 ..............................
........................................................................

 iter      E             dE          RMSdq      gap      omega  full diag
   1    -42.4008154 -0.424008E+02  0.230E-01    0.11       0.0  T
   2    -42.4004984  0.316991E-03  0.157E-01    0.11       1.0  T
   3    -42.3970468  0.345161E-02  0.274E-01    0.08       1.0  T
   4    -42.4006179 -0.357107E-02  0.858E-02    0.10       1.0  T
   5    -42.4008872 -0.269300E-03  0.282E-02    0.10       1.0  T
   6    -42.4009180 -0.308343E-04  0.110E-02    0.10       1.8  T
   7    -42.4009215 -0.346690E-05  0.511E-03    0.10       3.9  T
   8    -42.4009219 -0.411269E-06  0.335E-03    0.10       6.0  T
   9    -42.4009222 -0.304891E-06  0.758E-04    0.10      26.4  T
  10    -42.4009222  0.273417E-09  0.426E-04    0.10      46.9  T
     SCC iter.                  ...        0 min,  0.013 sec
     gradient                   ...        0 min,  0.013 sec
 * total energy  :   -41.9155077 Eh     change       -0.9839644E-03 Eh
   gradient norm :     0.0202267 Eh/α   predicted    -0.1021415E-02 (   3.81%)
   displ. norm   :     0.3977637 α      lambda       -0.1530701E-02
   maximum displ.:     0.1723873 α      in ANC's #8, #7, #4, ...

........................................................................
.............................. CYCLE   40 ..............................
........................................................................

 iter      E             dE          RMSdq      gap      omega  full diag
   1    -42.4099016 -0.424099E+02  0.148E-01    0.14       0.0  T
   2    -42.4097023  0.199322E-03  0.109E-01    0.13       1.0  T
   3    -42.4085475  0.115483E-02  0.168E-01    0.14       1.0  T
   4    -42.4098319 -0.128447E-02  0.590E-02    0.14       1.0  T
   5    -42.4099590 -0.127053E-03  0.257E-02    0.13       1.0  T
   6    -42.4099821 -0.231487E-04  0.745E-03    0.14       2.7  T
   7    -42.4099830 -0.890597E-06  0.468E-03    0.13       4.3  T
   8    -42.4099835 -0.445002E-06  0.213E-03    0.14       9.4  T
   9    -42.4099836 -0.110320E-06  0.723E-04    0.14      27.7  T
  10    -42.4099836 -0.113806E-07  0.362E-04    0.14      55.2  T
     SCC iter.                  ...        0 min,  0.013 sec
     gradient                   ...        0 min,  0.013 sec
 * total energy  :   -41.9163615 Eh     change       -0.8537267E-03 Eh
   gradient norm :     0.0181357 Eh/α   predicted    -0.8864493E-03 (   3.83%)
   displ. norm   :     0.3469573 α      lambda       -0.9492606E-03
   maximum displ.:     0.1570816 α      in ANC's #2, #8, #3, ...

........................................................................
.............................. CYCLE   41 ..............................
........................................................................

 iter      E             dE          RMSdq      gap      omega  full diag
   1    -42.4092532 -0.424093E+02  0.146E-01    0.13       0.0  T
   2    -42.4088066  0.446598E-03  0.144E-01    0.14       1.0  T
   3    -42.4089002 -0.936498E-04  0.110E-01    0.14       1.0  T
   4    -42.4087486  0.151601E-03  0.112E-01    0.13       1.0  T
   5    -42.4093620 -0.613414E-03  0.164E-02    0.14       1.2  T
   6    -42.4093695 -0.745886E-05  0.732E-03    0.14       2.7  T
   7    -42.4093711 -0.162586E-05  0.351E-03    0.14       5.7  T
   8    -42.4093713 -0.218589E-06  0.176E-03    0.14      11.4  T
   9    -42.4093714 -0.978034E-07  0.510E-04    0.14      39.2  T
  10    -42.4093714 -0.357939E-08  0.231E-04    0.14      86.7  T
     SCC iter.                  ...        0 min,  0.013 sec
     gradient                   ...        0 min,  0.013 sec
 * total energy  :   -41.9169874 Eh     change       -0.6259569E-03 Eh
   gradient norm :     0.0135781 Eh/α   predicted    -0.5317685E-03 ( -15.05%)
   displ. norm   :     0.3764427 α      lambda       -0.7173272E-03
   maximum displ.:     0.1658990 α      in ANC's #2, #8, #9, ...

........................................................................
.............................. CYCLE   42 ..............................
........................................................................

 iter      E             dE          RMSdq      gap      omega  full diag
   1    -42.4075768 -0.424076E+02  0.154E-01    0.13       0.0  T
   2    -42.4070051  0.571664E-03  0.156E-01    0.14       1.0  T
   3    -42.4072105 -0.205407E-03  0.115E-01    0.13       1.0  T
   4    -42.4070107  0.199800E-03  0.119E-01    0.13       1.0  T
   5    -42.4077032 -0.692551E-03  0.110E-02    0.13       1.8  T
   6    -42.4077055 -0.229750E-05  0.655E-03    0.13       3.1  T
   7    -42.4077064 -0.892822E-06  0.368E-03    0.13       5.4  T
   8    -42.4077067 -0.228115E-06  0.196E-03    0.13      10.2  T
   9    -42.4077068 -0.168460E-06  0.493E-04    0.13      40.6  T
  10    -42.4077068 -0.126494E-08  0.232E-04    0.13      86.1  T
     SCC iter.                  ...        0 min,  0.013 sec
     gradient                   ...        0 min,  0.013 sec
 * total energy  :   -41.9174524 Eh     change       -0.4649701E-03 Eh
   gradient norm :     0.0134014 Eh/α   predicted    -0.4094960E-03 ( -11.93%)
   displ. norm   :     0.2618028 α      lambda       -0.5475284E-03
   maximum displ.:     0.1256002 α      in ANC's #2, #10, #8, ...
 * RMSD in coord.:     1.2903871 α      energy gain  -0.1563118E+00 Eh

generating ANC from model Hessian ...
Using Lindh-Hessian (1995)
 Shifting diagonal of input Hessian by    9.9161396875100082E-003
 Lowest  eigenvalues of input Hessian
    0.000000    0.000000    0.000000    0.000000    0.000000    0.000000
    0.010000    0.010140    0.010147    0.010444    0.010903    0.014777
    0.015883    0.018933    0.020821    0.022129    0.025446    0.030394
 Highest eigenvalues
    1.947264    2.039881    2.052919    2.132874    2.567540    2.663655


........................................................................
.............................. CYCLE   43 ..............................
........................................................................

 iter      E             dE          RMSdq      gap      omega  full diag
   1    -42.4081620 -0.424082E+02  0.108E-01    0.10       0.0  T
   2    -42.4071434  0.101857E-02  0.167E-01    0.11       1.0  T
   3    -42.4082510 -0.110761E-02  0.616E-02    0.11       1.0  T
   4    -42.4081499  0.101079E-03  0.708E-02    0.11       1.0  T
   5    -42.4083382 -0.188279E-03  0.178E-02    0.12       1.1  T
   6    -42.4083450 -0.681147E-05  0.105E-02    0.11       1.9  T
   7    -42.4083494 -0.440331E-05  0.373E-03    0.11       5.4  T
   8    -42.4083497 -0.285130E-06  0.111E-03    0.11      18.0  T
   9    -42.4083497 -0.246996E-07  0.617E-04    0.11      32.4  T
  10    -42.4083498 -0.864464E-08  0.283E-04    0.11      70.6  T
     SCC iter.                  ...        0 min,  0.013 sec
     gradient                   ...        0 min,  0.013 sec
 * total energy  :   -41.9177140 Eh     change       -0.2616167E-03 Eh
   gradient norm :     0.0102861 Eh/α   predicted     0.0000000E+00 (-100.00%)
   displ. norm   :     0.0730305 α      lambda       -0.2557029E-03
   maximum displ.:     0.0411084 α      in ANC's #9, #8, #3, ...

........................................................................
.............................. CYCLE   44 ..............................
........................................................................

 iter      E             dE          RMSdq      gap      omega  full diag
   1    -42.4099449 -0.424099E+02  0.523E-02    0.11       0.0  T
   2    -42.4099060  0.388741E-04  0.476E-02    0.11       1.0  T
   3    -42.4098846  0.213777E-04  0.407E-02    0.11       1.0  T
   4    -42.4098797  0.488947E-05  0.388E-02    0.11       1.0  T
   5    -42.4099549 -0.751701E-04  0.558E-03    0.11       3.6  T
   6    -42.4099557 -0.799609E-06  0.235E-03    0.11       8.5  T
   7    -42.4099559 -0.162051E-06  0.107E-03    0.11      18.6  T
   8    -42.4099559 -0.198365E-07  0.562E-04    0.11      35.6  T
   9    -42.4099559 -0.747286E-08  0.201E-04    0.11      99.5  T
     SCC iter.                  ...        0 min,  0.012 sec
     gradient                   ...        0 min,  0.013 sec
 * total energy  :   -41.9179078 Eh     change       -0.1937528E-03 Eh
   gradient norm :     0.0051675 Eh/α   predicted    -0.1285337E-03 ( -33.66%)
   displ. norm   :     0.1494353 α      lambda       -0.2339311E-03
   maximum displ.:     0.0926260 α      in ANC's #9, #3, #8, ...

........................................................................
.............................. CYCLE   45 ..............................
........................................................................

 iter      E             dE          RMSdq      gap      omega  full diag
   1    -42.4110059 -0.424110E+02  0.872E-02    0.10       0.0  T
   2    -42.4109424  0.635178E-04  0.686E-02    0.10       1.0  T
   3    -42.4107622  0.180239E-03  0.779E-02    0.10       1.0  T
   4    -42.4108663 -0.104111E-03  0.565E-02    0.10       1.0  T
   5    -42.4110264 -0.160173E-03  0.948E-03    0.10       2.1  T
   6    -42.4110289 -0.240962E-05  0.389E-03    0.10       5.1  T
   7    -42.4110293 -0.414466E-06  0.187E-03    0.10      10.7  T
   8    -42.4110293 -0.539687E-07  0.101E-03    0.10      19.7  T
[...]
C            3.16528590360644       -1.38801124429995       -0.29755883335754
N            1.93573571062803       -1.70168613573896       -0.39713663188712
C           -0.39548256236675       -0.09162120276478       -0.01129890858057
C           -0.42601759009345        2.53604486662950        0.41374826875698
C           -1.00453033401929        1.22454018586035       -0.05379608340429
O           -0.47328471372652        2.30914531955309       -0.82039103588877
N           -2.41338483158683        1.03001003497154       -0.04326956228230
C           -3.39323763367072        2.08383006104958       -0.01555012732458
C           -2.67450972825991       -0.29054794485709        0.11161710675285
O           -3.71146096331919       -0.86904121596242        0.21953026117507
N           -1.37101532297756       -0.94084261630642        0.11523796503287
C           -1.28791188666850       -2.36798678014549        0.24765857563062
H            5.19802744356807        0.57831943617931        1.07677274896645
H            5.74356109654816       -0.70498204198154       -0.04130967586556
H            5.26421384437217        0.90587753144615       -0.65051955522070
H            3.84636529907136       -2.24127615182101       -0.47123225642923
H           -3.14429745489177        2.80345436479536        0.76871338396374
H           -3.42800600187854        2.59904038612849       -0.97822276090207
H           -4.36526005433310        1.63646934709552        0.18912245108402
H           -0.94553743149789       -2.63212525936559        1.24952500333070
H           -0.58746382088122       -2.77514271605823       -0.48027744435777
H           -2.28503474712123       -2.78087264833576        0.09344851458384
H            1.17317990939138       -1.00005925792814       -0.25582930573130

 Bond Distances (Angstroems)
 ---------------------------
C1-N2=1.3877         C1-H15=1.0971        C1-H16=1.0992        C1-H17=1.0976        N2-C1=1.3877         N2-C3=1.3033         
C3-N2=1.3033         C3-N4=1.2728         C3-H18=1.1055        N4-C3=1.2728         N4-H25=1.0458        C5-C7=1.4509         
C5-N13=1.2996        C6-C7=1.5078         C6-O8=1.2557         C7-C5=1.4509         C7-C6=1.5078         C7-O8=1.4305         
C7-N9=1.4223         O8-C6=1.2557         O8-C7=1.4305         N9-C7=1.4223         N9-C10=1.4392        N9-C11=1.3550        
C10-N9=1.4392        C10-H19=1.0931       C10-H20=1.0924       C10-H21=1.0894       C11-N9=1.3550        C11-O12=1.1923       
C11-N13=1.4567       O12-C11=1.1923       N13-C5=1.2996        N13-C11=1.4567       N13-C14=1.4357       C14-N13=1.4357       
C14-H22=1.0912       C14-H23=1.0892       C14-H24=1.0902       H15-C1=1.0971        H16-C1=1.0992        H17-C1=1.0976        
H18-C3=1.1055        H19-C10=1.0931       H20-C10=1.0924       H21-C10=1.0894       H22-C14=1.0912       H23-C14=1.0892       
H24-C14=1.0902       H25-N4=1.0458        
 C  H  Rav=1.0945 sigma=0.0050  Rmin=1.0892  Rmax=1.1055    10
 C  C  Rav=1.4793 sigma=0.0284  Rmin=1.4509  Rmax=1.5078     2
 N  H  Rav=1.0458 sigma=0.0000  Rmin=1.0458  Rmax=1.0458     1
 N  C  Rav=1.3747 sigma=0.0655  Rmin=1.2728  Rmax=1.4567     9
 O  C  Rav=1.2928 sigma=0.1007  Rmin=1.1923  Rmax=1.4305     3

 selected bond angles (degree)
 --------------------
H15-C1-N2=108.82               H16-C1-N2=114.30               H16-C1-H15=108.94              H17-C1-N2=108.99               
H17-C1-H15=106.57              H17-C1-H16=108.94              C3-N2-C1=130.08                N4-C3-N2=129.28                
H18-C3-N2=117.60               H18-C3-N4=113.12               H25-N4-C3=121.90               N13-C5-C7=106.29               
O8-C6-C7= 61.55                C6-C7-C5=128.24                O8-C7-C5=123.20                O8-C7-C6= 50.52                
N9-C7-C5=106.95                N9-C7-C6=119.79                N9-C7-O8=118.40                C7-O8-C6= 67.93                
C10-N9-C7=125.06               C11-N9-C7=108.97               C11-N9-C10=125.46              H19-C10-N9=109.93              
H20-C10-N9=110.49              H20-C10-H19=109.21             H21-C10-N9=108.08              H21-C10-H19=109.80             
H21-C10-H20=109.32             

 selected dihedral angles (degree)
 ---------------------------------
C3-N2-C1-H15=236.13           C3-N2-C1-H16=358.15           C3-N2-C1-H17=120.28           N4-C3-N2-C1=179.77            
H18-C3-N2-C1=359.75           H25-N4-C3-N2=359.77           H25-N4-C3-H18=179.79          C6-C7-C5-N13=149.96           
O8-C7-C5-N13=213.10           N9-C7-C5-N13=355.62           C5-C7-C6-O8=104.72            N9-C7-C6-O8=256.21            
C6-O8-C7-C5=245.21            C6-O8-C7-N9=106.64            C10-N9-C7-C5=177.07           C10-N9-C7-C6= 20.14           
C10-N9-C7-O8=321.71           C11-N9-C7-C5=  4.91           C11-N9-C7-C6=207.99           C11-N9-C7-O8=149.55           
H19-C10-N9-C7=311.12          H19-C10-N9-C11=122.00         H20-C10-N9-C7= 71.72          H20-C10-N9-C11=242.60         
H21-C10-N9-C7=191.29          H21-C10-N9-C11=  2.17         
           -------------------------------------------------
          |                Final Singlepoint                |
           -------------------------------------------------

          ...................................................
          :                      SETUP                      :
          :.................................................:
          :  # basis functions                  67          :
          :  # atomic orbitals                  67          :
          :  # shells                           39          :
          :  # electrons                        74          :
          :  max. iterations                   250          :
          :  Hamiltonian                  GFN2-xTB          :
          :  restarted?                      false          :
          :  GBSA solvation                  false          :
          :  PC potential                    false          :
          :  electronic temp.         5000.0000000     K    :
          :  accuracy                    1.0000000          :
          :  -> integral cutoff          0.2500000E+02      :
          :  -> integral neglect         0.1000000E-07      :
          :  -> SCF convergence          0.1000000E-05 Eh   :
          :  -> wf. convergence          0.1000000E-03 e    :
          :  Broyden damping             0.4000000          :
          ...................................................

 iter      E             dE          RMSdq      gap      omega  full diag
   1    -42.4146705 -0.424147E+02  0.769E-05    0.20       0.0  T
   2    -42.4146705  0.954756E-10  0.664E-05    0.20     301.2  T
   3    -42.4146705 -0.465050E-10  0.581E-05    0.20     344.3  T

   *** convergence criteria satisfied after 3 iterations ***

         #    Occupation            Energy/Eh            Energy/eV
      -------------------------------------------------------------
         1        2.0000           -0.9460645             -25.7437
       ...           ...                  ...                  ...
        31        1.9949           -0.6176896             -16.8082
        32        1.9896           -0.6062822             -16.4978
        33        1.9811           -0.5967223             -16.2376
        34        1.8748           -0.5659251             -15.3996
        35        1.8346           -0.5611698             -15.2702
        36        1.6903           -0.5499438             -14.9647
        37        1.3805           -0.5357567             -14.5787 (HOMO)
        38        1.1704           -0.5285178             -14.3817 (LUMO)
        39        0.0714           -0.4708689             -12.8130
        40        0.0252           -0.4540191             -12.3545
        41        0.0001           -0.3556209              -9.6769
        42        0.0000           -0.3540262              -9.6335
       ...           ...                  ...                  ...
        67                          0.5668296              15.4242
      -------------------------------------------------------------
                  HL-Gap            0.0072389 Eh            0.1970 eV
             Fermi-level           -0.5230700 Eh          -14.2335 eV

 SCC (total)                   0 d,  0 h,  0 min,  0.022 sec
 SCC setup                      ...        0 min,  0.000 sec (  0.909%)
 Dispersion                     ...        0 min,  0.000 sec (  0.789%)
 classical contributions        ...        0 min,  0.000 sec (  0.355%)
 integral evaluation            ...        0 min,  0.004 sec ( 18.949%)
 iterations                     ...        0 min,  0.005 sec ( 21.846%)
 molecular gradient             ...        0 min,  0.012 sec ( 56.622%)
 printout                       ...        0 min,  0.000 sec (  0.480%)

         :::::::::::::::::::::::::::::::::::::::::::::::::::::
         ::                     SUMMARY                     ::
         :::::::::::::::::::::::::::::::::::::::::::::::::::::
         :: total energy             -41.926497867839 Eh    ::
         :: gradient norm              0.002393139440 Eh/a0 ::
         :: HOMO-LUMO gap              0.196979735873 eV    ::
         ::.................................................::
         :: SCC energy               -42.414670548700 Eh    ::
         :: -> isotropic ES            0.107193080430 Eh    ::
         :: -> anisotropic ES         -0.004256689986 Eh    ::
         :: -> anisotropic XC          0.018148659374 Eh    ::
         :: -> dispersion             -0.018315860886 Eh    ::
         :: repulsion energy           0.488163324025 Eh    ::
         :: add. restraining           0.000002937009 Eh    ::
         :: total charge               1.000000000000 e     ::
         :::::::::::::::::::::::::::::::::::::::::::::::::::::

           -------------------------------------------------
          |                Property Printout                |
           -------------------------------------------------

    * Orbital Energies and Occupations

         #    Occupation            Energy/Eh            Energy/eV
      -------------------------------------------------------------
         1        2.0000           -0.9460645             -25.7437
       ...           ...                  ...                  ...
        25        1.9998           -0.6709551             -18.2576
        26        1.9992           -0.6461714             -17.5832
        27        1.9980           -0.6320993             -17.2003
        28        1.9973           -0.6277731             -17.0826
        29        1.9972           -0.6268622             -17.0578
        30        1.9963           -0.6228665             -16.9491
        31        1.9949           -0.6176896             -16.8082
        32        1.9896           -0.6062822             -16.4978
        33        1.9811           -0.5967223             -16.2376
        34        1.8748           -0.5659251             -15.3996
        35        1.8346           -0.5611698             -15.2702
        36        1.6903           -0.5499438             -14.9647
        37        1.3805           -0.5357567             -14.5787 (HOMO)
        38        1.1704           -0.5285178             -14.3817 (LUMO)
        39        0.0714           -0.4708689             -12.8130
        40        0.0252           -0.4540191             -12.3545
        41        0.0001           -0.3556209              -9.6769
        42        0.0000           -0.3540262              -9.6335
        43                         -0.2308099              -6.2807
        44                         -0.1944940              -5.2925
        45                         -0.1641505              -4.4668
        46                         -0.0947529              -2.5784
        47                         -0.0645200              -1.7557
        48                         -0.0523018              -1.4232
       ...                                ...                  ...
        67                          0.5668296              15.4242
      -------------------------------------------------------------
                  HL-Gap            0.0072389 Eh            0.1970 eV
             Fermi-level           -0.5230700 Eh          -14.2335 eV

     #   Z          covCN         q      C6AA      α(0)
     1   6 C        3.690    -0.045    21.576     6.648
     2   7 N        1.827    -0.119    24.357     7.313
     3   6 C        2.753     0.150    24.719     8.141
     4   7 N        1.775    -0.229    26.830     7.670
     5   6 C        1.981    -0.087    33.437     9.338
     6   6 C        1.833     0.020    30.657     8.945
     7   6 C        3.870     0.209    17.286     5.912
     8   8 O        1.703    -0.053    15.179     5.260
     9   7 N        2.777    -0.083    22.861     7.101
    10   6 C        3.688    -0.054    21.746     6.675
    11   6 C        2.823     0.318    21.608     7.617
    12   8 O        0.857    -0.317    20.088     6.009
    13   7 N        2.827     0.024    20.834     6.779
    14   6 C        3.693    -0.080    22.222     6.745
    15   1 H        0.924     0.127     1.560     1.953
    16   1 H        0.923     0.101     1.778     2.086
    17   1 H        0.924     0.126     1.563     1.955
    18   1 H        0.922     0.121     1.602     1.979
    19   1 H        0.924     0.097     1.814     2.106
    20   1 H        0.924     0.099     1.797     2.096
    21   1 H        0.925     0.116     1.648     2.007
    22   1 H        0.924     0.112     1.676     2.025
    23   1 H        0.925     0.118     1.630     1.996
    24   1 H        0.925     0.120     1.610     1.984
    25   1 H        0.859     0.210     1.058     1.611

 Mol. C6AA /au·bohr⁶  :       6516.940060
 Mol. C8AA /au·bohr⁸  :     149856.873478
 Mol. α(0) /au        :        121.953812


Wiberg/Mayer (AO) data.
largest (>0.10) Wiberg bond orders for each atom

 ---------------------------------------------------------------------------
     #   Z sym  total        # sym  WBO       # sym  WBO       # sym  WBO
 ---------------------------------------------------------------------------
     1   6 C    3.872 --     2 N    1.118    16 H    0.914    15 H    0.903
                            17 H    0.902
     2   7 N    2.613 --     3 C    1.404     1 C    1.118
     3   6 C    3.921 --     4 N    1.629     2 N    1.404    18 H    0.839
     4   7 N    2.567 --     3 C    1.629    25 H    0.794
     5   6 C    3.063 --    13 N    1.563     7 C    1.089    25 H    0.119
     6   6 C    2.510 --     8 O    1.574     7 C    0.789
     7   6 C    3.775 --     5 C    1.089     9 N    1.000     8 O    0.820
                             6 C    0.789
     8   8 O    2.495 --     6 C    1.574     7 C    0.820
     9   7 N    3.437 --    11 C    1.190     7 C    1.000    10 C    0.986
                            12 O    0.156
    10   6 C    3.905 --     9 N    0.986    21 H    0.965    19 H    0.955
                            20 H    0.955
    11   6 C    3.931 --    12 O    1.723     9 N    1.190    13 N    0.923
    12   8 O    2.036 --    11 C    1.723     9 N    0.156
    13   7 N    3.662 --     5 C    1.563    14 C    0.990    11 C    0.923
    14   6 C    3.908 --    13 N    0.990    24 H    0.964    23 H    0.954
                            22 H    0.947
    15   1 H    0.924 --     1 C    0.903
    16   1 H    0.920 --     1 C    0.914
    17   1 H    0.923 --     1 C    0.902
    18   1 H    0.859 --     3 C    0.839
    19   1 H    0.975 --    10 C    0.955
    20   1 H    0.972 --    10 C    0.955
    21   1 H    0.980 --    10 C    0.965
    22   1 H    0.979 --    14 C    0.947
    23   1 H    0.978 --    14 C    0.954
    24   1 H    0.982 --    14 C    0.964
    25   1 H    0.934 --     4 N    0.794     5 C    0.119
 ---------------------------------------------------------------------------

Topologies differ in total number of bonds
Writing topology from bond orders to xtbtopo.mol

molecular dipole:
                 x           y           z       tot (Debye)
 q only:        1.896      -0.110       0.140
   full:        2.002       0.041      -0.251       5.128
molecular quadrupole (traceless):
                xx          xy          yy          xz          yz          zz
 q only:       35.146     -13.373      -7.785       0.176       0.278     -27.361
  q+dip:       38.956     -17.067     -11.981       0.677      -2.499     -26.975
   full:       38.473     -17.445     -12.520       0.688      -3.072     -25.953

           -------------------------------------------------
          |                Geometry Summary                 |
           -------------------------------------------------

      molecular mass/u    :      195.1988581
   center of mass at/Å    :       -0.2367706       0.0798807      -0.0421582
  moments of inertia/u·Å² :        0.4447585E+03   0.1454042E+04   0.1856939E+04
rotational constants/cm⁻¹ :        0.3790289E-01   0.1159363E-01   0.9078182E-02

 * 20 selected distances

     #   Z          #   Z                                           value/Å
     1   6 C        2   7 N                                       1.3876994
     2   7 N        3   6 C                                       1.3032681
     3   6 C        4   7 N                                       1.2728321
     6   6 C        8   8 O                                       1.2557140
     7   6 C        8   8 O                                       1.4304749
     7   6 C        9   7 N                                       1.4222602
     9   7 N       10   6 C                                       1.4392418 (max)
     9   7 N       11   6 C                                       1.3550092
    11   6 C       12   8 O                                       1.1922952
     5   6 C       13   7 N                                       1.2995588
    13   7 N       14   6 C                                       1.4356818
     1   6 C       15   1 H                                       1.0970897
     1   6 C       16   1 H                                       1.0991758
     1   6 C       17   1 H                                       1.0975545
    10   6 C       19   1 H                                       1.0931147
    10   6 C       20   1 H                                       1.0924236
    10   6 C       21   1 H                                       1.0894266
    14   6 C       22   1 H                                       1.0912039
    14   6 C       23   1 H                                       1.0891715 (min)
    14   6 C       24   1 H                                       1.0901879

 * 3 distinct bonds (by element types)

   Z      Z             #   av. dist./Å        max./Å        min./Å
   1 H    6 C           9     1.0932609     1.0991758     1.0891715
   6 C    7 N           8     1.3644439     1.4392418     1.2728321
   6 C    8 O           3     1.2928280     1.4304749     1.1922952


optimized geometry written to: xtbopt.xyz


           -------------------------------------------------
          | TOTAL ENERGY              -41.926497867839 Eh   |
          | GRADIENT NORM               0.002393139440 Eh/α |
          | HOMO-LUMO GAP               0.196979735873 eV   |
           -------------------------------------------------

------------------------------------------------------------------------
 * finished run on 2024/06/05 at 19:57:54.572     
------------------------------------------------------------------------
 total:
 * wall-time:     0 d,  0 h,  0 min,  3.058 sec
 *  cpu-time:     0 d,  0 h,  0 min,  3.018 sec
 * ratio c/w:     0.987 speedup
 SCF:
 * wall-time:     0 d,  0 h,  0 min,  0.037 sec
 *  cpu-time:     0 d,  0 h,  0 min,  0.036 sec
 * ratio c/w:     0.990 speedup
 ANC optimizer:
 * wall-time:     0 d,  0 h,  0 min,  2.994 sec
 *  cpu-time:     0 d,  0 h,  0 min,  2.970 sec
 * ratio c/w:     0.992 speedup

