25
 energy: -40.432574650859 gnorm: 8.790029526779 xtb: 6.6.1 (8d0f1dd)
C            2.81612658957444        1.18669389667503       -0.54147501219016
N            2.09617027813618       -0.00442150908473       -0.18132811274578
C            2.59940089905373       -1.22646754213247       -0.12442994813323
N            1.63201221417322       -2.08859684877966        0.21406344349816
C            0.45695418909062       -1.39439714233847        0.39194648248006
C            0.76004235665954       -0.05991749605712        0.12624289815699
C           -0.06775081323493        1.15080731782357        0.30718817846839
O            0.40731484530566        2.16021786628496        0.77705258251621
N           -1.40359593557195        1.04679014477540       -0.03303517966907
C           -2.29971218094846        2.08446770641017        0.45438106974849
C           -1.97422703350323        0.17120218457267       -1.02032713587712
O           -1.19955954075417       -0.62258677319555       -1.57292211038952
N           -0.68599419447985       -1.89686383778095        0.87958492529173
C           -1.26276284444174       -2.98458343265008        0.59846495237909
H            2.64098796231227        1.96147360343698        0.20607112587918
H            3.87846076165616        0.96714750495581       -0.60891916545091
H            2.46255314044029        1.55916573400283       -1.50390826971154
H            3.62291169122705       -1.48806325161949       -0.31202284661026
H           -1.81913664023366        2.60322962869835        1.28106718224943
H           -2.51915926395392        2.81043712740792       -0.32979773279221
H           -3.22747087411118        1.62942292536928        0.79634606380169
H           -2.13921759736483       -3.24361882327805        1.17421860562469
H           -0.96894510108107       -3.64824713857436       -0.21112165050219
H           -2.39003998060884        0.22937033111926       -1.08242700077554
H            1.74506858676207       -3.08442363444030        0.34625827265393
25
 energy: -42.131701275068 gnorm: 0.330264795828 xtb: 6.6.1 (8d0f1dd)
C            2.81612296799549        1.18669500840842       -0.54146400923898
N            2.09618066406072       -0.00442682316917       -0.18132920018099
C            2.59940382359385       -1.22646480788702       -0.12442665406367
N            1.63198020361670       -2.08861914867726        0.21405192250695
C            0.45697440426792       -1.39440202160369        0.39196038843336
C            0.76005986770027       -0.05990561256260        0.12627497003387
C           -0.06708596205811        1.15160211479489        0.30817063156460
O            0.40734116790167        2.16036522508981        0.77709644317488
N           -1.39322499796395        1.04673138944802       -0.03019548724176
C           -2.29990211430018        2.08396386333898        0.45386203917701
C           -1.69594408737098        0.13347595004206       -0.97761477358205
O           -1.18164551680724       -0.63044894532825       -1.57552310632050
N           -0.68595816429724       -1.89682255689142        0.87962742895434
C           -1.26282151337527       -2.98459228608880        0.59847153010145
H            2.64098733417218        1.96147143715221        0.20607219401861
H            3.87847305091185        0.96714426184095       -0.60891709674721
H            2.46255285084339        1.55916974246227       -1.50391869451921
H            3.62291870893906       -1.48806518070701       -0.31202915663670
H           -1.81920896352987        2.60322921796075        1.28104775145683
H           -2.51914341421796        2.81041354583105       -0.32980738491498
H           -3.22746922570718        1.62937924689450        0.79629946897942
H           -2.13920577673818       -3.24363030004496        1.17421314441140
H           -0.96892303358121       -3.64829346437799       -0.21114876149413
H           -2.69712658466777        0.27467228639339       -1.12586154425702
H            1.74509582471545       -3.08440360071816        0.34625957428500
25
 energy: -42.158486394735 gnorm: 0.089377640362 xtb: 6.6.1 (8d0f1dd)
C            2.81828160282666        1.18882662322826       -0.53880112296349
N            2.10328046705026       -0.00368006162120       -0.17770858298115
C            2.60419927371139       -1.22627265205707       -0.12138414550722
N            1.63489797943074       -2.08782170145008        0.21594381550193
C            0.46171816274531       -1.39107485435976        0.39698124084952
C            0.77073539059699       -0.05557631508706        0.13923685365358
C           -0.04276788813151        1.15962145984138        0.32763944633941
O            0.43232688509578        2.17041423556399        0.79146367209639
N           -1.37063478616954        1.04745274598678       -0.02082757483072
C           -2.29160452832409        2.07414662708196        0.44804986516014
C           -1.75437221824328        0.16254697315256       -0.96897609419606
O           -1.19599534709423       -0.69999106630678       -1.65286830885188
N           -0.68269589912286       -1.89379789117918        0.88236807060441
C           -1.26246389100791       -2.98280991877987        0.59767868591944
H            2.64107220354417        1.96349115055591        0.20889491890636
H            3.88092316317733        0.97127138578763       -0.60702393815185
H            2.46245250143299        1.56058555508280       -1.50052084624976
H            3.62632401206639       -1.48829028671903       -0.31039745623237
H           -1.82170347746216        2.59819759836382        1.27607608273944
H           -2.51426716844784        2.79859015286206       -0.33739690622034
H           -3.22072163662909        1.61875998587745        0.78444740463847
H           -2.13806878833452       -3.24407461884482        1.17434538062624
H           -0.96536002058738       -3.64787495428605       -0.21025751427703
H           -2.76235370775257        0.30979788525577       -1.11372007118788
H            1.74722922973238       -3.08419951634848        0.34792874251492
25
 energy: -42.163722562176 gnorm: 0.069724156801 xtb: 6.6.1 (8d0f1dd)
C            2.82604593032182        1.18808883303818       -0.53638236260821
N            2.11071112115587       -0.00388042834231       -0.17303130371706
C            2.60799420214671       -1.22790988993554       -0.12251598589931
N            1.63642637832652       -2.08764849834515        0.21364163428346
C            0.46427068690907       -1.38965423675692        0.39855758748533
C            0.77706362157783       -0.05384092108974        0.14458441115544
C           -0.03711401777758        1.16174898314389        0.33476566037484
O            0.43569346312887        2.17233526284691        0.80232221326637
N           -1.37378794988074        1.04549137833476       -0.02530366264321
C           -2.29144761524130        2.06910636140894        0.44153877632922
C           -1.79403094665967        0.16456845509254       -0.97826162742912
O           -1.19847066857763       -0.68173692108989       -1.62377498126472
N           -0.68008883674338       -1.89117391270231        0.88444028200823
C           -1.25961879871693       -2.97893477816426        0.59886010233768
H            2.64919757661649        1.96313932004214        0.21064036113619
H            3.88899589219759        0.97212042161224       -0.60651656657552
H            2.46810835759527        1.55833867871969       -1.49859131810687
H            3.62948618618781       -1.49270173281745       -0.31529397781254
H           -1.81730553310544        2.59027772052715        1.27054754468394
H           -2.50887592939111        2.79179197527861       -0.34616790548377
H           -3.21800288676030        1.60850198563794        0.77865356536780
H           -2.13375208147769       -3.24231599592258        1.17595811108916
H           -0.96374585613067       -3.64277979285320       -0.21078523523513
H           -2.80516070667336        0.30916103236022       -1.13019815637453
H            1.74783992507537       -3.08385475842289        0.34348445153283
25
 energy: -42.167142668923 gnorm: 0.054116715739 xtb: 6.6.1 (8d0f1dd)
C            2.83695135189905        1.18633910124983       -0.53133676755312
N            2.12105722358920       -0.00570053509103       -0.16692377957988
C            2.61405949814354       -1.23152387246512       -0.12395077963917
N            1.64053508257994       -2.08916722849463        0.21081414609754
C            0.46997999132039       -1.38975182262789        0.40016665750825
C            0.78521251172634       -0.05499807828544        0.14649321329139
C           -0.03456701081023        1.15777113430233        0.33087949236803
O            0.42455944394024        2.16793081117419        0.80759983092949
N           -1.37712383344447        1.03913235451480       -0.03490474262754
C           -2.28857383884375        2.06601956893040        0.43620199034334
C           -1.84848653359228        0.16601466940002       -0.98842483023768
O           -1.19108902898685       -0.64817048828279       -1.58417202880915
N           -0.67251340062362       -1.88957131662290        0.89009192471720
C           -1.25243474523317       -2.97521988716018        0.60226614268236
H            2.66126963916009        1.96255396191166        0.21440887774022
H            3.89990388701909        0.97137816590905       -0.60237459447992
H            2.47879893718145        1.55476632427206       -1.49458660279747
H            3.63405656103420       -1.49901037977705       -0.32109333634937
H           -1.81547129089982        2.59001838981398        1.26558792359207
H           -2.50688885933259        2.78811009506796       -0.35192277858276
H           -3.21490760385509        1.60530085824142        0.77639855988266
H           -2.12757788042878       -3.23847484698116        1.17683863740527
H           -0.95978678000590       -3.63655273437200       -0.21195103149031
H           -2.86816046626533        0.30611305423131       -1.15279264493055
H            1.75162865883177       -3.08506875725784        0.33785813841960
25
 energy: -42.167627826397 gnorm: 0.049506258399 xtb: 6.6.1 (8d0f1dd)
C            2.83925972608510        1.18542376996788       -0.52868305788897
N            2.12156275628930       -0.00662754538227       -0.16715220755669
C            2.61626319708207       -1.23235679149448       -0.12479742766999
N            1.64384489000060       -2.09098878150364        0.20971512325293
C            0.47332605590586       -1.39182229629392        0.40092303653261
C            0.78485630506547       -0.05726187387348        0.14465932261576
C           -0.04154343951477        1.15267616585922        0.32445332881782
O            0.41383301510205        2.16423263450868        0.80125343374495
N           -1.38291418951913        1.03880250011332       -0.03896986992427
C           -2.28725037570327        2.07218486396484        0.43811087471177
C           -1.86054712158595        0.16582203605328       -0.99214532548320
O           -1.18781531754413       -0.64402211572080       -1.57499716200383
N           -0.66868308848548       -1.89179734205000        0.89176624011855
C           -1.24942628580437       -2.97640542133789        0.60219700336346
H            2.66348421415959        1.96096545743877        0.21764858520802
H            3.90238115423340        0.96909516660245       -0.59711065781063
H            2.48438637538466        1.55516088536346       -1.49237431879428
H            3.63673140531746       -1.49931292212120       -0.32183842710123
H           -1.81271550790092        2.59616738697719        1.26579655303358
H           -2.50660251237838        2.79396522159599       -0.34961494664478
H           -3.21401624555374        1.61500678639925        0.78058435937827
H           -2.12247724849174       -3.24163462958306        1.17918222686451
H           -0.95635012866650       -3.63709702775656       -0.21199314629883
H           -2.88548757676221        0.30512312989096       -1.16183674348772
H            1.75633145738846       -3.08706071601700        0.33639482092270
25
 energy: -42.168259598412 gnorm: 0.038234037399 xtb: 6.6.1 (8d0f1dd)
C            2.84020213847986        1.18451429613435       -0.52483492710979
N            2.11905164371049       -0.00769713693906       -0.17008170190571
C            2.61903962913147       -1.23214120313098       -0.12612371378662
N            1.65028460406107       -2.09413696665433        0.20956377609881
C            0.47855870237353       -1.39735962592198        0.40132505571197
C            0.78176579705733       -0.06236638010973        0.14037920412495
C           -0.05454826720451        1.14343341369178        0.31360658159352
O            0.40008211656972        2.15709192787685        0.78886002989927
N           -1.39286189328488        1.04010250819925       -0.04399721671390
C           -2.28546187919070        2.08459636233629        0.44153675441086
C           -1.87165403474204        0.16591877911098       -0.99541483717161
O           -1.18597404993736       -0.64149117259318       -1.56685589374727
N           -0.66192807856339       -1.89896222157611        0.89449397468071
C           -1.24261883980962       -2.98334846122486        0.60438232781506
H            2.66286955340370        1.95791016571865        0.22322618483118
H            3.90372055751243        0.96573659748219       -0.58753806509916
H            2.49206851632829        1.55765739072616       -1.48909000007147
H            3.64077416101607       -1.49671360997048       -0.32190989495743
H           -1.80463003580733        2.60622152207578        1.26556638907283
H           -2.50466395197848        2.80653463504738       -0.34562916841791
H           -3.21365199581255        1.63481337941298        0.78822771815227
H           -2.11669184451620       -3.24751187444342        1.18062824534634
H           -0.95171550826598       -3.64028876031999       -0.21281212617604
H           -2.90797391747073        0.30591464840926       -1.17356637250749
H            1.76638839104327       -3.09018967173680        0.33722929382714
25
 energy: -42.168746668260 gnorm: 0.024876188956 xtb: 6.6.1 (8d0f1dd)
C            2.83799527823602        1.18466316055798       -0.52171156518826
N            2.11426093148738       -0.00831746196835       -0.17433480300350
C            2.62031163062557       -1.23050157420394       -0.12610639715728
N            1.65551919691496       -2.09655256973170        0.21102186930046
C            0.48120622392009       -1.40378721993016        0.39974347676007
C            0.77721186504108       -0.06785397775883        0.13546194403062
C           -0.06359796258433        1.13615721888800        0.30513749781396
O            0.39705697448779        2.15003094800867        0.77820595911541
N           -1.40003795248350        1.04373340602109       -0.04706761228262
C           -2.28281124820464        2.09695272658501        0.44312424279808
C           -1.87681780846077        0.16818658383232       -0.99526829263468
O           -1.19314872310310       -0.64245932011581       -1.56424151150551
N           -0.65825805906403       -1.90781915112220        0.89385581871399
C           -1.23865988169121       -2.99219471769070        0.60286197756463
H            2.65657056175260        1.95560534744596        0.22795935828760
H            3.90186036893916        0.96433725408211       -0.57727101863595
H            2.49741754551607        1.56162059373705       -1.48689601884820
H            3.64363194825636       -1.49131880029510       -0.31905979507329
H           -1.79299055075044        2.61448792985697        1.26352178032516
H           -2.49963016492033        2.81919476974277       -0.34416821320172
H           -3.21270267440773        1.65421475831730        0.79372103444434
H           -2.10819625157903       -3.26042907186895        1.18438441735269
H           -0.94524451454021       -3.64913036706378       -0.21283253979301
H           -2.92643675856413        0.31142088472168       -1.18013401404082
H            1.77592153927982       -3.09200280844644        0.34126402275836
25
 energy: -42.169111238161 gnorm: 0.012162370470 xtb: 6.6.1 (8d0f1dd)
C            2.83291900132262        1.18612275942096       -0.51973644186735
N            2.10888304851903       -0.00840857930134       -0.17833227480802
C            2.62042716693783       -1.22777959398794       -0.12469156008017
N            1.65898769471225       -2.09767299852895        0.21310975190844
C            0.48101031352432       -1.41016126962250        0.39622027255476
C            0.77230490288599       -0.07289079557268        0.13045511431781
C           -0.06536626415203        1.13258735862509        0.30160371992945
O            0.40580547954579        2.14393162732511        0.77307782907568
N           -1.40228228668892        1.04856912566174       -0.04735758683656
C           -2.27886860176813        2.10697847258235        0.44139331330884
C           -1.87790586368189        0.17161767456366       -0.99071479525858
O           -1.20861849573741       -0.64788079855801       -1.56348469269606
N           -0.65638289361778       -1.91853371784405        0.89159271689327
C           -1.23295522068704       -3.00570345433041        0.60301396371909
H            2.64515085846236        1.95528150024320        0.23042312237228
H            3.89711352278506        0.96638441645995       -0.56829865748790
H            2.49863035302200        1.56530509880952       -1.48629539368891
H            3.64536638746906       -1.48409410211886       -0.31391014914675
H           -1.78061632570354        2.62116519534323        1.25887311154177
H           -2.49173620790331        2.82921170841612       -0.34702700832123
H           -3.21066889130546        1.67055593506455        0.79518837949393
H           -2.10315926755413       -3.27409166084231        1.18324865960198
H           -0.94021438582025       -3.66041000479374       -0.21473151636214
H           -2.94126857846631        0.32010483928518       -1.17974469175302
H            1.78387606800337       -3.09195019469895        0.34729643148992
25
 energy: -42.169262686554 gnorm: 0.005491081848 xtb: 6.6.1 (8d0f1dd)
C            2.83039776491115        1.18721033217800       -0.51906335406741
N            2.10735734185728       -0.00783507237653       -0.17784468709607
C            2.61987409466748       -1.22608564971750       -0.12223361093857
N            1.65844863355146       -2.09693306174192        0.21350110610128
C            0.47847409137417       -1.41177310860833        0.39282248449508
C            0.77036980600613       -0.07373702727297        0.12882464859145
C           -0.06069729397153        1.13486198268320        0.30436154629599
O            0.41601926899525        2.14300495048324        0.77711520574856
N           -1.39984159004652        1.05144525678922       -0.04535234273643
C           -2.27600252737580        2.11011159473566        0.43742072879879
C           -1.87695655063161        0.17320419703315       -0.98465260172666
O           -1.22405756632463       -0.65614353578728       -1.56228817976877
N           -0.65816437599594       -1.92284408823634        0.88692583317510
C           -1.23238553678371       -3.01143299594554        0.59870760967922
H            2.63954137275705        1.95683118111520        0.22985133328959
H            3.89447357672910        0.96875432015085       -0.56574720422083
H            2.49705074008538        1.56548744438770       -1.48648141737584
H            3.64523577315511       -1.48054595687930       -0.31019928161950
H           -1.77575933101207        2.62498368928064        1.25416680231572
H           -2.48655741651580        2.83144378874945       -0.35267171845923
H           -3.20881082592591        1.67660187489222        0.79238748531136
H           -2.09826996293073       -3.28487671058500        1.18304116959787
H           -0.93556021651684       -3.66904175847723       -0.21576170290265
H           -2.94831940569951        0.32611263706901       -1.17439539148136
H            1.78457164974449       -3.09056574231866        0.34873715689383
