      -----------------------------------------------------------      
     |                   =====================                   |     
     |                           x T B                           |     
     |                   =====================                   |     
     |                         S. Grimme                         |     
     |          Mulliken Center for Theoretical Chemistry        |     
     |                    University of Bonn                     |     
      -----------------------------------------------------------      

   * xtb version 6.6.1 (8d0f1dd) compiled by 'conda@1efc2f54142f' on 2023-08-01

   xtb is free software: you can redistribute it and/or modify it under
   the terms of the GNU Lesser General Public License as published by
   the Free Software Foundation, either version 3 of the License, or
   (at your option) any later version.
   
   xtb is distributed in the hope that it will be useful,
   but WITHOUT ANY WARRANTY; without even the implied warranty of
   MERCHANTABILITY or FITNESS FOR A PARTICULAR PURPOSE.  See the
   GNU Lesser General Public License for more details.
   
   Cite this work as:
   * C. Bannwarth, E. Caldeweyher, S. Ehlert, A. Hansen, P. Pracht,
     J. Seibert, S. Spicher, S. Grimme, WIREs Comput. Mol. Sci., 2020, 11,
     e01493. DOI: 10.1002/wcms.1493
   
   for GFN2-xTB:
   * C. Bannwarth, S. Ehlert and S. Grimme., J. Chem. Theory Comput., 2019,
     15, 1652-1671. DOI: 10.1021/acs.jctc.8b01176
   for GFN1-xTB:
   * S. Grimme, C. Bannwarth, P. Shushkov, J. Chem. Theory Comput., 2017,
     13, 1989-2009. DOI: 10.1021/acs.jctc.7b00118
   for GFN0-xTB:
   * P. Pracht, E. Caldeweyher, S. Ehlert, S. Grimme, ChemRxiv, 2019, preprint.
     DOI: 10.26434/chemrxiv.8326202.v1
   for GFN-FF:
   * S. Spicher and S. Grimme, Angew. Chem. Int. Ed., 2020, 59, 15665-15673.
     DOI: 10.1002/anie.202004239
   
   for ALPB and GBSA implicit solvation:
   * S. Ehlert, M. Stahn, S. Spicher, S. Grimme, J. Chem. Theory Comput.,
     2021, 17, 4250-4261. DOI: 10.1021/acs.jctc.1c00471
   
   for DFT-D4:
   * E. Caldeweyher, C. Bannwarth and S. Grimme, J. Chem. Phys., 2017,
     147, 034112. DOI: 10.1063/1.4993215
   * E. Caldeweyher, S. Ehlert, A. Hansen, H. Neugebauer, S. Spicher,
     C. Bannwarth and S. Grimme, J. Chem. Phys., 2019, 150, 154122.
     DOI: 10.1063/1.5090222
   * E. Caldeweyher, J.-M. Mewes, S. Ehlert and S. Grimme, Phys. Chem. Chem. Phys.
     2020, 22, 8499-8512. DOI: 10.1039/D0CP00502A
   
   for sTDA-xTB:
   * S. Grimme and C. Bannwarth, J. Chem. Phys., 2016, 145, 054103.
     DOI: 10.1063/1.4959605
   
   in the mass-spec context:
   * V. Asgeirsson, C. Bauer and S. Grimme, Chem. Sci., 2017, 8, 4879.
     DOI: 10.1039/c7sc00601b
   * J. Koopman and S. Grimme, ACS Omega 2019, 4, 12, 15120-15133.
     DOI: 10.1021/acsomega.9b02011
   
   for metadynamics refer to:
   * S. Grimme, J. Chem. Theory Comput., 2019, 155, 2847-2862
     DOI: 10.1021/acs.jctc.9b00143
   
   for SPH calculations refer to:
   * S. Spicher and S. Grimme, J. Chem. Theory Comput., 2021, 17, 1701-1714
     DOI: 10.1021/acs.jctc.0c01306
   
   with help from (in alphabetical order)
   P. Atkinson, C. Bannwarth, F. Bohle, G. Brandenburg, E. Caldeweyher
   M. Checinski, S. Dohm, S. Ehlert, S. Ehrlich, I. Gerasimov, C. Hölzer
   A. Katbashev, J. Koopman, C. Lavigne, S. Lehtola, F. März, M. Müller,
   F. Musil, H. Neugebauer, J. Pisarek, C. Plett, P. Pracht, F. Pultar,
   J. Seibert, P. Shushkov, S. Spicher, M. Stahn, M. Steiner, T. Strunk,
   J. Stückrath, T. Rose, and J. Unsleber
   
 * started run on 2024/06/05 at 19:59:18.719     

           -------------------------------------------------
          |                Calculation Setup                |
           -------------------------------------------------

          program call               : xtb xtbopt.xyz --opt crude --input .xc2 --gfn2
          hostname                   : n-62-31-11
          coordinate file            : xtbopt.xyz
          omp threads                :                     1

   ID    Z sym.   atoms
    1    6 C      1, 3, 5-7, 10, 11, 14
    2    7 N      2, 4, 9, 13
    3    8 O      8, 12
    4    1 H      15-25
########################################################################
[WARNING] Please study the warnings concerning your input carefully
-1- readin_getIntValue: could not parse ''
########################################################################

           -------------------------------------------------
          |                 G F N 2 - x T B                 |
           -------------------------------------------------

        Reference                      10.1021/acs.jctc.8b01176
      * Hamiltonian:
        H0-scaling (s, p, d)           1.850000    2.230000    2.230000
        zeta-weighting                 0.500000
      * Dispersion:
        s8                             2.700000
        a1                             0.520000
        a2                             5.000000
        s9                             5.000000
      * Repulsion:
        kExp                           1.500000    1.000000
        rExp                           1.000000
      * Coulomb:
        alpha                          2.000000
        third order                    shell-resolved
        anisotropic                    true
        a3                             3.000000
        a5                             4.000000
        cn-shift                       1.200000
        cn-exp                         4.000000
        max-rad                        5.000000

q/qsh data taken from xtbrestart
CAMM data taken from xtbrestart

          ...................................................
          :                      SETUP                      :
          :.................................................:
          :  # basis functions                  67          :
          :  # atomic orbitals                  67          :
          :  # shells                           39          :
          :  # electrons                        74          :
          :  max. iterations                   250          :
          :  Hamiltonian                  GFN2-xTB          :
          :  restarted?                       true          :
          :  GBSA solvation                  false          :
          :  PC potential                    false          :
          :  electronic temp.         5000.0000000     K    :
          :  accuracy                    1.0000000          :
          :  -> integral cutoff          0.2500000E+02      :
          :  -> integral neglect         0.1000000E-07      :
          :  -> SCF convergence          0.1000000E-05 Eh   :
          :  -> wf. convergence          0.1000000E-03 e    :
          :  Broyden damping             0.4000000          :
          ...................................................

 iter      E             dE          RMSdq      gap      omega  full diag
   1    -42.6545583 -0.426546E+02  0.309E-05    1.30       0.0  T
   2    -42.6545583  0.147821E-09  0.653E-05    1.30     306.4  T
   3    -42.6545583 -0.177636E-09  0.985E-06    1.30    2031.4  T

   *** convergence criteria satisfied after 3 iterations ***

         #    Occupation            Energy/Eh            Energy/eV
      -------------------------------------------------------------
         1        2.0000           -0.9299887             -25.3063
       ...           ...                  ...                  ...
        31        1.9998           -0.6096034             -16.5882
        32        1.9992           -0.5899990             -16.0547
        33        1.9991           -0.5870598             -15.9747
        34        1.9985           -0.5788114             -15.7503
        35        1.9531           -0.5243812             -14.2691
        36        1.7553           -0.4965240             -13.5111
        37        1.7070           -0.4932350             -13.4216 (HOMO)
        38        0.4466           -0.4455885             -12.1251 (LUMO)
        39        0.1085           -0.4200613             -11.4305
        40        0.0298           -0.3989560             -10.8561
        41        0.0033           -0.3638884              -9.9019
        42        0.0002           -0.3193410              -8.6897
       ...           ...                  ...                  ...
        67                          0.9183342              24.9891
      -------------------------------------------------------------
                  HL-Gap            0.0476465 Eh            1.2965 eV
             Fermi-level           -0.4653282 Eh          -12.6622 eV

 SCC (total)                   0 d,  0 h,  0 min,  0.024 sec
 SCC setup                      ...        0 min,  0.000 sec (  0.995%)
 Dispersion                     ...        0 min,  0.000 sec (  1.175%)
 classical contributions        ...        0 min,  0.000 sec (  0.318%)
 integral evaluation            ...        0 min,  0.005 sec ( 20.287%)
 iterations                     ...        0 min,  0.006 sec ( 24.310%)
 molecular gradient             ...        0 min,  0.013 sec ( 52.271%)
 printout                       ...        0 min,  0.000 sec (  0.588%)

         :::::::::::::::::::::::::::::::::::::::::::::::::::::
         ::                     SUMMARY                     ::
         :::::::::::::::::::::::::::::::::::::::::::::::::::::
         :: total energy             -42.109685267881 Eh    ::
         :: gradient norm              0.002728246172 Eh/a0 ::
         :: HOMO-LUMO gap              1.296526673437 eV    ::
         ::.................................................::
         :: SCC energy               -42.654558336982 Eh    ::
         :: -> isotropic ES            0.144388670850 Eh    ::
         :: -> anisotropic ES         -0.005449242145 Eh    ::
         :: -> anisotropic XC          0.018183196269 Eh    ::
         :: -> dispersion             -0.021496163254 Eh    ::
         :: repulsion energy           0.544654581896 Eh    ::
         :: add. restraining           0.000000000000 Eh    ::
         :: total charge               1.000000000000 e     ::
         :::::::::::::::::::::::::::::::::::::::::::::::::::::

      ----------------------------------------------------------- 
     |                   =====================                   |
     |                        A N C O P T                        |
     |                   =====================                   |
     |               Approximate Normal Coordinate               |
     |                Rational Function Optimizer                |
      ----------------------------------------------------------- 

          ...................................................
          :                      SETUP                      :
          :.................................................:
          :   optimization level             crude          :
          :   max. optcycles                   200          :
          :   ANC micro-cycles                  20          :
          :   degrees of freedom                69          :
          :.................................................:
          :   RF solver                   davidson          :
          :   write xtbopt.log                true          :
          :   linear?                        false          :
          :   energy convergence         0.5000000E-03 Eh   :
          :   grad. convergence          0.1000000E-01 Eh/α :
          :   maxmium RF displ.          1.0000000          :
          :   Hlow (freq-cutoff)         0.1000000E-01      :
          :   Hmax (freq-cutoff)         5.0000000          :
          :   S6 in model hess.         20.0000000          :
          ...................................................

generating ANC from model Hessian ...
Using Lindh-Hessian (1995)
 Shifting diagonal of input Hessian by    9.4800920240297112E-003
 Lowest  eigenvalues of input Hessian
    0.000000    0.000000    0.000000    0.000000    0.000000    0.000000
    0.010000    0.010434    0.011709    0.012309    0.013666    0.015398
    0.016404    0.021950    0.023377    0.024115    0.026787    0.030010
 Highest eigenvalues
    2.010884    2.120261    2.139688    2.230219    2.379088    2.894645


........................................................................
.............................. CYCLE    1 ..............................
........................................................................

 iter      E             dE          RMSdq      gap      omega  full diag
   1    -42.6545583 -0.426546E+02  0.675E-06    1.30       0.0  T
   2    -42.6545583  0.639488E-12  0.668E-06    1.30    2992.6  T
   3    -42.6545583 -0.774492E-12  0.473E-06    1.30    4229.3  T
     SCC iter.                  ...        0 min,  0.005 sec
     gradient                   ...        0 min,  0.013 sec
 * total energy  :   -42.1096853 Eh     change       -0.2415845E-12 Eh
   gradient norm :     0.0027283 Eh/α   predicted     0.0000000E+00 (-100.00%)
   displ. norm   :     0.0982353 α      lambda       -0.1738935E-03
   maximum displ.:     0.0452829 α      in ANC's #2, #3, #4, ...

   *** GEOMETRY OPTIMIZATION CONVERGED AFTER 1 ITERATIONS ***

------------------------------------------------------------------------
 total energy gain   :        -0.0000000 Eh       -0.0000 kcal/mol
 total RMSD          :         0.0000000 a0        0.0000 Å
 total power (kW/mol):        -0.0000000 (step)   -0.0000 (real)
------------------------------------------------------------------------

 ANCopt (total)                0 d,  0 h,  0 min,  0.033 sec
 optimizer setup                ...        0 min,  0.000 sec (  1.448%)
 model hessian                  ...        0 min,  0.007 sec ( 19.937%)
 ANC generation                 ...        0 min,  0.001 sec (  2.299%)
 coordinate transformation      ...        0 min,  0.000 sec (  0.022%)
 single point calculation       ...        0 min,  0.023 sec ( 70.067%)
 optimization log               ...        0 min,  0.002 sec (  5.350%)
 hessian update                 ...        0 min,  0.000 sec (  0.003%)
 rational function              ...        0 min,  0.000 sec (  0.603%)

================
 final structure:
================
25
 xtb: 6.6.1 (8d0f1dd)
C            2.65765474602136        1.32557413486543       -0.01327991400079
N            1.90787592696482        0.09997238302527        0.00749183137061
C            2.38965579419257       -1.13427946535914       -0.13088041733779
N            1.37652300293799       -2.01092075946095       -0.01745739317326
C            0.21741181428636       -1.29030164826814        0.19412662070083
C            0.55673875115356        0.03879355332020        0.19980669313662
C           -0.26742935992518        1.30621837864971        0.45632700850489
O           -0.29483585966210        1.72020726282911        1.61298957598382
N           -0.78528910349410        1.76574015602819       -0.64502480328968
C           -1.52801400668943        2.97508563053311       -0.70271835121894
C           -1.73561514716170       -1.54135560129269        1.43130869977391
O           -2.34546280094895       -1.15076155798732        2.33276743220231
N           -1.02343158215678       -1.91710687259125        0.44165939881509
C           -1.45962707995561       -2.99601000106536       -0.46097945523459
H            2.45185370794321        1.89101053439515        0.89760097719374
H            3.72095819412414        1.10891131513202       -0.07783247379925
H            2.35264514606745        1.93405528931830       -0.86605654596284
H            3.41538586331510       -1.39141843892245       -0.30450388711673
H           -0.97105208782376        3.81127014651781       -0.26640389735837
H           -1.73862855306892        3.18511149282449       -1.75141984294466
H           -2.47520034994227        2.88461254874780       -0.15980481669395
H           -1.00403568368384       -3.94466570812963       -0.17416492510853
H           -1.17879241464206       -2.73836027093404       -1.48066275239985
H           -2.54095184105992       -3.09886789007685       -0.40651860220382
H            1.46209443730796       -3.01427607049810       -0.08519854193926

 Bond Distances (Angstroems)
 ---------------------------
C1-N2=1.4369         C1-H15=1.0917        C1-H16=1.0871        C1-H17=1.0911        N2-C1=1.4369         N2-C3=1.3322         
N2-C6=1.3661         C3-N2=1.3322         C3-N4=1.3445         C3-H18=1.0716        N4-C3=1.3445         N4-C5=1.3812         
N4-H25=1.0093        C5-N4=1.3812         C5-C6=1.3717         C5-N13=1.4120        C6-N2=1.3661         C6-C5=1.3717         
C6-C7=1.5334         C7-C6=1.5334         C7-O8=1.2288         C7-N9=1.3009         O8-C7=1.2288         N9-C7=1.3009         
N9-C10=1.4204        C10-N9=1.4204        C10-H19=1.0953       C10-H20=1.0901       C10-H21=1.0955       C11-O12=1.1563       
C11-N13=1.2759       O12-C11=1.1563       N13-C5=1.4120        N13-C11=1.2759       N13-C14=1.4728       C14-N13=1.4728       
C14-H22=1.0908       C14-H23=1.0886       C14-H24=1.0876       H15-C1=1.0917        H16-C1=1.0871        H17-C1=1.0911        
H18-C3=1.0716        H19-C10=1.0953       H20-C10=1.0901       H21-C10=1.0955       H22-C14=1.0908       H23-C14=1.0886       
H24-C14=1.0876       H25-N4=1.0093        
 C  H  Rav=1.0889 sigma=0.0064  Rmin=1.0716  Rmax=1.0955    10
 C  C  Rav=1.4526 sigma=0.0808  Rmin=1.3717  Rmax=1.5334     2
 N  H  Rav=1.0093 sigma=0.0000  Rmin=1.0093  Rmax=1.0093     1
 N  C  Rav=1.3743 sigma=0.0592  Rmin=1.2759  Rmax=1.4728    10
 O  C  Rav=1.1926 sigma=0.0362  Rmin=1.1563  Rmax=1.2288     2

 selected bond angles (degree)
 --------------------
H15-C1-N2=109.35               H16-C1-N2=109.95               H16-C1-H15=109.70              H17-C1-N2=109.94               
H17-C1-H15=108.09              H17-C1-H16=109.77              C3-N2-C1=126.87                C6-N2-C1=123.80                
C6-N2-C3=109.32                N4-C3-N2=108.83                H18-C3-N2=125.82               H18-C3-N4=125.34               
C5-N4-C3=107.77                H25-N4-C3=125.35               H25-N4-C5=126.88               C6-C5-N4=107.37                
N13-C5-N4=122.19               N13-C5-C6=130.30               C5-C6-N2=106.71                C7-C6-N2=121.21                
C7-C6-C5=131.96                O8-C7-C6=116.61                N9-C7-C6=111.36                N9-C7-O8=131.99                
C10-N9-C7=122.91               H19-C10-N9=111.59              H20-C10-N9=107.71              H20-C10-H19=109.53             
H21-C10-N9=111.20              H21-C10-H19=107.77             H21-C10-H20=109.00             

 selected dihedral angles (degree)
 ---------------------------------
C3-N2-C1-H15=234.72           C3-N2-C1-H16=355.23           C3-N2-C1-H17=116.19           C6-N2-C1-H15= 53.62           
C6-N2-C1-H16=174.13           C6-N2-C1-H17=295.09           N4-C3-N2-C1=178.34            N4-C3-N2-C6=359.32            
H18-C3-N2-C1=358.33           H18-C3-N2-C6=179.30           C5-N4-C3-N2=  0.27            C5-N4-C3-H18=180.29           
H25-N4-C3-N2=179.79           H25-N4-C3-H18=359.81          C6-C5-N4-C3=  0.24            C6-C5-N4-H25=180.73           
N13-C5-N4-C3=184.14           N13-C5-N4-H25=  4.63          C5-C6-N2-C1=181.76            C5-C6-N2-C3=  0.82            
C7-C6-N2-C1=358.05            C7-C6-N2-C3=177.12            N2-C6-C5-N4=359.36            N2-C6-C5-N13=175.03           
C7-C6-C5-N4=183.62            C7-C6-C5-N13=359.29           O8-C7-C6-N2=276.95            O8-C7-C6-C5= 92.19            
N9-C7-C6-N2= 95.04            N9-C7-C6-C5=270.27            C10-N9-C7-C6=183.88           C10-N9-C7-O8=  1.58           
H19-C10-N9-C7= 52.99          H20-C10-N9-C7=173.25          H21-C10-N9-C7=292.62          
           -------------------------------------------------
          |                Final Singlepoint                |
           -------------------------------------------------

          ...................................................
          :                      SETUP                      :
          :.................................................:
          :  # basis functions                  67          :
          :  # atomic orbitals                  67          :
          :  # shells                           39          :
          :  # electrons                        74          :
          :  max. iterations                   250          :
          :  Hamiltonian                  GFN2-xTB          :
          :  restarted?                      false          :
          :  GBSA solvation                  false          :
          :  PC potential                    false          :
          :  electronic temp.         5000.0000000     K    :
          :  accuracy                    1.0000000          :
          :  -> integral cutoff          0.2500000E+02      :
          :  -> integral neglect         0.1000000E-07      :
          :  -> SCF convergence          0.1000000E-05 Eh   :
          :  -> wf. convergence          0.1000000E-03 e    :
          :  Broyden damping             0.4000000          :
          ...................................................

 iter      E             dE          RMSdq      gap      omega  full diag
   1    -42.6545583 -0.426546E+02  0.263E-06    1.30       0.0  T
   2    -42.6545583  0.412115E-12  0.376E-06    1.30    5320.8  T
   3    -42.6545583 -0.447642E-12  0.149E-06    1.30   13401.4  T

   *** convergence criteria satisfied after 3 iterations ***

         #    Occupation            Energy/Eh            Energy/eV
      -------------------------------------------------------------
         1        2.0000           -0.9299887             -25.3063
       ...           ...                  ...                  ...
        31        1.9998           -0.6096034             -16.5882
        32        1.9992           -0.5899990             -16.0547
        33        1.9991           -0.5870598             -15.9747
        34        1.9985           -0.5788114             -15.7503
        35        1.9531           -0.5243812             -14.2691
        36        1.7553           -0.4965240             -13.5111
        37        1.7070           -0.4932350             -13.4216 (HOMO)
        38        0.4466           -0.4455885             -12.1251 (LUMO)
        39        0.1085           -0.4200613             -11.4304
        40        0.0298           -0.3989560             -10.8561
        41        0.0033           -0.3638884              -9.9019
        42        0.0002           -0.3193411              -8.6897
       ...           ...                  ...                  ...
        67                          0.9183343              24.9891
      -------------------------------------------------------------
                  HL-Gap            0.0476465 Eh            1.2965 eV
             Fermi-level           -0.4653282 Eh          -12.6622 eV

 SCC (total)                   0 d,  0 h,  0 min,  0.023 sec
 SCC setup                      ...        0 min,  0.000 sec (  0.869%)
 Dispersion                     ...        0 min,  0.000 sec (  0.761%)
 classical contributions        ...        0 min,  0.000 sec (  0.320%)
 integral evaluation            ...        0 min,  0.005 sec ( 20.465%)
 iterations                     ...        0 min,  0.005 sec ( 21.398%)
 molecular gradient             ...        0 min,  0.013 sec ( 55.663%)
 printout                       ...        0 min,  0.000 sec (  0.474%)

         :::::::::::::::::::::::::::::::::::::::::::::::::::::
         ::                     SUMMARY                     ::
         :::::::::::::::::::::::::::::::::::::::::::::::::::::
         :: total energy             -42.109685267882 Eh    ::
         :: gradient norm              0.002728264415 Eh/a0 ::
         :: HOMO-LUMO gap              1.296528100173 eV    ::
         ::.................................................::
         :: SCC energy               -42.654558336983 Eh    ::
         :: -> isotropic ES            0.144388801657 Eh    ::
         :: -> anisotropic ES         -0.005449244002 Eh    ::
         :: -> anisotropic XC          0.018183197966 Eh    ::
         :: -> dispersion             -0.021496163593 Eh    ::
         :: repulsion energy           0.544654581896 Eh    ::
         :: add. restraining           0.000000000000 Eh    ::
         :: total charge               1.000000000000 e     ::
         :::::::::::::::::::::::::::::::::::::::::::::::::::::

           -------------------------------------------------
          |                Property Printout                |
           -------------------------------------------------

    * Orbital Energies and Occupations

         #    Occupation            Energy/Eh            Energy/eV
      -------------------------------------------------------------
         1        2.0000           -0.9299887             -25.3063
       ...           ...                  ...                  ...
        25        2.0000           -0.6573924             -17.8886
        26        2.0000           -0.6475801             -17.6216
        27        2.0000           -0.6412878             -17.4503
        28        2.0000           -0.6356676             -17.2974
        29        1.9999           -0.6305947             -17.1594
        30        1.9999           -0.6233175             -16.9613
        31        1.9998           -0.6096034             -16.5882
        32        1.9992           -0.5899990             -16.0547
        33        1.9991           -0.5870598             -15.9747
        34        1.9985           -0.5788114             -15.7503
        35        1.9531           -0.5243812             -14.2691
        36        1.7553           -0.4965240             -13.5111
        37        1.7070           -0.4932350             -13.4216 (HOMO)
        38        0.4466           -0.4455885             -12.1251 (LUMO)
        39        0.1085           -0.4200613             -11.4304
        40        0.0298           -0.3989560             -10.8561
        41        0.0033           -0.3638884              -9.9019
        42        0.0002           -0.3193411              -8.6897
        43        0.0000           -0.2313617              -6.2957
        44                         -0.1885410              -5.1305
        45                         -0.1373059              -3.7363
        46                         -0.0781714              -2.1272
        47                         -0.0507130              -1.3800
        48                         -0.0453341              -1.2336
       ...                                ...                  ...
        67                          0.9183343              24.9891
      -------------------------------------------------------------
                  HL-Gap            0.0476465 Eh            1.2965 eV
             Fermi-level           -0.4653282 Eh          -12.6622 eV

     #   Z          covCN         q      C6AA      α(0)
     1   6 C        3.693    -0.086    22.322     6.760
     2   7 N        2.862     0.083    19.807     6.610
     3   6 C        3.032     0.048    26.901     8.507
     4   7 N        2.799    -0.059    22.381     7.026
     5   6 C        3.064     0.081    26.125     8.382
     6   6 C        3.090     0.010    27.692     8.626
     7   6 C        2.760     0.275    22.354     7.743
     8   8 O        0.858    -0.420    22.081     6.300
     9   7 N        1.834    -0.267    27.779     7.810
    10   6 C        3.699    -0.021    21.109     6.571
    11   6 C        1.823     0.284    24.699     8.030
    12   8 O        0.856    -0.101    16.526     5.450
    13   7 N        2.727     0.020    20.901     6.790
    14   6 C        3.701    -0.081    22.210     6.739
    15   1 H        0.924     0.122     1.596     1.976
    16   1 H        0.925     0.101     1.776     2.084
    17   1 H        0.924     0.114     1.660     2.015
    18   1 H        0.926     0.123     1.590     1.972
    19   1 H        0.924     0.077     2.013     2.219
    20   1 H        0.925     0.079     1.994     2.208
    21   1 H        0.924     0.077     2.008     2.216
    22   1 H        0.924     0.097     1.814     2.106
    23   1 H        0.925     0.108     1.716     2.048
    24   1 H        0.925     0.111     1.690     2.033
    25   1 H        0.860     0.225     0.987     1.556

 Mol. C6AA /au·bohr⁶  :       6600.735887
 Mol. C8AA /au·bohr⁸  :     151388.787812
 Mol. α(0) /au        :        123.777455


Wiberg/Mayer (AO) data.
largest (>0.10) Wiberg bond orders for each atom

 ---------------------------------------------------------------------------
     #   Z sym  total        # sym  WBO       # sym  WBO       # sym  WBO
 ---------------------------------------------------------------------------
     1   6 C    3.924 --     2 N    0.988    16 H    0.975    17 H    0.957
                            15 H    0.957
     2   7 N    3.689 --     3 C    1.353     6 C    1.207     1 C    0.988
     3   6 C    3.824 --     2 N    1.353     4 N    1.299    18 H    0.952
     4   7 N    3.555 --     3 C    1.299     5 C    1.156    25 H    0.921
     5   6 C    3.853 --     6 C    1.495     4 N    1.156    13 N    0.990
     6   6 C    3.887 --     5 C    1.495     2 N    1.207     7 C    0.888
     7   6 C    3.930 --     8 O    1.547     9 N    1.435     6 C    0.888
     8   8 O    1.832 --     7 C    1.547     9 N    0.177
     9   7 N    2.711 --     7 C    1.435    10 C    1.053     8 O    0.177
    10   6 C    3.910 --     9 N    1.053    20 H    0.957    19 H    0.936
                            21 H    0.933
    11   6 C    3.548 --    12 O    2.048    13 N    1.421
    12   8 O    2.292 --    11 C    2.048    13 N    0.184
    13   7 N    3.574 --    11 C    1.421     5 C    0.990    14 C    0.922
                            12 O    0.184
    14   6 C    3.884 --    24 H    0.973    23 H    0.972    22 H    0.971
                            13 N    0.922
    15   1 H    0.983 --     1 C    0.957
    16   1 H    0.989 --     1 C    0.975
    17   1 H    0.985 --     1 C    0.957
    18   1 H    0.984 --     3 C    0.952
    19   1 H    0.949 --    10 C    0.936
    20   1 H    0.967 --    10 C    0.957
    21   1 H    0.949 --    10 C    0.933
    22   1 H    0.990 --    14 C    0.971
    23   1 H    0.987 --    14 C    0.972
    24   1 H    0.987 --    14 C    0.973
    25   1 H    0.948 --     4 N    0.921
 ---------------------------------------------------------------------------

Topologies differ in total number of bonds
Writing topology from bond orders to xtbtopo.mol

molecular dipole:
                 x           y           z       tot (Debye)
 q only:        1.706      -3.211      -1.093
   full:        1.827      -3.488      -1.056      10.361
molecular quadrupole (traceless):
                xx          xy          yy          xz          yz          zz
 q only:       10.237       3.977      15.072       1.313      -5.061     -25.309
  q+dip:       10.671       1.374      17.351       1.306      -5.734     -28.022
   full:       10.782       2.315      17.459       2.167      -6.053     -28.241

           -------------------------------------------------
          |                Geometry Summary                 |
           -------------------------------------------------

      molecular mass/u    :      195.1988581
   center of mass at/Å    :       -0.0413608      -0.1790611       0.3438781
  moments of inertia/u·Å² :        0.6315103E+03   0.7727137E+03   0.1145545E+04
rotational constants/cm⁻¹ :        0.2669415E-01   0.2181614E-01   0.1471582E-01

 * 24 selected distances

     #   Z          #   Z                                           value/Å
     1   6 C        2   7 N                                       1.4369063
     2   7 N        3   6 C                                       1.3321549
     3   6 C        4   7 N                                       1.3445457
     4   7 N        5   6 C                                       1.3811585
     2   7 N        6   6 C                                       1.3661259
     5   6 C        6   6 C                                       1.3717396
     7   6 C        8   8 O                                       1.2288232
     7   6 C        9   7 N                                       1.3008901
     9   7 N       10   6 C                                       1.4203822
    11   6 C       12   8 O                                       1.1563330
     5   6 C       13   7 N                                       1.4120375
    11   6 C       13   7 N                                       1.2758528
    13   7 N       14   6 C                                       1.4727715 (max)
     1   6 C       15   1 H                                       1.0916852
     1   6 C       16   1 H                                       1.0870714
     1   6 C       17   1 H                                       1.0911042
     3   6 C       18   1 H                                       1.0716286
    10   6 C       19   1 H                                       1.0953454
    10   6 C       20   1 H                                       1.0900662
    10   6 C       21   1 H                                       1.0954920
    14   6 C       22   1 H                                       1.0907676
    14   6 C       23   1 H                                       1.0885797
    14   6 C       24   1 H                                       1.0875703
     4   7 N       25   1 H                                       1.0092737 (min)

 * 5 distinct bonds (by element types)

   Z      Z             #   av. dist./Å        max./Å        min./Å
   1 H    6 C          10     1.0889311     1.0954920     1.0716286
   6 C    6 C           1     1.3717396     1.3717396     1.3717396
   1 H    7 N           1     1.0092737     1.0092737     1.0092737
   6 C    7 N          10     1.3742825     1.4727715     1.2758528
   6 C    8 O           2     1.1925781     1.2288232     1.1563330


optimized geometry written to: xtbopt.xyz


           -------------------------------------------------
          | TOTAL ENERGY              -42.109685267882 Eh   |
          | GRADIENT NORM               0.002728264415 Eh/α |
          | HOMO-LUMO GAP               1.296528100173 eV   |
           -------------------------------------------------

------------------------------------------------------------------------
 * finished run on 2024/06/05 at 19:59:18.846     
------------------------------------------------------------------------
 total:
 * wall-time:     0 d,  0 h,  0 min,  0.126 sec
 *  cpu-time:     0 d,  0 h,  0 min,  0.092 sec
 * ratio c/w:     0.725 speedup
 SCF:
 * wall-time:     0 d,  0 h,  0 min,  0.024 sec
 *  cpu-time:     0 d,  0 h,  0 min,  0.024 sec
 * ratio c/w:     1.000 speedup
 ANC optimizer:
 * wall-time:     0 d,  0 h,  0 min,  0.065 sec
 *  cpu-time:     0 d,  0 h,  0 min,  0.055 sec
 * ratio c/w:     0.850 speedup

