25
 energy: -42.109685267882 gnorm: 0.002728277977 xtb: 6.6.1 (8d0f1dd)
C            2.65765474602136        1.32557413486543       -0.01327991400079
N            1.90787592696482        0.09997238302527        0.00749183137061
C            2.38965579419257       -1.13427946535914       -0.13088041733779
N            1.37652300293799       -2.01092075946095       -0.01745739317326
C            0.21741181428636       -1.29030164826814        0.19412662070083
C            0.55673875115356        0.03879355332020        0.19980669313662
C           -0.26742935992518        1.30621837864971        0.45632700850489
O           -0.29483585966210        1.72020726282911        1.61298957598382
N           -0.78528910349410        1.76574015602819       -0.64502480328968
C           -1.52801400668943        2.97508563053311       -0.70271835121894
C           -1.73561514716170       -1.54135560129269        1.43130869977391
O           -2.34546280094895       -1.15076155798732        2.33276743220231
N           -1.02343158215678       -1.91710687259125        0.44165939881509
C           -1.45962707995561       -2.99601000106536       -0.46097945523459
H            2.45185370794321        1.89101053439515        0.89760097719374
H            3.72095819412414        1.10891131513202       -0.07783247379925
H            2.35264514606745        1.93405528931830       -0.86605654596284
H            3.41538586331510       -1.39141843892245       -0.30450388711673
H           -0.97105208782376        3.81127014651781       -0.26640389735837
H           -1.73862855306892        3.18511149282449       -1.75141984294466
H           -2.47520034994227        2.88461254874780       -0.15980481669395
H           -1.00403568368384       -3.94466570812963       -0.17416492510853
H           -1.17879241464206       -2.73836027093404       -1.48066275239985
H           -2.54095184105992       -3.09886789007685       -0.40651860220382
H            1.46209443730796       -3.01427607049810       -0.08519854193926
