      -----------------------------------------------------------      
     |                   =====================                   |     
     |                           x T B                           |     
     |                   =====================                   |     
     |                         S. Grimme                         |     
     |          Mulliken Center for Theoretical Chemistry        |     
     |                    University of Bonn                     |     
      -----------------------------------------------------------      

   * xtb version 6.6.1 (8d0f1dd) compiled by 'conda@1efc2f54142f' on 2023-08-01

   xtb is free software: you can redistribute it and/or modify it under
   the terms of the GNU Lesser General Public License as published by
   the Free Software Foundation, either version 3 of the License, or
   (at your option) any later version.
   
   xtb is distributed in the hope that it will be useful,
   but WITHOUT ANY WARRANTY; without even the implied warranty of
   MERCHANTABILITY or FITNESS FOR A PARTICULAR PURPOSE.  See the
   GNU Lesser General Public License for more details.
   
   Cite this work as:
   * C. Bannwarth, E. Caldeweyher, S. Ehlert, A. Hansen, P. Pracht,
     J. Seibert, S. Spicher, S. Grimme, WIREs Comput. Mol. Sci., 2020, 11,
     e01493. DOI: 10.1002/wcms.1493
   
   for GFN2-xTB:
   * C. Bannwarth, S. Ehlert and S. Grimme., J. Chem. Theory Comput., 2019,
     15, 1652-1671. DOI: 10.1021/acs.jctc.8b01176
   for GFN1-xTB:
   * S. Grimme, C. Bannwarth, P. Shushkov, J. Chem. Theory Comput., 2017,
     13, 1989-2009. DOI: 10.1021/acs.jctc.7b00118
   for GFN0-xTB:
   * P. Pracht, E. Caldeweyher, S. Ehlert, S. Grimme, ChemRxiv, 2019, preprint.
     DOI: 10.26434/chemrxiv.8326202.v1
   for GFN-FF:
   * S. Spicher and S. Grimme, Angew. Chem. Int. Ed., 2020, 59, 15665-15673.
     DOI: 10.1002/anie.202004239
   
   for ALPB and GBSA implicit solvation:
   * S. Ehlert, M. Stahn, S. Spicher, S. Grimme, J. Chem. Theory Comput.,
     2021, 17, 4250-4261. DOI: 10.1021/acs.jctc.1c00471
   
   for DFT-D4:
   * E. Caldeweyher, C. Bannwarth and S. Grimme, J. Chem. Phys., 2017,
     147, 034112. DOI: 10.1063/1.4993215
   * E. Caldeweyher, S. Ehlert, A. Hansen, H. Neugebauer, S. Spicher,
     C. Bannwarth and S. Grimme, J. Chem. Phys., 2019, 150, 154122.
     DOI: 10.1063/1.5090222
   * E. Caldeweyher, J.-M. Mewes, S. Ehlert and S. Grimme, Phys. Chem. Chem. Phys.
     2020, 22, 8499-8512. DOI: 10.1039/D0CP00502A
   
   for sTDA-xTB:
   * S. Grimme and C. Bannwarth, J. Chem. Phys., 2016, 145, 054103.
     DOI: 10.1063/1.4959605
   
   in the mass-spec context:
   * V. Asgeirsson, C. Bauer and S. Grimme, Chem. Sci., 2017, 8, 4879.
     DOI: 10.1039/c7sc00601b
   * J. Koopman and S. Grimme, ACS Omega 2019, 4, 12, 15120-15133.
     DOI: 10.1021/acsomega.9b02011
   
   for metadynamics refer to:
   * S. Grimme, J. Chem. Theory Comput., 2019, 155, 2847-2862
     DOI: 10.1021/acs.jctc.9b00143
   
   for SPH calculations refer to:
   * S. Spicher and S. Grimme, J. Chem. Theory Comput., 2021, 17, 1701-1714
     DOI: 10.1021/acs.jctc.0c01306
   
   with help from (in alphabetical order)
   P. Atkinson, C. Bannwarth, F. Bohle, G. Brandenburg, E. Caldeweyher
   M. Checinski, S. Dohm, S. Ehlert, S. Ehrlich, I. Gerasimov, C. Hölzer
   A. Katbashev, J. Koopman, C. Lavigne, S. Lehtola, F. März, M. Müller,
   F. Musil, H. Neugebauer, J. Pisarek, C. Plett, P. Pracht, F. Pultar,
   J. Seibert, P. Shushkov, S. Spicher, M. Stahn, M. Steiner, T. Strunk,
   J. Stückrath, T. Rose, and J. Unsleber
   
 * started run on 2024/04/06 at 11:11:56.052     

           -------------------------------------------------
          |                Calculation Setup                |
           -------------------------------------------------

          program call               : xtb struc.xyz --opt loose --input .xc1 --gfn2
          hostname                   : n-62-30-23
          coordinate file            : struc.xyz
          omp threads                :                     1

   ID    Z sym.   atoms
    1    7 N      1, 17
    2    6 C      2-6, 8, 9, 11-16, 18-23, 25, 26, 28-33
    3    8 O      7, 10, 24, 27
    4    1 H      34-72
constraining bond 3 47 to    4.1400000 Å, actual value:    2.1422531 Å

           -------------------------------------------------
          |                 G F N 2 - x T B                 |
           -------------------------------------------------

        Reference                      10.1021/acs.jctc.8b01176
      * Hamiltonian:
        H0-scaling (s, p, d)           1.850000    2.230000    2.230000
        zeta-weighting                 0.500000
      * Dispersion:
        s8                             2.700000
        a1                             0.520000
        a2                             5.000000
        s9                             5.000000
      * Repulsion:
        kExp                           1.500000    1.000000
        rExp                           1.000000
      * Coulomb:
        alpha                          2.000000
        third order                    shell-resolved
        anisotropic                    true
        a3                             3.000000
        a5                             4.000000
        cn-shift                       1.200000
        cn-exp                         4.000000
        max-rad                        5.000000


          ...................................................
          :                      SETUP                      :
          :.................................................:
          :  # basis functions                 171          :
          :  # atomic orbitals                 171          :
          :  # shells                          105          :
          :  # electrons                       180          :
          :  max. iterations                   250          :
          :  Hamiltonian                  GFN2-xTB          :
          :  restarted?                      false          :
          :  GBSA solvation                  false          :
          :  PC potential                    false          :
          :  electronic temp.         5000.0000000     K    :
          :  accuracy                    1.0000000          :
          :  -> integral cutoff          0.2500000E+02      :
          :  -> integral neglect         0.1000000E-07      :
          :  -> SCF convergence          0.1000000E-05 Eh   :
          :  -> wf. convergence          0.1000000E-03 e    :
          :  Broyden damping             0.4000000          :
          ...................................................

 iter      E             dE          RMSdq      gap      omega  full diag
   1   -100.5973919 -0.100597E+03  0.374E+00    3.20       0.0  T
   2   -100.7362642 -0.138872E+00  0.221E+00    1.08       1.0  T
   3   -100.7049001  0.313641E-01  0.141E+00    3.29       1.0  T
   4   -100.7721690 -0.672689E-01  0.526E-01    1.50       1.0  T
   5   -100.7894292 -0.172602E-01  0.190E-01    1.98       1.0  T
   6   -100.7911978 -0.176856E-02  0.792E-02    1.77       1.0  T
   7   -100.7914750 -0.277198E-03  0.375E-02    1.83       1.0  T
   8   -100.7914914 -0.164582E-04  0.140E-02    1.83       1.0  T
   9   -100.7914976 -0.616739E-05  0.474E-03    1.82       2.5  T
  10   -100.7914988 -0.118227E-05  0.172E-03    1.82       6.8  T
  11   -100.7914989 -0.139928E-06  0.766E-04    1.82      15.4  T
  12   -100.7914989 -0.773143E-08  0.318E-04    1.82      37.0  T

   *** convergence criteria satisfied after 12 iterations ***

         #    Occupation            Energy/Eh            Energy/eV
      -------------------------------------------------------------
         1        2.0000           -0.8078051             -21.9815
       ...           ...                  ...                  ...
        84        1.9966           -0.5157491             -14.0342
        85        1.9959           -0.5128261             -13.9547
        86        1.9840           -0.4911498             -13.3649
        87        1.9795           -0.4872543             -13.2589
        88        1.9640           -0.4782114             -13.0128
        89        1.8920           -0.4602041             -12.5228
        90        1.8557           -0.4553147             -12.3897 (HOMO)
        91        0.3166           -0.3884132             -10.5693 (LUMO)
        92        0.0218           -0.3434697              -9.3463
        93        0.0041           -0.3169887              -8.6257
        94        0.0034           -0.3139726              -8.5436
        95        0.0029           -0.3112618              -8.4699
       ...           ...                  ...                  ...
       171                          0.5822580              15.8440
      -------------------------------------------------------------
                  HL-Gap            0.0669015 Eh            1.8205 eV
             Fermi-level           -0.4148687 Eh          -11.2892 eV

 SCC (total)                   0 d,  0 h,  0 min,  0.194 sec
 SCC setup                      ...        0 min,  0.001 sec (  0.517%)
 Dispersion                     ...        0 min,  0.002 sec (  0.883%)
 classical contributions        ...        0 min,  0.000 sec (  0.228%)
 integral evaluation            ...        0 min,  0.019 sec (  9.873%)
 iterations                     ...        0 min,  0.101 sec ( 52.129%)
 molecular gradient             ...        0 min,  0.070 sec ( 36.041%)
 printout                       ...        0 min,  0.001 sec (  0.321%)

         :::::::::::::::::::::::::::::::::::::::::::::::::::::
         ::                     SUMMARY                     ::
         :::::::::::::::::::::::::::::::::::::::::::::::::::::
         :: total energy             -98.691526356252 Eh    ::
         :: gradient norm              0.534674497082 Eh/a0 ::
         :: HOMO-LUMO gap              1.820481192090 eV    ::
         ::.................................................::
         :: SCC energy              -100.791498925389 Eh    ::
         :: -> isotropic ES            0.109302908418 Eh    ::
         :: -> anisotropic ES          0.005415138735 Eh    ::
         :: -> anisotropic XC          0.042392697176 Eh    ::
         :: -> dispersion             -0.075527661009 Eh    ::
         :: repulsion energy           1.386151658689 Eh    ::
         :: add. restraining           0.712604557943 Eh    ::
         :: total charge               1.000000000108 e     ::
         :::::::::::::::::::::::::::::::::::::::::::::::::::::

      ----------------------------------------------------------- 
     |                   =====================                   |
     |                        A N C O P T                        |
     |                   =====================                   |
     |               Approximate Normal Coordinate               |
     |                Rational Function Optimizer                |
      ----------------------------------------------------------- 

          ...................................................
          :                      SETUP                      :
          :.................................................:
          :   optimization level             loose          :
          :   max. optcycles                   200          :
          :   ANC micro-cycles                  20          :
          :   degrees of freedom               210          :
          :.................................................:
          :   RF solver                   davidson          :
          :   write xtbopt.log                true          :
          :   linear?                        false          :
          :   energy convergence         0.5000000E-04 Eh   :
          :   grad. convergence          0.4000000E-02 Eh/α :
          :   maxmium RF displ.          1.0000000          :
          :   Hlow (freq-cutoff)         0.1000000E-01      :
          :   Hmax (freq-cutoff)         5.0000000          :
          :   S6 in model hess.         20.0000000          :
          ...................................................

generating ANC from model Hessian ...
Using Lindh-Hessian (1995)
 Shifting diagonal of input Hessian by   0.11029467407064895     
 Lowest  eigenvalues of input Hessian
    0.010000    0.080342    0.000000    0.000000    0.000000    0.000000
    0.000000    0.000000    0.110391    0.110436    0.110527    0.110583
    0.110653    0.110974    0.111178    0.111440    0.111627    0.112136
 Highest eigenvalues
    2.136258    2.146126    2.151876    2.280600    2.284793    2.288469


........................................................................
.............................. CYCLE    1 ..............................
........................................................................

 iter      E             dE          RMSdq      gap      omega  full diag
   1   -100.7914989 -0.100791E+03  0.114E-04    1.82       0.0  T
   2   -100.7914989 -0.678995E-10  0.713E-05    1.82     165.2  T
   3   -100.7914989  0.665210E-10  0.496E-05    1.82     237.5  T
     SCC iter.                  ...        0 min,  0.026 sec
     gradient                   ...        0 min,  0.069 sec
 * total energy  :   -98.6915264 Eh     change       -0.4035485E-08 Eh
   gradient norm :     0.5346750 Eh/α   predicted     0.0000000E+00 (-100.00%)
   displ. norm   :     0.5945750 α      lambda       -0.2938218E+00
   maximum displ.:     0.2019991 α      in ANC's #154, #82, #129, ...

........................................................................
.............................. CYCLE    2 ..............................
........................................................................

 iter      E             dE          RMSdq      gap      omega  full diag
   1   -100.7444014 -0.100744E+03  0.394E-01    1.74       0.0  T
   2   -100.7446551 -0.253695E-03  0.265E-01    1.88       1.0  T
   3   -100.7430290  0.162618E-02  0.180E-01    1.66       1.0  T
   4   -100.7451492 -0.212025E-02  0.583E-02    1.88       1.0  T
   5   -100.7454861 -0.336897E-03  0.122E-02    1.80       1.0  T
   6   -100.7454920 -0.585391E-05  0.528E-03    1.81       2.2  T
   7   -100.7454922 -0.262298E-06  0.208E-03    1.81       5.7  T
   8   -100.7454924 -0.175790E-06  0.728E-04    1.81      16.2  T
   9   -100.7454924 -0.165750E-07  0.365E-04    1.81      32.3  T
     SCC iter.                  ...        0 min,  0.073 sec
     gradient                   ...        0 min,  0.069 sec
 * total energy  :   -98.9253445 Eh     change       -0.2338181E+00 Eh
   gradient norm :     0.3127667 Eh/α   predicted    -0.1988486E+00 ( -14.96%)
   displ. norm   :     0.6481056 α      lambda       -0.1864224E+00
   maximum displ.:     0.2721804 α      in ANC's #82, #154, #2, ...

........................................................................
.............................. CYCLE    3 ..............................
........................................................................

 iter      E             dE          RMSdq      gap      omega  full diag
   1   -100.6813161 -0.100681E+03  0.322E-01    1.75       0.0  T
   2   -100.6813495 -0.333817E-04  0.256E-01    1.89       1.0  T
   3   -100.6829411 -0.159162E-02  0.134E-01    1.73       1.0  T
   4   -100.6831885 -0.247442E-03  0.634E-02    1.88       1.0  T
   5   -100.6835461 -0.357551E-03  0.169E-02    1.79       1.0  T
   6   -100.6835605 -0.144374E-04  0.781E-03    1.81       1.5  T
   7   -100.6835633 -0.277778E-05  0.335E-03    1.80       3.5  T
   8   -100.6835638 -0.520944E-06  0.159E-03    1.80       7.4  T
   9   -100.6835639 -0.982116E-07  0.503E-04    1.80      23.4  T
  10   -100.6835639 -0.737968E-08  0.178E-04    1.80      66.2  T
     SCC iter.                  ...        0 min,  0.081 sec
     gradient                   ...        0 min,  0.069 sec
 * total energy  :   -99.0711156 Eh     change       -0.1457712E+00 Eh
   gradient norm :     0.1780065 Eh/α   predicted    -0.1323640E+00 (  -9.20%)
   displ. norm   :     0.6513463 α      lambda       -0.1071866E+00
   maximum displ.:     0.3219342 α      in ANC's #82, #2, #154, ...

........................................................................
.............................. CYCLE    4 ..............................
........................................................................

 iter      E             dE          RMSdq      gap      omega  full diag
   1   -100.6356981 -0.100636E+03  0.406E-01    1.78       0.0  T
   2   -100.6359230 -0.224966E-03  0.269E-01    1.90       1.0  T
   3   -100.6378188 -0.189575E-02  0.153E-01    1.73       1.0  T
   4   -100.6393121 -0.149335E-02  0.769E-02    1.89       1.0  T
   5   -100.6395567 -0.244542E-03  0.281E-02    1.79       1.0  T
   6   -100.6396431 -0.864115E-04  0.992E-03    1.82       1.2  T
   7   -100.6396488 -0.570579E-05  0.399E-03    1.82       3.0  T
   8   -100.6396490 -0.233176E-06  0.130E-03    1.82       9.1  T
   9   -100.6396491 -0.320468E-07  0.712E-04    1.82      16.6  T
  10   -100.6396491 -0.933254E-08  0.367E-04    1.82      32.1  T
     SCC iter.                  ...        0 min,  0.081 sec
     gradient                   ...        0 min,  0.069 sec
 * total energy  :   -99.1554841 Eh     change       -0.8436842E-01 Eh
   gradient norm :     0.1134133 Eh/α   predicted    -0.7633188E-01 (  -9.53%)
   displ. norm   :     0.6477048 α      lambda       -0.6538371E-01
   maximum displ.:     0.3356289 α      in ANC's #82, #2, #93, ...

........................................................................
.............................. CYCLE    5 ..............................
........................................................................

 iter      E             dE          RMSdq      gap      omega  full diag
   1   -100.6141719 -0.100614E+03  0.602E-01    1.57       0.0  T
   2   -100.6125779  0.159394E-02  0.336E-01    2.00       1.0  T
   3   -100.6128544 -0.276494E-03  0.276E-01    1.56       1.0  T
   4   -100.6213221 -0.846772E-02  0.921E-02    1.86       1.0  T
   5   -100.6214032 -0.810687E-04  0.467E-02    1.73       1.0  T
   6   -100.6216664 -0.263137E-03  0.142E-02    1.79       1.0  T
   7   -100.6216779 -0.115203E-04  0.630E-03    1.79       1.9  T
   8   -100.6216790 -0.115910E-05  0.315E-03    1.79       3.7  T
   9   -100.6216796 -0.583999E-06  0.140E-03    1.79       8.4  T
  10   -100.6216797 -0.889853E-07  0.482E-04    1.79      24.5  T
  11   -100.6216797 -0.492182E-08  0.203E-04    1.79      58.0  T
     SCC iter.                  ...        0 min,  0.089 sec
     gradient                   ...        0 min,  0.069 sec
 * total energy  :   -99.2068403 Eh     change       -0.5135621E-01 Eh
   gradient norm :     0.0832649 Eh/α   predicted    -0.4640679E-01 (  -9.64%)
   displ. norm   :     0.6041865 α      lambda       -0.3754422E-01
   maximum displ.:     0.3077829 α      in ANC's #82, #2, #93, ...

........................................................................
.............................. CYCLE    6 ..............................
........................................................................

 iter      E             dE          RMSdq      gap      omega  full diag
   1   -100.6169183 -0.100617E+03  0.450E-01    1.28       0.0  T
   2   -100.6136472  0.327119E-02  0.293E-01    1.45       1.0  T
   3   -100.6145379 -0.890759E-03  0.228E-01    1.26       1.0  T
   4   -100.6208502 -0.631230E-02  0.844E-02    1.42       1.0  T
   5   -100.6210870 -0.236781E-03  0.478E-02    1.38       1.0  T
   6   -100.6212820 -0.195007E-03  0.962E-03    1.40       1.2  T
   7   -100.6212891 -0.706455E-05  0.417E-03    1.40       2.8  T
   8   -100.6212895 -0.417444E-06  0.185E-03    1.40       6.4  T
   9   -100.6212895 -0.389278E-07  0.946E-04    1.40      12.5  T
  10   -100.6212896 -0.590148E-07  0.355E-04    1.40      33.2  T
     SCC iter.                  ...        0 min,  0.082 sec
     gradient                   ...        0 min,  0.075 sec
 * total energy  :   -99.2331929 Eh     change       -0.2635260E-01 Eh
   gradient norm :     0.0841470 Eh/α   predicted    -0.2562472E-01 (  -2.76%)
   displ. norm   :     0.4014403 α      lambda       -0.1555113E-01
   maximum displ.:     0.1927218 α      in ANC's #2, #82, #43, ...

........................................................................
.............................. CYCLE    7 ..............................
........................................................................

 iter      E             dE          RMSdq      gap      omega  full diag
   1   -100.6274034 -0.100627E+03  0.190E-01    1.08       0.0  T
   2   -100.6266200  0.783408E-03  0.143E-01    1.13       1.0  T
   3   -100.6269336 -0.313669E-03  0.107E-01    1.06       1.0  T
   4   -100.6280670 -0.113341E-02  0.481E-02    1.11       1.0  T
   5   -100.6282498 -0.182718E-03  0.166E-02    1.10       1.0  T
   6   -100.6282665 -0.167411E-04  0.563E-03    1.10       2.1  T
   7   -100.6282698 -0.326227E-05  0.176E-03    1.10       6.7  T
   8   -100.6282698 -0.685075E-08  0.134E-03    1.10       8.8  T
   9   -100.6282698 -0.722209E-07  0.619E-04    1.10      19.0  T
  10   -100.6282698 -0.794816E-08  0.387E-04    1.10      30.4  T
     SCC iter.                  ...        0 min,  0.081 sec
     gradient                   ...        0 min,  0.069 sec
 * total energy  :   -99.2452074 Eh     change       -0.1201456E-01 Eh
   gradient norm :     0.0910031 Eh/α   predicted    -0.9028743E-02 ( -24.85%)
   displ. norm   :     0.4495918 α      lambda       -0.1866746E-01
   maximum displ.:     0.2204885 α      in ANC's #2, #82, #193, ...

........................................................................
.............................. CYCLE    8 ..............................
........................................................................

 iter      E             dE          RMSdq      gap      omega  full diag
   1   -100.6393178 -0.100639E+03  0.224E-01    0.85       0.0  T
   2   -100.6395169 -0.199114E-03  0.135E-01    0.84       1.0  T
   3   -100.6391961  0.320797E-03  0.109E-01    0.85       1.0  T
   4   -100.6396601 -0.464005E-03  0.471E-02    0.83       1.0  T
   5   -100.6398323 -0.172138E-03  0.150E-02    0.85       1.0  T
   6   -100.6398538 -0.215042E-04  0.108E-02    0.84       1.1  T
   7   -100.6398678 -0.140630E-04  0.314E-03    0.84       3.8  T
   8   -100.6398681 -0.260512E-06  0.158E-03    0.84       7.5  T
   9   -100.6398682 -0.647606E-07  0.550E-04    0.84      21.4  T
  10   -100.6398682 -0.138581E-07  0.268E-04    0.84      43.9  T
     SCC iter.                  ...        0 min,  0.080 sec
     gradient                   ...        0 min,  0.069 sec
 * total energy  :   -99.2605107 Eh     change       -0.1530322E-01 Eh
   gradient norm :     0.0875228 Eh/α   predicted    -0.1122040E-01 ( -26.68%)
   displ. norm   :     0.5227918 α      lambda       -0.2530019E-01
   maximum displ.:     0.2369243 α      in ANC's #2, #193, #43, ...

........................................................................
.............................. CYCLE    9 ..............................
........................................................................

 iter      E             dE          RMSdq      gap      omega  full diag
   1   -100.6497451 -0.100650E+03  0.319E-01    0.75       0.0  T
   2   -100.6410082  0.873682E-02  0.362E-01    0.54       1.0  T
   3   -100.6509852 -0.997699E-02  0.167E-01    0.73       1.0  T
   4   -100.6515010 -0.515759E-03  0.918E-02    0.64       1.0  T
   5   -100.6525694 -0.106845E-02  0.192E-02    0.67       1.0  T
   6   -100.6525924 -0.230185E-04  0.934E-03    0.67       1.3  T
   7   -100.6525973 -0.481468E-05  0.323E-03    0.67       3.6  T
   8   -100.6525975 -0.284828E-06  0.106E-03    0.67      11.2  T
   9   -100.6525976 -0.378981E-07  0.368E-04    0.67      32.0  T
  10   -100.6525976 -0.249337E-08  0.210E-04    0.67      56.2  T
     SCC iter.                  ...        0 min,  0.080 sec
     gradient                   ...        0 min,  0.069 sec
 * total energy  :   -99.2777501 Eh     change       -0.1723948E-01 Eh
   gradient norm :     0.0610273 Eh/α   predicted    -0.1610772E-01 (  -6.56%)
   displ. norm   :     0.2725993 α      lambda       -0.1092691E-01
   maximum displ.:     0.1034922 α      in ANC's #2, #193, #82, ...

........................................................................
.............................. CYCLE   10 ..............................
........................................................................

 iter      E             dE          RMSdq      gap      omega  full diag
   1   -100.6633293 -0.100663E+03  0.228E-01    0.77       0.0  T
   2   -100.6513335  0.119958E-01  0.371E-01    0.52       1.0  T
   3   -100.6665040 -0.151705E-01  0.870E-02    0.71       1.0  T
   4   -100.6659083  0.595714E-03  0.796E-02    0.66       1.0  T
   5   -100.6667454 -0.837093E-03  0.118E-02    0.69       1.0  T
   6   -100.6667572 -0.118859E-04  0.508E-03    0.69       2.3  T
   7   -100.6667577 -0.434528E-06  0.318E-03    0.69       3.7  T
   8   -100.6667576  0.509327E-07  0.233E-03    0.69       5.1  T
   9   -100.6667580 -0.390559E-06  0.706E-04    0.69      16.7  T
  10   -100.6667580 -0.991912E-08  0.367E-04    0.69      32.1  T
     SCC iter.                  ...        0 min,  0.080 sec
     gradient                   ...        0 min,  0.069 sec
 * total energy  :   -99.2850416 Eh     change       -0.7291464E-02 Eh
   gradient norm :     0.0585804 Eh/α   predicted    -0.5869461E-02 ( -19.50%)
   displ. norm   :     0.3057268 α      lambda       -0.1122685E-01
   maximum displ.:     0.1786318 α      in ANC's #82, #80, #73, ...

........................................................................
.............................. CYCLE   11 ..............................
........................................................................

 iter      E             dE          RMSdq      gap      omega  full diag
   1   -100.6779792 -0.100678E+03  0.283E-01    0.87       0.0  T
   2   -100.6645018  0.134774E-01  0.392E-01    0.62       1.0  T
   3   -100.6810441 -0.165424E-01  0.138E-01    0.85       1.0  T
   4   -100.6812164 -0.172221E-03  0.874E-02    0.80       1.0  T
   5   -100.6820292 -0.812851E-03  0.353E-02    0.84       1.0  T
   6   -100.6820540 -0.247428E-04  0.305E-02    0.85       1.0  T
   7   -100.6820536  0.315277E-06  0.308E-02    0.85       1.0  T
   8   -100.6821262 -0.725957E-04  0.327E-02    0.91       1.0  T
   9   -100.6822016 -0.753093E-04  0.397E-02    0.97       1.0  T
  10   -100.6820075  0.194037E-03  0.610E-02    0.81       1.0  T
  11   -100.6820234 -0.159171E-04  0.501E-02    0.82       1.0  T
  12   -100.6820556 -0.321820E-04  0.362E-02    0.84       1.0  T
  13   -100.6821314 -0.757775E-04  0.331E-02    0.91       1.0  T
  14   -100.6822056 -0.741825E-04  0.402E-02    0.96       1.0  T
  15   -100.6821846  0.209946E-04  0.381E-02    0.95       1.0  T
  16   -100.6820695  0.115114E-03  0.332E-02    0.85       1.0  T
  17   -100.6818968  0.172706E-03  0.132E-01    0.83       1.0  T
  18   -100.6791336  0.276316E-02  0.573E-01    1.17       1.0  T
  19   -100.6386194  0.405142E-01  0.136E+00    1.13       1.0  T
  20   -100.6395148 -0.895409E-03  0.133E+00    1.13       1.0  T
  21   -100.6401405 -0.625734E-03  0.132E+00    1.14       1.0  T
  22   -100.6324881  0.765238E-02  0.155E+00    1.12       1.0  T
  23   -100.6325646 -0.764727E-04  0.155E+00    1.12       1.0  T
  24   -100.6312838  0.128086E-02  0.159E+00    1.12       1.0  T
  25   -100.6256721  0.561168E-02  0.177E+00    1.10       1.0  T
  26   -100.6248809  0.791220E-03  0.180E+00    1.10       1.0  T
  27   -100.6308525 -0.597169E-02  0.161E+00    1.12       1.0  T
  28   -100.6379311 -0.707858E-02  0.138E+00    1.13       1.0  T
  29   -100.6729894 -0.350582E-01  0.782E-01    1.17       1.0  T
  30   -100.6802024 -0.721303E-02  0.503E-01    1.10       1.0  T
  31   -100.6819748 -0.177244E-02  0.556E-02    0.78       1.0  T
  32   -100.3769793  0.304996E+00  0.230E+00    0.87       1.0  T
  33   -100.2579066  0.119073E+00  0.340E+00    0.90       1.0  T
  34   -100.1837207  0.741859E-01  0.437E+00    0.93       1.0  T
  35   -100.1839548 -0.234082E-03  0.436E+00    0.93       1.0  T
  36   -100.3704786 -0.186524E+00  0.429E+00    0.57       1.0  T
  37    -99.7215918  0.648887E+00  0.476E+00    0.26       1.0  T
  38   -100.0213279 -0.299736E+00  0.418E+00    0.24       1.0  T
  39   -100.4559030 -0.434575E+00  0.318E+00    0.90       1.0  T
  40   -100.1954794  0.260424E+00  0.420E+00    0.93       1.0  T
  41    -99.8066982  0.388781E+00  0.461E+00    0.21       1.0  T
  42   -100.2548347 -0.448137E+00  0.362E+00    0.53       1.0  T
  43   -100.2244327  0.304020E-01  0.370E+00    0.48       1.0  T
  44   -100.3740488 -0.149616E+00  0.428E+00    0.58       1.0  T
  45   -100.2772284  0.968204E-01  0.449E+00    0.90       1.0  T
  46   -100.2589614  0.182670E-01  0.451E+00    0.91       1.0  T
  47   -100.4531241 -0.194163E+00  0.400E+00    0.28       1.0  T
  48   -100.2030987  0.250025E+00  0.420E+00    0.95       1.0  T
  49   -100.2125838 -0.948510E-02  0.410E+00    0.94       1.0  T
  50   -100.2010910  0.114928E-01  0.428E+00    0.94       1.0  T
  51   -100.2011964 -0.105398E-03  0.428E+00    0.94       1.0  T
  52   -100.2003364  0.860010E-03  0.429E+00    0.94       1.0  T
  53   -100.2038441 -0.350771E-02  0.431E+00    0.93       1.0  T
  54   -100.2360132 -0.321692E-01  0.387E+00    0.92       1.0  T
  55   -100.2426168 -0.660353E-02  0.379E+00    0.92       1.0  T
  56   -100.2562993 -0.136825E-01  0.360E+00    0.91       1.0  T
  57   -100.2615237 -0.522442E-02  0.353E+00    0.91       1.0  T
  58   -100.2643680 -0.284430E-02  0.349E+00    0.91       1.0  T
  59   -100.2723368 -0.796887E-02  0.338E+00    0.90       1.0  T
  60   -100.2792467 -0.690986E-02  0.328E+00    0.90       1.0  T
  61   -100.2947180 -0.154713E-01  0.305E+00    0.89       1.0  T
  62   -100.3095710 -0.148530E-01  0.284E+00    0.88       1.0  T
  63   -100.3395137 -0.299427E-01  0.249E+00    0.87       1.0  T
  64   -100.6665833 -0.327070E+00  0.375E-01    1.04       1.0  T
  65   -100.6445865  0.219967E-01  0.114E+00    1.52       1.0  T
  66   -100.5910763  0.535103E-01  0.266E+00    1.21       1.0  T
  67   -100.5928829 -0.180665E-02  0.260E+00    1.21       1.0  T
  68   -100.6186836 -0.258007E-01  0.197E+00    1.18       1.0  T
  69   -100.6298593 -0.111756E-01  0.164E+00    1.09       1.0  T
  70   -100.6571117 -0.272524E-01  0.101E+00    1.11       1.0  T
  71   -100.6739527 -0.168411E-01  0.754E-01    1.13       1.0  T
  72   -100.6819434 -0.799064E-02  0.761E-02    0.78       1.0  T
  73   -100.6822886 -0.345245E-03  0.282E-02    1.06       1.0  T
  74   -100.3260920  0.356197E+00  0.251E+00    0.88       1.0  T
  75   -100.6539585 -0.327866E+00  0.103E+00    1.48       1.0  T
  76   -100.6774079 -0.234494E-01  0.653E-01    1.26       1.0  T
  77   -100.6820448 -0.463686E-02  0.255E-02    0.83       1.0  T
  78   -100.6823003 -0.255551E-03  0.438E-02    1.04       1.0  T
  79   -100.6821108  0.189484E-03  0.305E-02    0.89       1.0  T
  80   -100.6819806  0.130273E-03  0.768E-02    0.81       1.0  T
  81   -100.6819020  0.785179E-04  0.129E-01    0.82       1.0  T
  82   -100.6819773 -0.752709E-04  0.797E-02    0.80       1.0  T
  83   -100.6820510 -0.737023E-04  0.317E-02    0.83       1.0  T
  84   -100.6821361 -0.851071E-04  0.318E-02    0.91       1.0  T
  85   -100.6822692 -0.133123E-03  0.617E-02    1.03       1.0  T
  86   -100.5440607  0.138209E+00  0.172E+00    0.67       1.0  T
  87   -100.3662246  0.177836E+00  0.234E+00    0.87       1.0  T
  88   -100.6323623 -0.266138E+00  0.135E+00    1.53       1.0  T
  89   -100.6545170 -0.221547E-01  0.106E+00    1.22       1.0  T
  90   -100.6806163 -0.260993E-01  0.425E-01    1.04       1.0  T
  91   -100.6804110  0.205343E-03  0.465E-01    1.07       1.0  T
  92   -100.6819621 -0.155115E-02  0.959E-02    0.81       1.0  T
  93   -100.6822575 -0.295374E-03  0.429E-02    1.00       1.0  T
  94   -100.6823398 -0.823112E-04  0.265E-02    1.09       1.0  T
  95   -100.6823228  0.170234E-04  0.376E-02    1.05       1.0  T
  96   -100.6815879  0.734911E-03  0.231E-01    0.86       1.0  T
  97   -100.6773123  0.427559E-02  0.571E-01    0.54       1.0  T
  98   -100.6746985  0.261375E-02  0.661E-01    0.46       1.0  T
  99   -100.6823189 -0.762040E-02  0.407E-02    1.10       1.0  T
 100   -100.6819982  0.320735E-03  0.645E-02    0.81       1.0  T
 101   -100.6821565 -0.158349E-03  0.362E-02    0.93       1.0  T
 102   -100.6823350 -0.178452E-03  0.377E-02    1.09       1.0  T
 103   -100.6823444 -0.937779E-05  0.203E-02    1.07       1.0  T
 104   -100.6823277  0.167084E-04  0.360E-02    1.06       1.0  T
 105   -100.6823391 -0.114322E-04  0.249E-02    1.07       1.0  T
 106   -100.6823155  0.235450E-04  0.449E-02    1.05       1.0  T
 107   -100.6823078  0.777665E-05  0.495E-02    1.04       1.0  T
 108   -100.6823112 -0.343308E-05  0.476E-02    1.05       1.0  T
 109   -100.6822855  0.256660E-04  0.612E-02    1.03       1.0  T
 110   -100.6822895 -0.399726E-05  0.595E-02    1.04       1.0  T
 111   -100.6823192 -0.296479E-04  0.439E-02    1.05       1.0  T
 112   -100.6823219 -0.273742E-05  0.423E-02    1.05       1.0  T
 113   -100.6823468 -0.249083E-04  0.199E-02    1.07       1.0  T
 114   -100.6823515 -0.468610E-05  0.114E-02    1.08       1.0  T
 115   -100.6823523 -0.805283E-06  0.916E-03    1.08       1.3  T
 116   -100.6823535 -0.113700E-05  0.512E-03    1.08       2.3  T
 117   -100.6823537 -0.200911E-06  0.430E-03    1.08       2.7  T
 118   -100.6823541 -0.394243E-06  0.269E-03    1.08       4.4  T
 119   -100.6823542 -0.129350E-06  0.277E-03    1.08       4.3  T
 120   -100.6823542 -0.464892E-07  0.332E-03    1.08       3.5  T
 121   -100.6823542 -0.594734E-08  0.355E-03    1.08       3.3  T
 122   -100.6823542  0.378662E-09  0.353E-03    1.08       3.3  T
 123   -100.6823542 -0.881641E-09  0.345E-03    1.08       3.4  T
 124   -100.6823542 -0.225940E-08  0.334E-03    1.08       3.5  T
 125   -100.6823542 -0.798772E-08  0.335E-03    1.08       3.5  T
 126   -100.6823543 -0.589985E-08  0.333E-03    1.08       3.5  T
 127   -100.6823543 -0.380521E-07  0.341E-03    1.08       3.5  T
 128   -100.6823544 -0.698059E-07  0.298E-03    1.08       4.0  T
 129   -100.6823545 -0.158255E-06  0.105E-03    1.08      11.2  T
 130   -100.6823546 -0.367207E-07  0.489E-04    1.09      24.1  T
 131   -100.6823546 -0.239271E-08  0.117E-04    1.09     100.9  T
     SCC iter.                  ...        0 min,  1.096 sec
     gradient                   ...        0 min,  0.069 sec
 * total energy  :   -99.2929915 Eh     change       -0.7949943E-02 Eh
   gradient norm :     0.0488688 Eh/α   predicted    -0.6138275E-02 ( -22.79%)
   displ. norm   :     0.2853509 α      lambda       -0.6023203E-02
   maximum displ.:     0.1633074 α      in ANC's #82, #80, #73, ...

........................................................................
.............................. CYCLE   12 ..............................
........................................................................

 iter      E             dE          RMSdq      gap      omega  full diag
   1   -100.6917315 -0.100692E+03  0.269E-01    1.40       0.0  T
   2   -100.6808050  0.109265E-01  0.343E-01    0.95       1.0  T
   3   -100.6946185 -0.138135E-01  0.132E-01    1.28       1.0  T
   4   -100.6959210 -0.130246E-02  0.552E-02    1.20       1.0  T
   5   -100.6960374 -0.116353E-03  0.241E-02    1.21       1.0  T
   6   -100.6960646 -0.272973E-04  0.114E-02    1.21       1.0  T
   7   -100.6960806 -0.159080E-04  0.229E-03    1.21       5.1  T
   8   -100.6960808 -0.207725E-06  0.106E-03    1.21      11.1  T
   9   -100.6960808 -0.500524E-07  0.514E-04    1.21      22.9  T
  10   -100.6960808 -0.231123E-07  0.191E-04    1.21      61.8  T
     SCC iter.                  ...        0 min,  0.081 sec
     gradient                   ...        0 min,  0.069 sec
 * total energy  :   -99.2963613 Eh     change       -0.3369806E-02 Eh
   gradient norm :     0.0230912 Eh/α   predicted    -0.3256821E-02 (  -3.35%)
   displ. norm   :     0.1304018 α      lambda       -0.1612404E-02
   maximum displ.:     0.0430436 α      in ANC's #1, #82, #60, ...

........................................................................
.............................. CYCLE   13 ..............................
........................................................................

 iter      E             dE          RMSdq      gap      omega  full diag
   1   -100.7008236 -0.100701E+03  0.900E-02    1.30       0.0  T
   2   -100.7000258  0.797775E-03  0.100E-01    1.18       1.0  T
   3   -100.7010357 -0.100991E-02  0.465E-02    1.26       1.0  T
   4   -100.7011747 -0.138955E-03  0.196E-02    1.25       1.0  T
   5   -100.7011912 -0.165676E-04  0.294E-03    1.25       4.0  T
   6   -100.7011918 -0.557663E-06  0.177E-03    1.25       6.7  T
   7   -100.7011919 -0.136584E-06  0.834E-04    1.25      14.1  T
   8   -100.7011919 -0.189089E-07  0.322E-04    1.25      36.6  T
     SCC iter.                  ...        0 min,  0.065 sec
     gradient                   ...        0 min,  0.069 sec
 * total energy  :   -99.2977569 Eh     change       -0.1395568E-02 Eh
   gradient norm :     0.0174014 Eh/α   predicted    -0.8199493E-03 ( -41.25%)
   displ. norm   :     0.4296953 α      lambda       -0.4924336E-02
   maximum displ.:     0.1482840 α      in ANC's #60, #52, #2, ...

........................................................................
.............................. CYCLE   14 ..............................
........................................................................

 iter      E             dE          RMSdq      gap      omega  full diag
   1   -100.7043520 -0.100704E+03  0.240E-01    1.48       0.0  T
   2   -100.7023171  0.203484E-02  0.191E-01    1.20       1.0  T
   3   -100.7033086 -0.991446E-03  0.164E-01    1.44       1.0  T
   4   -100.7054931 -0.218457E-02  0.532E-02    1.38       1.0  T
   5   -100.7056350 -0.141892E-03  0.838E-03    1.35       1.4  T
   6   -100.7056374 -0.233847E-05  0.469E-03    1.35       2.5  T
   7   -100.7056379 -0.570735E-06  0.314E-03    1.35       3.7  T
   8   -100.7056384 -0.497185E-06  0.706E-04    1.35      16.7  T
   9   -100.7056385 -0.412724E-07  0.311E-04    1.35      37.9  T
     SCC iter.                  ...        0 min,  0.073 sec
     gradient                   ...        0 min,  0.071 sec
 * total energy  :   -99.3011789 Eh     change       -0.3421987E-02 Eh
   gradient norm :     0.0275970 Eh/α   predicted    -0.2916744E-02 ( -14.76%)
   displ. norm   :     0.3771872 α      lambda       -0.2908867E-02
   maximum displ.:     0.1380365 α      in ANC's #60, #2, #52, ...

........................................................................
.............................. CYCLE   15 ..............................
........................................................................

 iter      E             dE          RMSdq      gap      omega  full diag
   1   -100.7066768 -0.100707E+03  0.174E-01    1.48       0.0  T
   2   -100.7062313  0.445470E-03  0.118E-01    1.36       1.0  T
   3   -100.7058316  0.399682E-03  0.121E-01    1.50       1.0  T
   4   -100.7070230 -0.119135E-02  0.417E-02    1.43       1.0  T
   5   -100.7071223 -0.993211E-04  0.669E-03    1.44       1.8  T
   6   -100.7071245 -0.217735E-05  0.474E-03    1.43       2.5  T
   7   -100.7071257 -0.125146E-05  0.134E-03    1.43       8.8  T
   8   -100.7071258 -0.514202E-07  0.476E-04    1.43      24.8  T
   9   -100.7071258 -0.154010E-07  0.191E-04    1.43      61.8  T
     SCC iter.                  ...        0 min,  0.073 sec
     gradient                   ...        0 min,  0.069 sec
 * total energy  :   -99.3034199 Eh     change       -0.2240969E-02 Eh
   gradient norm :     0.0336099 Eh/α   predicted    -0.1661346E-02 ( -25.86%)
   displ. norm   :     0.4935926 α      lambda       -0.3867568E-02
   maximum displ.:     0.1725507 α      in ANC's #60, #2, #52, ...

........................................................................
.............................. CYCLE   16 ..............................
........................................................................

 iter      E             dE          RMSdq      gap      omega  full diag
   1   -100.7063959 -0.100706E+03  0.211E-01    1.50       0.0  T
   2   -100.7063090  0.869638E-04  0.122E-01    1.50       1.0  T
   3   -100.7053794  0.929528E-03  0.132E-01    1.48       1.0  T
   4   -100.7066015 -0.122207E-02  0.338E-02    1.51       1.0  T
   5   -100.7066734 -0.718423E-04  0.789E-03    1.50       1.5  T
   6   -100.7066746 -0.129247E-05  0.556E-03    1.49       2.1  T
   7   -100.7066757 -0.109587E-05  0.254E-03    1.50       4.6  T
   8   -100.7066765 -0.788861E-06  0.791E-04    1.50      14.9  T
   9   -100.7066766 -0.628954E-07  0.298E-04    1.50      39.6  T
     SCC iter.                  ...        0 min,  0.073 sec
     gradient                   ...        0 min,  0.069 sec
 * total energy  :   -99.3066425 Eh     change       -0.3222676E-02 Eh
   gradient norm :     0.0456034 Eh/α   predicted    -0.2404905E-02 ( -25.38%)
   displ. norm   :     0.5842573 α      lambda       -0.6595163E-02
   maximum displ.:     0.2128600 α      in ANC's #2, #60, #52, ...

........................................................................
.............................. CYCLE   17 ..............................
........................................................................

 iter      E             dE          RMSdq      gap      omega  full diag
   1   -100.7145205 -0.100715E+03  0.266E-01    1.51       0.0  T
   2   -100.7143390  0.181445E-03  0.164E-01    1.63       1.0  T
   3   -100.7141573  0.181719E-03  0.147E-01    1.43       1.0  T
   4   -100.7151759 -0.101857E-02  0.519E-02    1.62       1.0  T
   5   -100.7154789 -0.302990E-03  0.904E-03    1.54       1.3  T
   6   -100.7154820 -0.309672E-05  0.481E-03    1.55       2.5  T
   7   -100.7154815  0.476905E-06  0.330E-03    1.54       3.6  T
   8   -100.7154822 -0.705194E-06  0.137E-03    1.55       8.6  T
   9   -100.7154823 -0.150769E-06  0.522E-04    1.55      22.6  T
  10   -100.7154824 -0.102118E-07  0.201E-04    1.55      58.6  T
     SCC iter.                  ...        0 min,  0.081 sec
     gradient                   ...        0 min,  0.070 sec
 * total energy  :   -99.3117135 Eh     change       -0.5070971E-02 Eh
   gradient norm :     0.0304541 Eh/α   predicted    -0.4423173E-02 ( -12.77%)
   displ. norm   :     0.7215333 α      lambda       -0.7304833E-02
   maximum displ.:     0.2338858 α      in ANC's #2, #60, #80, ...

........................................................................
.............................. CYCLE   18 ..............................
........................................................................

 iter      E             dE          RMSdq      gap      omega  full diag
   1   -100.7087368 -0.100709E+03  0.435E-01    1.51       0.0  T
   2   -100.7090555 -0.318721E-03  0.292E-01    1.72       1.0  T
   3   -100.7073730  0.168255E-02  0.349E-01    1.40       1.0  T
   4   -100.7134244 -0.605141E-02  0.204E-01    1.58       1.0  T
   5   -100.7137716 -0.347235E-03  0.174E-01    1.52       1.0  T
   6   -100.7138160 -0.443812E-04  0.116E-01    1.62       1.0  T
   7   -100.7141446 -0.328665E-03  0.738E-02    1.59       1.0  T
   8   -100.7143015 -0.156883E-03  0.101E-02    1.59       1.2  T
   9   -100.7143034 -0.192528E-05  0.783E-03    1.58       1.5  T
  10   -100.7143058 -0.237887E-05  0.306E-03    1.58       3.9  T
  11   -100.7143061 -0.236882E-06  0.724E-04    1.58      16.3  T
  12   -100.7143061 -0.519364E-08  0.770E-04    1.58      15.3  T
     SCC iter.                  ...        0 min,  0.097 sec
     gradient                   ...        0 min,  0.069 sec
 * total energy  :   -99.3229766 Eh     change       -0.1126313E-01 Eh
   gradient norm :     0.1072269 Eh/α   predicted    -0.5553807E-02 ( -50.69%)
   displ. norm   :     0.6161461 α      lambda       -0.2102483E-01
   maximum displ.:     0.2059386 α      in ANC's #60, #80, #54, ...

........................................................................
.............................. CYCLE   19 ..............................
........................................................................

 iter      E             dE          RMSdq      gap      omega  full diag
   1   -100.7480894 -0.100748E+03  0.370E-01    1.52       0.0  T
   2   -100.7493146 -0.122514E-02  0.211E-01    1.66       1.0  T
   3   -100.7465535  0.276106E-02  0.192E-01    1.41       1.0  T
   4   -100.7497155 -0.316200E-02  0.494E-02    1.62       1.0  T
   5   -100.7497351 -0.195963E-04  0.378E-02    1.56       1.0  T
   6   -100.7498384 -0.103308E-03  0.128E-02    1.60       1.0  T
   7   -100.7498467 -0.826732E-05  0.433E-03    1.59       2.7  T
   8   -100.7498474 -0.745058E-06  0.180E-03    1.59       6.6  T
   9   -100.7498475 -0.953135E-07  0.705E-04    1.59      16.7  T
  10   -100.7498476 -0.183724E-07  0.286E-04    1.59      41.2  T
     SCC iter.                  ...        0 min,  0.081 sec
     gradient                   ...        0 min,  0.070 sec
 * total energy  :   -99.3383056 Eh     change       -0.1532891E-01 Eh
   gradient norm :     0.0977343 Eh/α   predicted    -0.1450309E-01 (  -5.39%)
   displ. norm   :     0.6610433 α      lambda       -0.4119539E-01
   maximum displ.:     0.2729006 α      in ANC's #2, #193, #52, ...

........................................................................
.............................. CYCLE   20 ..............................
........................................................................

 iter      E             dE          RMSdq      gap      omega  full diag
   1   -100.8976129 -0.100898E+03  0.607E-01    1.59       0.0  T
   2   -100.9006280 -0.301515E-02  0.367E-01    1.62       1.0  T
   3   -100.9000590  0.568998E-03  0.147E-01    1.52       1.0  T
   4   -100.9004980 -0.438971E-03  0.812E-02    1.69       1.0  T
   5   -100.9010327 -0.534715E-03  0.360E-02    1.56       1.0  T
   6   -100.9011299 -0.971538E-04  0.124E-02    1.60       1.0  T
   7   -100.9011379 -0.798853E-05  0.438E-03    1.59       2.7  T
   8   -100.9011383 -0.461236E-06  0.135E-03    1.59       8.8  T
   9   -100.9011384 -0.503407E-07  0.609E-04    1.59      19.3  T
  10   -100.9011384 -0.159595E-07  0.255E-04    1.59      46.3  T
     SCC iter.                  ...        0 min,  0.080 sec
     gradient                   ...        0 min,  0.075 sec
 * total energy  :   -99.1214657 Eh     change        0.2168398E+00 Eh
   gradient norm :     1.8540987 Eh/α   predicted    -0.2959831E-01 (-113.65%)
   displ. norm   :     0.3060935 α      lambda       -0.4888712E+00
   maximum displ.:     0.1539651 α      in ANC's #193, #210, #208, ...
 * RMSD in coord.:     0.5721489 α      energy gain  -0.4299394E+00 Eh

generating ANC from model Hessian ...
Using Lindh-Hessian (1995)
 Shifting diagonal of input Hessian by    9.9499833060361365E-003
 Lowest  eigenvalues of input Hessian
    0.000000    0.000000    0.000000    0.000000    0.000000    0.000000
    0.010000    0.010031    0.010109    0.010196    0.010283    0.010376
    0.010567    0.010754    0.010788    0.010996    0.011092    0.011704
 Highest eigenvalues
    2.000227    2.042566    2.051674    2.185088    2.188580    2.702797


........................................................................
.............................. CYCLE   21 ..............................
........................................................................

 iter      E             dE          RMSdq      gap      omega  full diag
   1   -100.7872153 -0.100787E+03  0.310E-01    1.58       0.0  T
   2   -100.7897325 -0.251717E-02  0.213E-01    1.57       1.0  T
   3   -100.7897940 -0.615313E-04  0.107E-01    1.61       1.0  T
   4   -100.7896270  0.167012E-03  0.699E-02    1.52       1.0  T
   5   -100.7899612 -0.334176E-03  0.301E-02    1.62       1.0  T
   6   -100.7900325 -0.713435E-04  0.124E-02    1.57       1.0  T
   7   -100.7900425 -0.995024E-05  0.480E-03    1.59       2.5  T
   8   -100.7900429 -0.428827E-06  0.204E-03    1.58       5.8  T
   9   -100.7900431 -0.173626E-06  0.591E-04    1.58      19.9  T
  10   -100.7900431 -0.662955E-08  0.266E-04    1.58      44.4  T
     SCC iter.                  ...        0 min,  0.081 sec
     gradient                   ...        0 min,  0.075 sec
 * total energy  :   -99.3432588 Eh     change       -0.2217930E+00 Eh
   gradient norm :     0.1466468 Eh/α   predicted     0.0000000E+00 (-100.00%)
   displ. norm   :     0.2230360 α      lambda       -0.1566462E-01
   maximum displ.:     0.0768920 α      in ANC's #140, #52, #142, ...

........................................................................
.............................. CYCLE   22 ..............................
........................................................................

 iter      E             dE          RMSdq      gap      omega  full diag
   1   -100.7747821 -0.100775E+03  0.148E-01    1.62       0.0  T
   2   -100.7751566 -0.374455E-03  0.944E-02    1.55       1.0  T
   3   -100.7749088  0.247747E-03  0.789E-02    1.68       1.0  T
   4   -100.7752682 -0.359324E-03  0.352E-02    1.56       1.0  T
   5   -100.7753506 -0.824641E-04  0.138E-02    1.60       1.0  T
   6   -100.7753618 -0.111815E-04  0.477E-03    1.60       2.5  T
   7   -100.7753628 -0.936184E-06  0.175E-03    1.60       6.8  T
   8   -100.7753628 -0.438584E-07  0.883E-04    1.60      13.3  T
   9   -100.7753628 -0.310282E-07  0.314E-04    1.60      37.5  T
     SCC iter.                  ...        0 min,  0.073 sec
     gradient                   ...        0 min,  0.069 sec
 * total energy  :   -99.3517909 Eh     change       -0.8532174E-02 Eh
   gradient norm :     0.0481021 Eh/α   predicted    -0.8221924E-02 (  -3.64%)
   displ. norm   :     0.2589738 α      lambda       -0.5136922E-02
   maximum displ.:     0.0812555 α      in ANC's #15, #24, #52, ...

........................................................................
.............................. CYCLE   23 ..............................
........................................................................

 iter      E             dE          RMSdq      gap      omega  full diag
   1   -100.7796412 -0.100780E+03  0.119E-01    1.63       0.0  T
   2   -100.7796359  0.527417E-05  0.925E-02    1.57       1.0  T
   3   -100.7798414 -0.205493E-03  0.532E-02    1.64       1.0  T
   4   -100.7798628 -0.213378E-04  0.322E-02    1.57       1.0  T
   5   -100.7799608 -0.980273E-04  0.990E-03    1.61       1.2  T
   6   -100.7799653 -0.454761E-05  0.354E-03    1.61       3.3  T
   7   -100.7799657 -0.396213E-06  0.152E-03    1.61       7.8  T
   8   -100.7799658 -0.770839E-07  0.470E-04    1.61      25.1  T
   9   -100.7799658 -0.137299E-07  0.154E-04    1.61      76.7  T
     SCC iter.                  ...        0 min,  0.073 sec
     gradient                   ...        0 min,  0.069 sec
 * total energy  :   -99.3558328 Eh     change       -0.4041899E-02 Eh
   gradient norm :     0.0488757 Eh/α   predicted    -0.2740842E-02 ( -32.19%)
   displ. norm   :     0.3852728 α      lambda       -0.6104963E-02
   maximum displ.:     0.1248041 α      in ANC's #15, #24, #140, ...

........................................................................
.............................. CYCLE   24 ..............................
........................................................................

 iter      E             dE          RMSdq      gap      omega  full diag
   1   -100.7982382 -0.100798E+03  0.152E-01    1.64       0.0  T
   2   -100.7982876 -0.494190E-04  0.103E-01    1.58       1.0  T
   3   -100.7983723 -0.847277E-04  0.680E-02    1.67       1.0  T
   4   -100.7985099 -0.137547E-03  0.340E-02    1.58       1.0  T
   5   -100.7986185 -0.108623E-03  0.118E-02    1.63       1.0  T
   6   -100.7986243 -0.577088E-05  0.405E-03    1.62       2.9  T
   7   -100.7986250 -0.716820E-06  0.155E-03    1.62       7.6  T
   8   -100.7986251 -0.783569E-07  0.574E-04    1.62      20.5  T
   9   -100.7986251 -0.179285E-07  0.173E-04    1.62      68.3  T
     SCC iter.                  ...        0 min,  0.074 sec
     gradient                   ...        0 min,  0.069 sec
 * total energy  :   -99.3599880 Eh     change       -0.4155192E-02 Eh
   gradient norm :     0.0238308 Eh/α   predicted    -0.3505761E-02 ( -15.63%)
   displ. norm   :     0.3110443 α      lambda       -0.2265975E-02
   maximum displ.:     0.0929581 α      in ANC's #24, #52, #15, ...

........................................................................
.............................. CYCLE   25 ..............................
........................................................................

 iter      E             dE          RMSdq      gap      omega  full diag
   1   -100.8021917 -0.100802E+03  0.139E-01    1.61       0.0  T
   2   -100.8022115 -0.198241E-04  0.805E-02    1.62       1.0  T
   3   -100.8021173  0.941675E-04  0.407E-02    1.60       1.0  T
   4   -100.8022259 -0.108546E-03  0.684E-03    1.62       1.7  T
   5   -100.8022246  0.129830E-05  0.577E-03    1.61       2.0  T
   6   -100.8022270 -0.240343E-05  0.230E-03    1.62       5.1  T
   7   -100.8022274 -0.428604E-06  0.585E-04    1.62      20.1  T
   8   -100.8022274 -0.176785E-07  0.195E-04    1.62      60.5  T
     SCC iter.                  ...        0 min,  0.065 sec
     gradient                   ...        0 min,  0.069 sec
 * total energy  :   -99.3616540 Eh     change       -0.1666017E-02 Eh
   gradient norm :     0.0136569 Eh/α   predicted    -0.1242713E-02 ( -25.41%)
   displ. norm   :     0.3270709 α      lambda       -0.1339712E-02
   maximum displ.:     0.0994290 α      in ANC's #10, #24, #14, ...

........................................................................
.............................. CYCLE   26 ..............................
........................................................................

 iter      E             dE          RMSdq      gap      omega  full diag
   1   -100.8023744 -0.100802E+03  0.130E-01    1.61       0.0  T
   2   -100.8023800 -0.557548E-05  0.762E-02    1.63       1.0  T
   3   -100.8022434  0.136610E-03  0.382E-02    1.57       1.0  T
   4   -100.8023868 -0.143458E-03  0.692E-03    1.62       1.7  T
   5   -100.8023887 -0.181928E-05  0.403E-03    1.62       2.9  T
   6   -100.8023894 -0.718472E-06  0.146E-03    1.62       8.1  T
   7   -100.8023895 -0.124927E-06  0.383E-04    1.62      30.8  T
   8   -100.8023895 -0.855329E-08  0.154E-04    1.62      76.6  T
     SCC iter.                  ...        0 min,  0.065 sec
     gradient                   ...        0 min,  0.069 sec
 * total energy  :   -99.3625929 Eh     change       -0.9388444E-03 Eh
   gradient norm :     0.0063867 Eh/α   predicted    -0.7415420E-03 ( -21.02%)
   displ. norm   :     0.2927860 α      lambda       -0.5857960E-03
   maximum displ.:     0.1072825 α      in ANC's #10, #9, #14, ...

........................................................................
.............................. CYCLE   27 ..............................
........................................................................

 iter      E             dE          RMSdq      gap      omega  full diag
   1   -100.8038102 -0.100804E+03  0.949E-02    1.61       0.0  T
   2   -100.8038126 -0.240803E-05  0.555E-02    1.62       1.0  T
   3   -100.8037528  0.598397E-04  0.247E-02    1.58       1.0  T
   4   -100.8038158 -0.630030E-04  0.393E-03    1.62       3.0  T
   5   -100.8038163 -0.482587E-06  0.214E-03    1.62       5.5  T
   6   -100.8038165 -0.195367E-06  0.597E-04    1.62      19.7  T
   7   -100.8038165 -0.211340E-07  0.189E-04    1.62      62.3  T
     SCC iter.                  ...        0 min,  0.057 sec
     gradient                   ...        0 min,  0.069 sec
 * total energy  :   -99.3629553 Eh     change       -0.3623903E-03 Eh
   gradient norm :     0.0056707 Eh/α   predicted    -0.3180071E-03 ( -12.25%)
   displ. norm   :     0.4354127 α      lambda       -0.6301948E-03
   maximum displ.:     0.1545996 α      in ANC's #10, #9, #52, ...

........................................................................
.............................. CYCLE   28 ..............................
........................................................................

 iter      E             dE          RMSdq      gap      omega  full diag
   1   -100.7936991 -0.100794E+03  0.167E-01    1.61       0.0  T
   2   -100.7937032 -0.415402E-05  0.991E-02    1.62       1.0  T
   3   -100.7935892  0.114061E-03  0.348E-02    1.57       1.0  T
   4   -100.7937074 -0.118196E-03  0.626E-03    1.62       1.9  T
   5   -100.7937100 -0.257501E-05  0.326E-03    1.61       3.6  T
   6   -100.7937103 -0.307735E-06  0.122E-03    1.62       9.7  T
   7   -100.7937103 -0.808907E-07  0.382E-04    1.62      30.9  T
   8   -100.7937104 -0.100160E-07  0.125E-04    1.62      94.2  T
     SCC iter.                  ...        0 min,  0.065 sec
     gradient                   ...        0 min,  0.069 sec
 * total energy  :   -99.3625425 Eh     change        0.4127997E-03 Eh
   gradient norm :     0.0213710 Eh/α   predicted    -0.3748561E-03 (-190.81%)
   displ. norm   :     0.1459627 α      lambda       -0.1252454E-02
   maximum displ.:     0.0666144 α      in ANC's #52, #53, #56, ...

........................................................................
.............................. CYCLE   29 ..............................
........................................................................

 iter      E             dE          RMSdq      gap      omega  full diag
   1   -100.8034352 -0.100803E+03  0.976E-02    1.62       0.0  T
   2   -100.8034343  0.889116E-06  0.578E-02    1.61       1.0  T
   3   -100.8032834  0.150957E-03  0.411E-02    1.66       1.0  T
   4   -100.8034413 -0.157956E-03  0.650E-03    1.61       1.8  T
   5   -100.8034448 -0.341850E-05  0.257E-03    1.62       4.6  T
   6   -100.8034449 -0.171116E-06  0.108E-03    1.62      10.9  T
   7   -100.8034450 -0.531035E-07  0.285E-04    1.62      41.4  T
   8   -100.8034450 -0.712276E-08  0.803E-05    1.62     146.8  T
     SCC iter.                  ...        0 min,  0.065 sec
     gradient                   ...        0 min,  0.069 sec
 * total energy  :   -99.3631925 Eh     change       -0.6500381E-03 Eh
   gradient norm :     0.0074292 Eh/α   predicted    -0.6395719E-03 (  -1.61%)
   displ. norm   :     0.0956704 α      lambda       -0.9572913E-04
   maximum displ.:     0.0426531 α      in ANC's #9, #10, #8, ...

........................................................................
.............................. CYCLE   30 ..............................
........................................................................

 iter      E             dE          RMSdq      gap      omega  full diag
   1   -100.8033412 -0.100803E+03  0.197E-02    1.62       0.0  T
   2   -100.8033415 -0.239448E-06  0.116E-02    1.62       1.0  T
   3   -100.8033409  0.596300E-06  0.272E-03    1.62       4.3  T
   4   -100.8033414 -0.545099E-06  0.129E-03    1.62       9.2  T
   5   -100.8033415 -0.133409E-06  0.453E-04    1.62      26.0  T
   6   -100.8033416 -0.701213E-08  0.217E-04    1.62      54.2  T
     SCC iter.                  ...        0 min,  0.049 sec
     gradient                   ...        0 min,  0.070 sec
 * total energy  :   -99.3632662 Eh     change       -0.7368281E-04 Eh
   gradient norm :     0.0029189 Eh/α   predicted    -0.4830596E-04 ( -34.44%)
   displ. norm   :     0.3089684 α      lambda       -0.2019621E-03
   maximum displ.:     0.1347778 α      in ANC's #9, #10, #8, ...

........................................................................
.............................. CYCLE   31 ..............................
........................................................................

 iter      E             dE          RMSdq      gap      omega  full diag
   1   -100.8035454 -0.100804E+03  0.630E-02    1.62       0.0  T
   2   -100.8035454  0.116121E-07  0.375E-02    1.61       1.0  T
   3   -100.8035211  0.242882E-04  0.155E-02    1.64       1.0  T
   4   -100.8035464 -0.252156E-04  0.210E-03    1.62       5.6  T
   5   -100.8035466 -0.259165E-06  0.979E-04    1.62      12.0  T
   6   -100.8035466 -0.182701E-07  0.459E-04    1.62      25.7  T
     SCC iter.                  ...        0 min,  0.050 sec
     gradient                   ...        0 min,  0.069 sec
 * total energy  :   -99.3634128 Eh     change       -0.1465780E-03 Eh
   gradient norm :     0.0028133 Eh/α   predicted    -0.1106265E-03 ( -24.53%)
   displ. norm   :     0.2690133 α      lambda       -0.1146300E-03
   maximum displ.:     0.1162464 α      in ANC's #9, #10, #8, ...

........................................................................
.............................. CYCLE   32 ..............................
........................................................................

 iter      E             dE          RMSdq      gap      omega  full diag
   1   -100.8028128 -0.100803E+03  0.565E-02    1.62       0.0  T
   2   -100.8028133 -0.523254E-06  0.335E-02    1.62       1.0  T
   3   -100.8028089  0.444634E-05  0.688E-03    1.62       1.7  T
   4   -100.8028134 -0.447662E-05  0.226E-03    1.62       5.2  T
   5   -100.8028137 -0.379772E-06  0.889E-04    1.62      13.3  T
   6   -100.8028138 -0.205255E-07  0.357E-04    1.62      33.0  T
     SCC iter.                  ...        0 min,  0.049 sec
     gradient                   ...        0 min,  0.075 sec
 * total energy  :   -99.3634889 Eh     change       -0.7614285E-04 Eh
   gradient norm :     0.0035067 Eh/α   predicted    -0.6146851E-04 ( -19.27%)
   displ. norm   :     0.1651045 α      lambda       -0.6223442E-04
   maximum displ.:     0.0697309 α      in ANC's #8, #4, #2, ...

........................................................................
.............................. CYCLE   33 ..............................
........................................................................

 iter      E             dE          RMSdq      gap      omega  full diag
   1   -100.8033676 -0.100803E+03  0.336E-02    1.62       0.0  T
   2   -100.8033680 -0.388798E-06  0.196E-02    1.62       1.0  T
   3   -100.8033636  0.441552E-05  0.688E-03    1.62       1.7  T
   4   -100.8033682 -0.455164E-05  0.180E-03    1.62       6.5  T
   5   -100.8033684 -0.243485E-06  0.758E-04    1.62      15.6  T
   6   -100.8033684 -0.165678E-07  0.307E-04    1.62      38.4  T
     SCC iter.                  ...        0 min,  0.049 sec
     gradient                   ...        0 min,  0.069 sec
 * total energy  :   -99.3635361 Eh     change       -0.4714714E-04 Eh
   gradient norm :     0.0026911 Eh/α   predicted    -0.3196778E-04 ( -32.20%)
   displ. norm   :     0.1887877 α      lambda       -0.7167299E-04
   maximum displ.:     0.0784176 α      in ANC's #4, #8, #2, ...

   *** GEOMETRY OPTIMIZATION CONVERGED AFTER 33 ITERATIONS ***

------------------------------------------------------------------------
 total energy gain   :        -0.6720097 Eh     -421.6925 kcal/mol
 total RMSD          :         0.6488619 a0        0.3434 Å
 total power (kW/mol):       -53.4654923 (step) -269.1698 (real)
------------------------------------------------------------------------

 ANCopt (total)                0 d,  0 h,  0 min,  6.555 sec
 optimizer setup                ...        0 min,  0.000 sec (  0.004%)
 model hessian                  ...        0 min,  0.103 sec (  1.573%)
 ANC generation                 ...        0 min,  0.013 sec (  0.199%)
 coordinate transformation      ...        0 min,  0.002 sec (  0.036%)
 single point calculation       ...        0 min,  6.396 sec ( 97.573%)
 optimization log               ...        0 min,  0.008 sec (  0.128%)
 hessian update                 ...        0 min,  0.002 sec (  0.032%)
 rational function              ...        0 min,  0.016 sec (  0.240%)

================
 final structure:
================
72
 xtb: 6.6.1 (8d0f1dd)
N           -1.63323997478539        2.59609186143516        2.29077318094655
C           -2.26333336260061        2.27451512091798        1.39222975746534
C           -3.11931757579607        1.94875381444362        0.27787863038954
C           -3.54127784113663        0.48872612556958        0.33531077667146
C           -4.47391511662820        0.00596012362668       -0.58500476830113
C           -4.90975525691260       -1.30749209311932       -0.54454787180191
O           -5.81814457844908       -1.85193606576288       -1.37869750296961
C           -6.48063425193091       -1.02688798206516       -2.30829111775075
C           -4.38584509710036       -2.18828002696559        0.44192986369518
O           -4.87606003261198       -3.44252454201611        0.41220802811959
C           -4.48587908934840       -4.35766630421576        1.40974787361078
C           -3.44051590815710       -1.70593692998386        1.33323032719735
C           -3.02335740539075       -0.38109423151672        1.28128241393941
C           -2.40796378927490        2.27275616160409       -1.06295823917569
C           -1.50222690851173        1.15562558772622       -1.60770040670527
C           -0.16936666460420        1.10839396418136       -0.97349721147920
N            0.47835636323172        0.01402592413220       -0.62060770840434
C            1.86747936995845        0.07301056048960       -0.22838665032730
C            2.81145924812586       -0.36526072612147       -1.36587264492495
C            4.23713438782664       -0.16148524144294       -0.93297413251155
C            4.86865331754705        1.05482899410472       -1.14137931861353
C            6.16861948669142        1.26436001289969       -0.70924407727956
C            6.86410128822575        0.25961591391839       -0.05100247958689
O            8.12278239500425        0.34825263847245        0.41263967158461
C            8.84951083452618        1.53959527743690        0.21560971380115
C            6.22272863396496       -0.99165027267728        0.17173978933571
O            6.96953541083367       -1.90711674716090        0.81721595752843
C            6.43156545777060       -3.18166810176525        1.07738587766069
C            4.92206784880790       -1.17742539500255       -0.27094499220554
C           -0.11526976092109       -1.29749930859366       -0.72230384437922
C           -4.38336803008298        2.86150029663108        0.44003510139859
C           -5.11075528867550        2.54414764425893        1.74544933784280
C           -4.03280818562456        4.34710794363271        0.38732863865718
H           -4.87147045767372        0.67097813928283       -1.33388230886596
H           -7.00663268400125       -0.20615177357097       -1.81131162270513
H           -7.20469568175552       -1.66941834790906       -2.80495660006693
H           -5.78808110839687       -0.62208594319021       -3.05350298567091
H           -4.72685224972260       -3.98687814828291        2.41034667340634
H           -5.05643950636616       -5.26321620610747        1.21319104548630
H           -3.41649041111921       -4.58402033203063        1.35122062715054
H           -3.02848188295594       -2.35149131830039        2.09173494309975
H           -2.30142181066238       -0.03189147408509        2.00386984274228
H           -3.18092023722912        2.46796021003746       -1.80679457325764
H           -1.82133174375096        3.18418470957674       -0.94319000743851
H           -2.01693379945447        0.19766487702385       -1.55113552656701
H           -1.33975888099244        1.37788588960934       -2.67130384077900
H            0.86021274417562        2.04096013176355        1.50109908493239
H            0.35151755941958        2.04531730926977       -0.84945330594085
H            2.02225761954733       -0.57039702167509        0.64145641020784
H            2.12189967705534        1.09636580952493        0.05436266558670
H            2.60239899841036        0.23874738969242       -2.25054356425615
H            2.63718621818580       -1.41326331105738       -1.61200045118663
H            4.35142759449268        1.85075745541766       -1.65530442009286
H            6.63470992492579        2.21874588332461       -0.89086111645965
H            8.37870379354845        2.38504263118404        0.72633584900797
H            8.95999116644732        1.76967622869409       -0.84815797792130
H            9.83085360803182        1.35749688674953        0.64947624984720
H            7.22098018163606       -3.73354951379156        1.58402948621096
H            5.55613978541707       -3.12084610070730        1.73187245882037
H            6.16355666112069       -3.70116063183400        0.15224391569168
H            4.43090177383353       -2.12501145354200       -0.11406360617847
H           -0.23592781572208       -1.59895611498192       -1.76544511931164
H           -1.09337748471958       -1.31089188084970       -0.23706622215117
H            0.52568607577469       -2.02066024615878       -0.22432233821661
H           -5.05660017601242        2.63679683003473       -0.39310616022814
H           -4.48915123405592        2.79534622629629        2.60180901411217
H           -5.37190871940234        1.48965243307011        1.80577962351154
H           -6.02635407629545        3.12646457392027        1.80693939534882
H           -3.29186325236783        4.59770373401821        1.14387057690204
H           -3.65142459815242        4.63983007139704       -0.58805229714347
H           -4.92662607209110        4.93405732189914        0.58455521601226
H            0.51987617390393        2.43905060171723        2.08294383553371

 Bond Distances (Angstroems)
 ---------------------------
N1-C2=1.1436         C2-N1=1.1436         C2-C3=1.4424         C3-C2=1.4424         C3-C4=1.5209         C3-C14=1.5520        
C3-C31=1.5676        C4-C3=1.5209         C4-C5=1.3964         C4-C13=1.3855        C5-C4=1.3964         C5-C6=1.3845         
C5-H34=1.0776        C6-C5=1.3845         C6-O7=1.3481         C6-C9=1.4225         O7-C6=1.3481         O7-C8=1.4085         
C8-O7=1.4085         C8-H35=1.0942        C8-H36=1.0880        C8-H37=1.0949        C9-C6=1.4225         C9-O10=1.3470        
C9-C12=1.3859        O10-C9=1.3470        O10-C11=1.4088       C11-O10=1.4088       C11-H38=1.0940       C11-H39=1.0882       
C11-H40=1.0946       C12-C9=1.3859        C12-C13=1.3899       C12-H41=1.0779       C13-C4=1.3855        C13-C12=1.3899       
C13-H42=1.0795       C14-C3=1.5520        C14-C15=1.5379       C14-H43=1.0903       C14-H44=1.0905       C15-C14=1.5379       
C15-C16=1.4768       C15-H45=1.0889       C15-H46=1.0987       C16-C15=1.4768       C16-N17=1.3197       C16-H48=1.0791       
N17-C16=1.3197       N17-C18=1.4446       N17-C30=1.4432       C18-N17=1.4446       C18-C19=1.5418       C18-H49=1.0930       
C18-H50=1.0918       C19-C18=1.5418       C19-C20=1.5038       C19-H51=1.0914       C19-H52=1.0905       C20-C19=1.5038       
C20-C21=1.3862       C20-C29=1.3927       C21-C20=1.3862       C21-C22=1.3858       C21-H53=1.0794       C22-C21=1.3858       
C22-C23=1.3880       C22-H54=1.0775       C23-C22=1.3880       C23-O24=1.3443       C23-C26=1.4236       O24-C23=1.3443       
O24-C25=1.4093       C25-O24=1.4093       C25-H55=1.0942       C25-H56=1.0940       C25-H57=1.0883       C26-C23=1.4236       
C26-O27=1.3463       C26-C29=1.3864       O27-C26=1.3463       O27-C28=1.4077       C28-O27=1.4077       C28-H58=1.0883       
C28-H59=1.0947       C28-H60=1.0943       C29-C20=1.3927       C29-C26=1.3864       C29-H61=1.0788       C30-N17=1.4432       
C30-H62=1.0925       C30-H63=1.0919       C30-H64=1.0871       C31-C3=1.5676        C31-C32=1.5277       C31-C33=1.5273       
C31-H65=1.0945       C32-C31=1.5277       C32-H66=1.0876       C32-H67=1.0880       C32-H68=1.0868       C33-C31=1.5273       
C33-H69=1.0882       C33-H70=1.0874       C33-H71=1.0873       H34-C5=1.0776        H35-C8=1.0942        H36-C8=1.0880        
H37-C8=1.0949        H38-C11=1.0940       H39-C11=1.0882       H40-C11=1.0946       H41-C12=1.0779       H42-C13=1.0795       
H43-C14=1.0903       H44-C14=1.0905       H45-C15=1.0889       H46-C15=1.0987       H47-H72=0.7828       H48-C16=1.0791       
H49-C18=1.0930       H50-C18=1.0918       H51-C19=1.0914       H52-C19=1.0905       H53-C21=1.0794       H54-C22=1.0775       
H55-C25=1.0942       H56-C25=1.0940       H57-C25=1.0883       H58-C28=1.0883       H59-C28=1.0947       H60-C28=1.0943       
H61-C29=1.0788       H62-C30=1.0925       H63-C30=1.0919       H64-C30=1.0871       H65-C31=1.0945       H66-C32=1.0876       
H67-C32=1.0880       H68-C32=1.0868       H69-C33=1.0882       H70-C33=1.0874       H71-C33=1.0873       H72-H47=0.7828       
 H  H  Rav=0.7828 sigma=0.0000  Rmin=0.7828  Rmax=0.7828     1
 C  H  Rav=1.0888 sigma=0.0057  Rmin=1.0775  Rmax=1.0987    37
 C  C  Rav=1.4512 sigma=0.0677  Rmin=1.3845  Rmax=1.5676    22
 N  C  Rav=1.3378 sigma=0.1231  Rmin=1.1436  Rmax=1.4446     4
 O  C  Rav=1.3775 sigma=0.0311  Rmin=1.3443  Rmax=1.4093     8

 selected bond angles (degree)
 --------------------
C3-C2-N1=175.93                C4-C3-C2=110.63                C14-C3-C2=110.38               C14-C3-C4=111.11               
C31-C3-C2=105.49               C31-C3-C4=109.35               C31-C3-C14=109.72              C5-C4-C3=119.49                
C13-C4-C3=121.65               C13-C4-C5=118.86               C6-C5-C4=121.26                H34-C5-C4=119.41               
H34-C5-C6=119.32               O7-C6-C5=125.25                C9-C6-C5=119.46                C9-C6-O7=115.29                
C8-O7-C6=119.26                H35-C8-O7=111.45               H36-C8-O7=105.57               H36-C8-H35=109.29              
H37-C8-O7=111.61               H37-C8-H35=109.63              H37-C8-H36=109.18              O10-C9-C6=115.29               
C12-C9-C6=118.80               C12-C9-O10=125.91              C11-O10-C9=119.24              

 selected dihedral angles (degree)
 ---------------------------------
C4-C3-C2-N1=231.04            C14-C3-C2-N1=107.64           C31-C3-C2-N1=349.18           C5-C4-C3-C2=174.01            
C5-C4-C3-C14=296.98           C5-C4-C3-C31= 58.24           C13-C4-C3-C2=354.03           C13-C4-C3-C14=117.00          
C13-C4-C3-C31=238.26          C6-C5-C4-C3=181.68            C6-C5-C4-C13=  1.66           H34-C5-C4-C3=  0.93           
H34-C5-C4-C13=180.91          O7-C6-C5-C4=179.04            O7-C6-C5-H34=359.79           C9-C6-C5-C4=359.18            
C9-C6-C5-H34=179.93           C8-O7-C6-C5=354.42            C8-O7-C6-C9=174.28            H35-C8-O7-C6=302.71           
H36-C8-O7-C6=184.16           H37-C8-O7-C6= 65.65           O10-C9-C6-C5=179.45           O10-C9-C6-O7=359.58           
C12-C9-C6-C5=359.50           C12-C9-C6-O7=179.63           C11-O10-C9-C6=184.44          C11-O10-C9-C12=  4.39         
           -------------------------------------------------
          |                Final Singlepoint                |
           -------------------------------------------------

          ...................................................
          :                      SETUP                      :
          :.................................................:
          :  # basis functions                 171          :
          :  # atomic orbitals                 171          :
          :  # shells                          105          :
          :  # electrons                       180          :
          :  max. iterations                   250          :
          :  Hamiltonian                  GFN2-xTB          :
          :  restarted?                      false          :
          :  GBSA solvation                  false          :
          :  PC potential                    false          :
          :  electronic temp.         5000.0000000     K    :
          :  accuracy                    1.0000000          :
          :  -> integral cutoff          0.2500000E+02      :
          :  -> integral neglect         0.1000000E-07      :
          :  -> SCF convergence          0.1000000E-05 Eh   :
          :  -> wf. convergence          0.1000000E-03 e    :
          :  Broyden damping             0.4000000          :
          ...................................................

 iter      E             dE          RMSdq      gap      omega  full diag
   1   -100.8033684 -0.100803E+03  0.109E-04    1.62       0.0  T
   2   -100.8033684 -0.143388E-10  0.102E-04    1.62     115.5  T
   3   -100.8033684 -0.745700E-09  0.303E-05    1.62     388.4  T

   *** convergence criteria satisfied after 3 iterations ***

         #    Occupation            Energy/Eh            Energy/eV
      -------------------------------------------------------------
         1        2.0000           -0.8131317             -22.1264
       ...           ...                  ...                  ...
        84        1.9965           -0.5223160             -14.2129
        85        1.9954           -0.5180306             -14.0963
        86        1.9895           -0.5047588             -13.7352
        87        1.9810           -0.4953721             -13.4798
        88        1.9752           -0.4911053             -13.3637
        89        1.8702           -0.4640304             -12.6269
        90        1.8200           -0.4584188             -12.4742 (HOMO)
        91        0.3824           -0.3989499             -10.8560 (LUMO)
        92        0.0036           -0.3218649              -8.7584
        93        0.0029           -0.3183266              -8.6621
        94        0.0024           -0.3150762              -8.5737
        95        0.0021           -0.3128523              -8.5131
       ...           ...                  ...                  ...
       171                          1.0562225              28.7413
      -------------------------------------------------------------
                  HL-Gap            0.0594689 Eh            1.6182 eV
             Fermi-level           -0.4217859 Eh          -11.4774 eV

 SCC (total)                   0 d,  0 h,  0 min,  0.117 sec
 SCC setup                      ...        0 min,  0.001 sec (  0.747%)
 Dispersion                     ...        0 min,  0.002 sec (  1.353%)
 classical contributions        ...        0 min,  0.000 sec (  0.376%)
 integral evaluation            ...        0 min,  0.018 sec ( 15.321%)
 iterations                     ...        0 min,  0.026 sec ( 22.478%)
 molecular gradient             ...        0 min,  0.069 sec ( 59.173%)
 printout                       ...        0 min,  0.001 sec (  0.540%)

         :::::::::::::::::::::::::::::::::::::::::::::::::::::
         ::                     SUMMARY                     ::
         :::::::::::::::::::::::::::::::::::::::::::::::::::::
         :: total energy             -99.363536068470 Eh    ::
         :: gradient norm              0.002686779892 Eh/a0 ::
         :: HOMO-LUMO gap              1.618232477065 eV    ::
         ::.................................................::
         :: SCC energy              -100.803368421360 Eh    ::
         :: -> isotropic ES            0.110044449950 Eh    ::
         :: -> anisotropic ES          0.012518037686 Eh    ::
         :: -> anisotropic XC          0.058623719055 Eh    ::
         :: -> dispersion             -0.074181986763 Eh    ::
         :: repulsion energy           1.438421938879 Eh    ::
         :: add. restraining           0.000105476170 Eh    ::
         :: total charge               1.000000000215 e     ::
         :::::::::::::::::::::::::::::::::::::::::::::::::::::

           -------------------------------------------------
          |                Property Printout                |
           -------------------------------------------------

    * Orbital Energies and Occupations

         #    Occupation            Energy/Eh            Energy/eV
      -------------------------------------------------------------
         1        2.0000           -0.8131317             -22.1264
       ...           ...                  ...                  ...
        78        1.9985           -0.5358908             -14.5823
        79        1.9983           -0.5340776             -14.5330
        80        1.9980           -0.5312794             -14.4568
        81        1.9978           -0.5295381             -14.4095
        82        1.9971           -0.5253860             -14.2965
        83        1.9965           -0.5223362             -14.2135
        84        1.9965           -0.5223160             -14.2129
        85        1.9954           -0.5180306             -14.0963
        86        1.9895           -0.5047588             -13.7352
        87        1.9810           -0.4953721             -13.4798
        88        1.9752           -0.4911053             -13.3637
        89        1.8702           -0.4640304             -12.6269
        90        1.8200           -0.4584188             -12.4742 (HOMO)
        91        0.3824           -0.3989499             -10.8560 (LUMO)
        92        0.0036           -0.3218649              -8.7584
        93        0.0029           -0.3183266              -8.6621
        94        0.0024           -0.3150762              -8.5737
        95        0.0021           -0.3128523              -8.5131
        96        0.0007           -0.2968751              -8.0784
        97        0.0007           -0.2961395              -8.0584
        98        0.0000           -0.1956010              -5.3226
        99        0.0000           -0.1904343              -5.1820
       100                         -0.1372631              -3.7351
       101                         -0.0775491              -2.1102
       ...                                ...                  ...
       171                          1.0562225              28.7413
      -------------------------------------------------------------
                  HL-Gap            0.0594689 Eh            1.6182 eV
             Fermi-level           -0.4217859 Eh          -11.4774 eV

     #   Z          covCN         q      C6AA      α(0)
     1   7 N        0.911    -0.235    26.152     7.396
     2   6 C        1.924     0.119    28.171     8.572
     3   6 C        3.906     0.016    20.244     6.395
     4   6 C        2.977     0.002    27.967     8.675
     5   6 C        2.919    -0.081    30.022     8.985
     6   6 C        2.863     0.130    25.159     8.222
     7   8 O        1.706    -0.229    17.800     5.696
     8   6 C        3.645     0.028    20.440     6.498
     9   6 C        2.863     0.129    25.168     8.223
    10   8 O        1.706    -0.227    17.770     5.692
    11   6 C        3.645     0.026    20.465     6.502
    12   6 C        2.914    -0.075    29.859     8.960
    13   6 C        2.920    -0.054    29.343     8.883
    14   6 C        3.809    -0.059    21.625     6.619
    15   6 C        3.802    -0.068    21.810     6.649
    16   6 C        2.845     0.010    27.788     8.639
    17   7 N        2.729     0.030    20.716     6.760
    18   6 C        3.758    -0.019    20.965     6.528
    19   6 C        3.807    -0.071    21.843     6.653
    20   6 C        2.970     0.001    27.991     8.678
    21   6 C        2.922    -0.047    29.175     8.858
    22   6 C        2.913    -0.066    29.650     8.929
    23   6 C        2.864     0.135    25.049     8.204
    24   8 O        1.706    -0.218    17.617     5.667
    25   6 C        3.645     0.024    20.511     6.509
    26   6 C        2.863     0.134    25.058     8.205
    27   8 O        1.706    -0.221    17.666     5.675
    28   6 C        3.645     0.026    20.474     6.504
    29   6 C        2.919    -0.079    29.966     8.977
    30   6 C        3.701    -0.074    22.078     6.719
    31   6 C        3.866    -0.005    20.631     6.459
    32   6 C        3.755    -0.110    22.658     6.787
    33   6 C        3.754    -0.113    22.724     6.797
    34   1 H        0.926     0.051     2.311     2.377
    35   1 H        0.924     0.054     2.275     2.359
    36   1 H        0.925     0.082     1.960     2.189
    37   1 H        0.924     0.048     2.345     2.395
    38   1 H        0.924     0.056     2.245     2.343
    39   1 H        0.925     0.082     1.957     2.188
    40   1 H        0.924     0.049     2.333     2.388
    41   1 H        0.926     0.053     2.278     2.360
    42   1 H        0.926     0.047     2.357     2.401
    43   1 H        0.924     0.059     2.215     2.328
    44   1 H        0.924     0.057     2.231     2.336
    45   1 H        0.925     0.068     2.111     2.272
    46   1 H        0.923     0.083     1.947     2.182
    47   1 H        0.794    -0.051     4.193     3.219
    48   1 H        0.926     0.079     1.991     2.207
    49   1 H        0.924     0.072     2.059     2.244
    50   1 H        0.924     0.079     1.989     2.206
    51   1 H        0.924     0.056     2.251     2.346
    52   1 H        0.924     0.056     2.243     2.342
    53   1 H        0.926     0.048     2.350     2.397
    54   1 H        0.926     0.061     2.190     2.314
    55   1 H        0.924     0.057     2.238     2.339
    56   1 H        0.924     0.057     2.231     2.336
    57   1 H        0.925     0.084     1.939     2.177
    58   1 H        0.925     0.083     1.944     2.181
    59   1 H        0.924     0.051     2.310     2.377
    60   1 H        0.924     0.054     2.275     2.359
    61   1 H        0.926     0.049     2.334     2.389
    62   1 H        0.924     0.079     1.989     2.205
    63   1 H        0.924     0.082     1.954     2.186
    64   1 H        0.925     0.084     1.943     2.180
    65   1 H        0.924     0.039     2.469     2.457
    66   1 H        0.925     0.051     2.313     2.378
    67   1 H        0.925     0.038     2.479     2.462
    68   1 H        0.925     0.052     2.291     2.367
    69   1 H        0.925     0.049     2.336     2.390
    70   1 H        0.925     0.038     2.469     2.457
    71   1 H        0.925     0.056     2.247     2.344
    72   1 H        0.794     0.049     2.379     2.424

 Mol. C6AA /au·bohr⁶  :      47657.799681
 Mol. C8AA /au·bohr⁸  :    1085364.638357
 Mol. α(0) /au        :        334.918537


Wiberg/Mayer (AO) data.
largest (>0.10) Wiberg bond orders for each atom

 ---------------------------------------------------------------------------
     #   Z sym  total        # sym  WBO       # sym  WBO       # sym  WBO
 ---------------------------------------------------------------------------
     1   7 N    3.008 --     2 C    2.829
     2   6 C    3.936 --     1 N    2.829     3 C    1.029
     3   6 C    3.984 --     2 C    1.029     4 C    0.966    14 C    0.948
                            31 C    0.917
     4   6 C    3.950 --    13 C    1.418     5 C    1.367     3 C    0.966
     5   6 C    3.962 --     6 C    1.401     4 C    1.367    34 H    0.958
     6   6 C    3.905 --     5 C    1.401     9 C    1.219     7 O    1.101
     7   8 O    2.255 --     6 C    1.101     8 C    0.977
     8   6 C    3.931 --     7 O    0.977    36 H    0.977    35 H    0.974
                            37 H    0.973
     9   6 C    3.902 --    12 C    1.393     6 C    1.219    10 O    1.104
    10   8 O    2.255 --     9 C    1.104    11 C    0.977
    11   6 C    3.930 --    39 H    0.977    10 O    0.977    40 H    0.973
                            38 H    0.973
    12   6 C    3.962 --    13 C    1.402     9 C    1.393    41 H    0.964
    13   6 C    3.955 --     4 C    1.418    12 C    1.402    42 H    0.963
    14   6 C    3.974 --    15 C    0.984    44 H    0.973    43 H    0.970
                             3 C    0.948
    15   6 C    3.987 --    16 C    1.063    14 C    0.984    45 H    0.958
                            46 H    0.923
    16   6 C    3.592 --    17 N    1.447    15 C    1.063    48 H    0.954
    17   7 N    3.503 --    16 C    1.447    30 C    0.997    18 C    0.986
    18   6 C    3.950 --    17 N    0.986    19 C    0.965    49 H    0.963
                            50 H    0.958
    19   6 C    3.977 --    20 C    1.008    51 H    0.972    52 H    0.972
                            18 C    0.965
    20   6 C    3.939 --    21 C    1.405    29 C    1.382    19 C    1.008
    21   6 C    3.945 --    22 C    1.419    20 C    1.405    53 H    0.968
    22   6 C    3.956 --    21 C    1.419    23 C    1.380    54 H    0.963
    23   6 C    3.890 --    22 C    1.380    26 C    1.215    24 O    1.115
    24   8 O    2.256 --    23 C    1.115    25 C    0.975
    25   6 C    3.926 --    57 H    0.976    24 O    0.975    56 H    0.972
                            55 H    0.972
    26   6 C    3.893 --    29 C    1.392    23 C    1.215    27 O    1.108
    27   8 O    2.255 --    26 C    1.108    28 C    0.978
    28   6 C    3.930 --    27 O    0.978    58 H    0.976    59 H    0.973
                            60 H    0.973
    29   6 C    3.956 --    26 C    1.392    20 C    1.382    61 H    0.962
    30   6 C    3.956 --    17 N    0.997    64 H    0.977    62 H    0.965
                            63 H    0.961
    31   6 C    3.981 --    33 C    1.010    32 C    1.010    65 H    0.960
                             3 C    0.917
    32   6 C    3.988 --    31 C    1.010    66 H    0.982    67 H    0.982
                            68 H    0.982
    33   6 C    3.988 --    31 C    1.010    70 H    0.984    69 H    0.982
                            71 H    0.980
    34   1 H    0.996 --     5 C    0.958
    35   1 H    0.993 --     8 C    0.974
    36   1 H    0.993 --     8 C    0.977
    37   1 H    0.993 --     8 C    0.973
    38   1 H    0.993 --    11 C    0.973
    39   1 H    0.993 --    11 C    0.977
    40   1 H    0.993 --    11 C    0.973
    41   1 H    0.995 --    12 C    0.964
    42   1 H    0.997 --    13 C    0.963
    43   1 H    0.995 --    14 C    0.970
    44   1 H    0.996 --    14 C    0.973
    45   1 H    0.994 --    15 C    0.958
    46   1 H    0.969 --    15 C    0.923
    47   1 H    0.995 --    72 H    0.969
    48   1 H    0.994 --    16 C    0.954
    49   1 H    0.990 --    18 C    0.963
    50   1 H    0.993 --    18 C    0.958
    51   1 H    0.996 --    19 C    0.972
    52   1 H    0.995 --    19 C    0.972
    53   1 H    0.997 --    21 C    0.968
    54   1 H    0.995 --    22 C    0.963
    55   1 H    0.990 --    25 C    0.972
    56   1 H    0.991 --    25 C    0.972
    57   1 H    0.992 --    25 C    0.976
    58   1 H    0.992 --    28 C    0.976
    59   1 H    0.992 --    28 C    0.973
    60   1 H    0.992 --    28 C    0.973
    61   1 H    0.996 --    29 C    0.962
    62   1 H    0.984 --    30 C    0.965
    63   1 H    0.987 --    30 C    0.961
    64   1 H    0.993 --    30 C    0.977
    65   1 H    0.996 --    31 C    0.960
    66   1 H    0.996 --    32 C    0.982
    67   1 H    0.997 --    32 C    0.982
    68   1 H    0.996 --    32 C    0.982
    69   1 H    0.996 --    33 C    0.982
    70   1 H    0.997 --    33 C    0.984
    71   1 H    0.995 --    33 C    0.980
    72   1 H    0.995 --    47 H    0.969
 ---------------------------------------------------------------------------

Topologies differ in total number of bonds
Writing topology from bond orders to xtbtopo.mol

molecular dipole:
                 x           y           z       tot (Debye)
 q only:        0.768      -0.487      -1.456
   full:        0.428      -0.458      -1.811       4.871
molecular quadrupole (traceless):
                xx          xy          yy          xz          yz          zz
 q only:       61.890       2.233     -17.568       7.907     -16.028     -44.321
  q+dip:       59.897       1.619     -16.579       8.527     -20.074     -43.318
   full:       60.014       0.683     -16.873       5.113     -20.119     -43.141

           -------------------------------------------------
          |                Geometry Summary                 |
           -------------------------------------------------

      molecular mass/u    :      455.6105846
   center of mass at/Å    :       -0.0305549      -0.0022320       0.0051997
  moments of inertia/u·Å² :        0.2432421E+04   0.1103069E+05   0.1233764E+05
rotational constants/cm⁻¹ :        0.6930393E-02   0.1528248E-02   0.1366358E-02

 * 67 selected distances

     #   Z          #   Z                                           value/Å
     1   7 N        2   6 C                                       1.1435951
     4   6 C        5   6 C                                       1.3963726
     5   6 C        6   6 C                                       1.3844676
     6   6 C        7   8 O                                       1.3481084
     7   8 O        8   6 C                                       1.4084536
     6   6 C        9   6 C                                       1.4224654
     9   6 C       10   8 O                                       1.3469683
    10   8 O       11   6 C                                       1.4088335
     9   6 C       12   6 C                                       1.3859001
     4   6 C       13   6 C                                       1.3855294
    12   6 C       13   6 C                                       1.3899382
    14   6 C       15   6 C                                       1.5378831
    15   6 C       16   6 C                                       1.4768078
    16   6 C       17   7 N                                       1.3197416
    17   7 N       18   6 C                                       1.4446382
    18   6 C       19   6 C                                       1.5417699 (max)
    20   6 C       21   6 C                                       1.3862430
    21   6 C       22   6 C                                       1.3858414
    22   6 C       23   6 C                                       1.3879798
    23   6 C       24   8 O                                       1.3442838
    24   8 O       25   6 C                                       1.4093448
    23   6 C       26   6 C                                       1.4236012
    26   6 C       27   8 O                                       1.3462686
    27   8 O       28   6 C                                       1.4076866
    20   6 C       29   6 C                                       1.3926777
    26   6 C       29   6 C                                       1.3864347
    17   7 N       30   6 C                                       1.4432023
    31   6 C       32   6 C                                       1.5277145
    31   6 C       33   6 C                                       1.5273181
     5   6 C       34   1 H                                       1.0775514
     8   6 C       35   1 H                                       1.0941988
     8   6 C       36   1 H                                       1.0880198
     8   6 C       37   1 H                                       1.0949135
    11   6 C       38   1 H                                       1.0939607
    11   6 C       39   1 H                                       1.0882071
    11   6 C       40   1 H                                       1.0946479
    12   6 C       41   1 H                                       1.0778877
    13   6 C       42   1 H                                       1.0794750
    14   6 C       43   1 H                                       1.0903481
    14   6 C       44   1 H                                       1.0904970
    15   6 C       45   1 H                                       1.0889498
    15   6 C       46   1 H                                       1.0986574
    16   6 C       48   1 H                                       1.0791352
    18   6 C       49   1 H                                       1.0929578
    18   6 C       50   1 H                                       1.0917569
    19   6 C       51   1 H                                       1.0914096
    19   6 C       52   1 H                                       1.0905318
    21   6 C       53   1 H                                       1.0794183
    22   6 C       54   1 H                                       1.0775331
    25   6 C       55   1 H                                       1.0942038
    25   6 C       56   1 H                                       1.0939584
    25   6 C       57   1 H                                       1.0883170
    28   6 C       58   1 H                                       1.0883183
    28   6 C       59   1 H                                       1.0947248
    28   6 C       60   1 H                                       1.0943441
    29   6 C       61   1 H                                       1.0787842
    30   6 C       62   1 H                                       1.0925102
    30   6 C       63   1 H                                       1.0919386
    30   6 C       64   1 H                                       1.0870933
    31   6 C       65   1 H                                       1.0944669
    32   6 C       66   1 H                                       1.0875865
    32   6 C       67   1 H                                       1.0880263
    32   6 C       68   1 H                                       1.0868281
    33   6 C       69   1 H                                       1.0881882
    33   6 C       70   1 H                                       1.0874318
    33   6 C       71   1 H                                       1.0873447
    47   1 H       72   1 H                                       0.7828464 (min)

 * 5 distinct bonds (by element types)

   Z      Z             #   av. dist./Å        max./Å        min./Å
   1 H    1 H           1     0.7828464     0.7828464     0.7828464
   1 H    6 C          37     1.0887601     1.0986574     1.0775331
   6 C    6 C          17     1.4317026     1.5417699     1.3844676
   6 C    7 N           4     1.3377943     1.4446382     1.1435951
   6 C    8 O           8     1.3774934     1.4093448     1.3442838


optimized geometry written to: xtbopt.xyz


           -------------------------------------------------
          | TOTAL ENERGY              -99.363536068470 Eh   |
          | GRADIENT NORM               0.002686779892 Eh/α |
          | HOMO-LUMO GAP               1.618232477065 eV   |
           -------------------------------------------------

------------------------------------------------------------------------
 * finished run on 2024/04/06 at 11:12:02.973     
------------------------------------------------------------------------
 total:
 * wall-time:     0 d,  0 h,  0 min,  6.921 sec
 *  cpu-time:     0 d,  0 h,  0 min,  6.885 sec
 * ratio c/w:     0.995 speedup
 SCF:
 * wall-time:     0 d,  0 h,  0 min,  0.195 sec
 *  cpu-time:     0 d,  0 h,  0 min,  0.190 sec
 * ratio c/w:     0.977 speedup
 ANC optimizer:
 * wall-time:     0 d,  0 h,  0 min,  6.677 sec
 *  cpu-time:     0 d,  0 h,  0 min,  6.670 sec
 * ratio c/w:     0.999 speedup

